Title
81330
    1CHL1    C3    1   1.031   0.548  10.316 -0.5321  0.3859 -0.9958
    1CHL1    H3    2   1.104   0.619  10.272 -1.1825  1.1288 -0.8840
    1CHL1    O3    3   1.036   0.519  10.451  0.3741  0.1115 -0.0632
    1CHL1   H3'    4   1.032   0.605  10.492 -0.4657 -0.4289  1.0426
    1CHL1    C4    5   0.888   0.597  10.288  0.3036 -0.5297 -0.5867
    1CHL1   H4A    6   0.819   0.517  10.324  1.3648 -0.0288  2.9662
    1CHL1   H4B    7   0.865   0.689  10.346  0.3840 -0.6812 -0.3119
    1CHL1    C5    8   0.871   0.614  10.140  1.0484 -0.2577  0.0795
    1CHL1    C6    9   0.831   0.729  10.082  0.2027  0.4444  0.0263
    1CHL1    H6   10   0.815   0.813  10.151  0.0692  0.3038  0.1665
    1CHL1    C7   11   0.792   0.746   9.939  0.0868  0.0379  0.6825
    1CHL1   H7A   12   0.689   0.788   9.934 -0.2771 -0.5941  2.2116
    1CHL1   H7B   13   0.859   0.808   9.876 -0.6634  1.1506  0.9555
    1CHL1    C8   14   0.794   0.609   9.865 -0.5305 -0.0837  0.0319
    1CHL1    H8   15   0.698   0.558   9.887  1.2605 -3.0379  1.7785
    1CHL1   C14   16   0.800   0.628   9.713  0.4531  0.0953  0.1937
    1CHL1   H14   17   0.895   0.683   9.693  0.0361  0.6177 -0.3838
    1CHL1   C15   18   0.695   0.715   9.646  0.5160 -0.9221 -0.9718
    1CHL1  H15A   19   0.594   0.709   9.693  0.7141 -2.2061 -0.6806
    1CHL1  H15B   20   0.721   0.822   9.664 -1.3313 -0.8635  2.2628
    1CHL1   C16   21   0.699   0.680   9.500  0.1537 -0.2348  0.4951
    1CHL1  H16A   22   0.600   0.639   9.472 -0.1582  1.3239 -0.7635
    1CHL1  H16B   23   0.716   0.767   9.434  0.0741 -1.2847 -0.9534
    1CHL1   C17   24   0.807   0.568   9.487 -0.2223  0.5151  0.2856
    1CHL1   H17   25   0.907   0.614   9.481 -0.4346  0.8152 -1.4168
    1CHL1   C13   26   0.811   0.500   9.625  0.2623 -0.2375 -0.2839
    1CHL1   C18   27   0.679   0.418   9.653 -0.1495  0.1136  0.0133
    1CHL1  H18A   28   0.684   0.327   9.590 -1.0839  0.0168  0.0750
    1CHL1  H18B   29   0.662   0.375   9.754  0.7592 -3.8284 -1.3245
    1CHL1  H18C   30   0.592   0.475   9.614 -0.4150  0.1998  0.7166
    1CHL1   C12   31   0.936   0.426   9.669 -0.4649 -0.1914  0.2488
    1CHL1  H12A   32   0.954   0.335   9.608 -1.0366 -0.6774  0.8061
    1CHL1  H12B   33   1.016   0.501   9.648 -0.1820 -0.6647 -0.4248
    1CHL1   C11   34   0.939   0.387   9.814 -0.0372  0.0388 -0.0193
    1CHL1  H11A   35   0.855   0.317   9.834 -0.4132  0.4720 -0.0612
    1CHL1  H11B   36   1.038   0.344   9.840 -0.8353 -2.1667 -0.4215
    1CHL1    C9   37   0.909   0.514   9.902  0.0447 -0.3217 -0.7821
    1CHL1    H9   38   0.999   0.575   9.881 -0.5873  0.3971 -1.4756
    1CHL1   C10   39   0.901   0.485  10.056 -0.9693 -0.1491 -0.6438
    1CHL1   C19   40   0.783   0.384  10.078 -0.1339  0.8960 -0.0784
    1CHL1  H19A   41   0.701   0.420  10.012  0.9524  0.5455 -1.7009
    1CHL1  H19B   42   0.803   0.276  10.056 -1.6372  0.1426  1.9314
    1CHL1  H19C   43   0.746   0.392  10.182 -2.9049 -2.5635 -0.5689
    1CHL1    C1   44   1.035   0.421  10.096  0.0232  0.0820  0.5621
    1CHL1   H1A   45   1.052   0.323  10.046  1.7904  1.0038 -0.7376
    1CHL1   H1B   46   1.116   0.485  10.055  0.4861 -0.7989  0.0662
    1CHL1    C2   47   1.041   0.406  10.244 -0.9967 -0.2122 -0.6117
    1CHL1   H2A   48   1.140   0.358  10.258 -0.7779  0.2797 -0.4722
    1CHL1   H2B   49   0.975   0.333  10.297  0.3389 -0.9704  0.0552
    1CHL1   C20   50   0.787   0.481   9.361  0.2852 -0.9640  0.3474
    1CHL1   H20   51   0.697   0.418   9.379 -1.3854  0.7720 -1.3953
    1CHL1   C21   52   0.905   0.389   9.333 -0.4054  0.0954  0.1962
    1CHL1  H21A   53   0.930   0.317   9.413 -1.6212 -1.6386 -0.9164
    1CHL1  H21B   54   0.999   0.440   9.303  0.4904 -1.3215  0.5004
    1CHL1  H21C   55   0.902   0.321   9.245  2.0595 -0.3709  0.3959
    1CHL1   C22   56   0.752   0.574   9.238 -0.4829 -0.2496 -0.1182
    1CHL1  H22A   57   0.648   0.613   9.250 -0.8356 -1.6057  1.4874
    1CHL1  H22B   58   0.833   0.650   9.241  1.1603 -1.9581  0.0685
    1CHL1   C23   59   0.762   0.519   9.094  0.2196 -0.2348 -0.5784
    1CHL1  H23A   60   0.855   0.464   9.067 -0.4279 -1.6189 -0.1024
    1CHL1  H23B   61   0.672   0.455   9.080 -0.2651  0.5415 -1.0703
    1CHL1   C24   62   0.735   0.626   8.985  0.0371 -0.1531  0.0440
    1CHL1  H24A   63   0.684   0.711   9.035 -0.4336 -0.5535  0.2482
    1CHL1  H24B   64   0.828   0.664   8.937 -0.9864  2.3035 -0.1810
    1CHL1   C25   65   0.665   0.574   8.858 -0.5215 -0.3537  0.0944
    1CHL1   H25   66   0.558   0.553   8.882 -0.7543  1.0884  0.3830
    1CHL1   C26   67   0.664   0.697   8.770 -0.4066 -0.8103  0.3814
    1CHL1  H26A   68   0.767   0.719   8.733 -0.8132 -0.2559 -0.4417
    1CHL1  H26B   69   0.593   0.676   8.687 -2.2074  1.1730  1.3268
    1CHL1  H26C   70   0.622   0.786   8.821 -1.5731 -0.1113 -1.7096
    1CHL1   C27   71   0.711   0.455   8.775 -0.3179 -0.4229 -0.8662
    1CHL1  H27A   72   0.803   0.481   8.719  0.1000 -1.0303 -0.4632
    1CHL1  H27B   73   0.709   0.364   8.838 -2.7862 -2.0765 -3.1027
    1CHL1  H27C   74   0.638   0.436   8.693 -0.2724 -0.4039 -0.9104
    2CHL1    C3   75   1.755   5.932  10.078 -0.0172 -0.0259  0.6841
    2CHL1    H3   76   1.645   5.931  10.066 -0.1571 -0.4155  1.8157
    2CHL1    O3   77   1.769   5.939  10.221  0.1454  0.7494  0.1602
    2CHL1   H3'   78   1.815   6.022  10.234  0.3712  0.4618  1.2981
    2CHL1    C4   79   1.824   5.800  10.026  0.4186  0.0527 -0.3086
    2CHL1   H4A   80   1.928   5.794  10.064 -0.1598 -1.6639  1.1619
    2CHL1   H4B   81   1.766   5.722  10.080 -0.7814  1.3011  0.2861
    2CHL1    C5   82   1.823   5.779   9.881  0.1119  0.8593  0.3619
    2CHL1    C6   83   1.775   5.666   9.826 -0.2937 -0.0435  0.0310
    2CHL1    H6   84   1.752   5.585   9.897  0.6833 -0.6511 -0.3186
    2CHL1    C7   85   1.763   5.637   9.674  0.4212 -0.1634  0.3747
    2CHL1   H7A   86   1.816   5.544   9.644 -0.0908 -0.2115 -0.4218
    2CHL1   H7B   87   1.658   5.618   9.643  0.6256 -2.6565  0.9950
    2CHL1    C8   88   1.822   5.752   9.595  0.2190 -0.5590 -0.2501
    2CHL1    H8   89   1.931   5.735   9.585 -0.2471 -5.2800  0.2519
    2CHL1   C14   90   1.759   5.747   9.456  1.0492 -0.0189 -0.1437
    2CHL1   H14   91   1.653   5.772   9.474  1.4762  1.7155  0.1216
    2CHL1   C15   92   1.753   5.614   9.383  0.8435 -0.6467 -0.5680
    2CHL1  H15A   93   1.842   5.549   9.402  1.0303 -0.0868  0.5147
    2CHL1  H15B   94   1.667   5.552   9.414 -0.3770  1.0991 -0.3364
    2CHL1   C16   95   1.728   5.657   9.235 -0.8663 -0.5247  0.6926
    2CHL1  H16A   96   1.822   5.620   9.189 -1.2814  0.6535 -1.2297
    2CHL1  H16B   97   1.637   5.619   9.183 -0.9962 -3.1361  2.6048
    2CHL1   C17   98   1.727   5.816   9.233 -0.0589 -0.1502 -1.0867
    2CHL1   H17   99   1.621   5.834   9.260  0.0324 -1.2208  0.0679
    2CHL1   C13  100   1.805   5.860   9.361  0.4034  0.1094 -0.0783
    2CHL1   C18  101   1.952   5.859   9.333 -0.4195  0.0642  0.3441
    2CHL1  H18A  102   2.012   5.889   9.422  0.7959  1.9136 -1.0316
    2CHL1  H18B  103   2.004   5.769   9.294  0.4213  0.5426  0.3394
    2CHL1  H18C  104   1.983   5.932   9.256  2.0710 -2.4580 -1.2767
    2CHL1   C12  105   1.763   6.000   9.424  0.4979 -0.1655  0.4184
    2CHL1  H12A  106   1.793   6.086   9.361 -0.8691 -0.3457 -0.5225
    2CHL1  H12B  107   1.652   5.994   9.416  0.4481 -0.2372  1.0831
    2CHL1   C11  108   1.814   6.018   9.568  0.0356  0.7458  0.2134
    2CHL1  H11A  109   1.923   6.041   9.572  0.5500 -1.4820  0.1614
    2CHL1  H11B  110   1.761   6.106   9.611 -1.9552 -0.8413  1.1553
    2CHL1    C9  111   1.793   5.892   9.655 -0.3279  0.5531  0.6813
    2CHL1    H9  112   1.682   5.883   9.661 -0.4731 -1.6268 -2.7354
    2CHL1   C10  113   1.848   5.913   9.800 -0.1935 -0.2585 -0.5593
    2CHL1   C19  114   1.999   5.926   9.799 -0.1543  0.4928  0.9381
    2CHL1  H19A  115   2.051   5.846   9.743 -1.4313 -1.3639  2.2789
    2CHL1  H19B  116   2.032   6.025   9.760 -1.1510  0.1695 -0.8323
    2CHL1  H19C  117   2.032   5.914   9.905  0.1406  0.5501  0.8557
    2CHL1    C1  118   1.794   6.045   9.864 -0.0329  0.4253 -0.3492
    2CHL1   H1A  119   1.841   6.133   9.814  1.5773 -0.3341 -0.2275
    2CHL1   H1B  120   1.686   6.048   9.840 -0.4078 -0.2274  1.1235
    2CHL1    C2  121   1.826   6.052  10.019  0.3095 -0.9435 -0.5286
    2CHL1   H2A  122   1.783   6.150  10.048 -1.4731 -1.9629  0.3710
    2CHL1   H2B  123   1.936   6.045  10.035  0.7481 -0.0817 -2.7559
    2CHL1   C20  124   1.755   5.887   9.096 -0.0810  0.4124 -0.3787
    2CHL1   H20  125   1.864   5.882   9.073  0.7406  4.3890  1.7355
    2CHL1   C21  126   1.732   6.041   9.088 -0.3485 -0.7109  0.7833
    2CHL1  H21A  127   1.767   6.084   8.992 -0.1009  1.6034  1.8642
    2CHL1  H21B  128   1.802   6.095   9.156  2.7502 -1.1408 -1.8149
    2CHL1  H21C  129   1.626   6.065   9.112 -0.5832  1.2084 -1.7954
    2CHL1   C22  130   1.691   5.818   8.981  0.1267 -0.4293  0.7188
    2CHL1  H22A  131   1.713   5.709   8.980 -0.0230 -0.4672  1.0499
    2CHL1  H22B  132   1.580   5.808   8.986  0.1766 -3.7514 -1.7338
    2CHL1   C23  133   1.726   5.871   8.835  0.3664 -0.7149 -0.8223
    2CHL1  H23A  134   1.681   5.972   8.827  1.7267  0.0588  0.9097
    2CHL1  H23B  135   1.836   5.882   8.844  0.0727  0.3763  2.1882
    2CHL1   C24  136   1.706   5.774   8.725 -0.2586 -0.2148  1.1678
    2CHL1  H24A  137   1.776   5.688   8.732 -0.6231 -0.5627  0.6741
    2CHL1  H24B  138   1.606   5.725   8.712 -0.2009 -0.0072 -0.2460
    2CHL1   C25  139   1.726   5.845   8.595 -0.0376  0.2518 -0.2411
    2CHL1   H25  140   1.654   5.929   8.583 -0.0459  0.6089  1.8603
    2CHL1   C26  141   1.865   5.902   8.571  0.7601 -0.1574 -0.4004
    2CHL1  H26A  142   1.931   5.817   8.597 -0.7136 -1.2414 -0.1156
    2CHL1  H26B  143   1.871   5.934   8.464 -0.0445 -0.9955 -0.7131
    2CHL1  H26C  144   1.873   5.986   8.644  0.8650 -0.1982 -0.3661
    2CHL1   C27  145   1.698   5.747   8.481 -0.0791  0.1505 -0.5115
    2CHL1  H27A  146   1.701   5.799   8.383 -2.1954 -2.2595 -1.9682
    2CHL1  H27B  147   1.785   5.678   8.482  2.4383  3.0346 -2.7694
    2CHL1  H27C  148   1.605   5.687   8.494  0.4538 -0.6560 -0.3105
    3CHL1    C3  149   3.520   0.283  10.583 -0.4791 -0.0739 -0.6213
    3CHL1    H3  150   3.409   0.292  10.587 -0.3706  1.1534 -0.1862
    3CHL1    O3  151   3.566   0.282  10.718  0.0454 -0.4358 -0.3704
    3CHL1   H3'  152   3.661   0.268  10.719  0.6405  2.5284  2.5153
    3CHL1    C4  153   3.580   0.156  10.521  0.6127 -0.0512 -0.0767
    3CHL1   H4A  154   3.687   0.135  10.545  0.1983 -1.1516  0.9095
    3CHL1   H4B  155   3.537   0.079  10.588  2.5581  0.8755  2.4490
    3CHL1    C5  156   3.545   0.160  10.372 -0.6335  1.0301 -0.4826
    3CHL1    C6  157   3.485   0.050  10.326  0.2532 -0.3174  0.1429
    3CHL1    H6  158   3.451  -0.034  10.388 -0.2642  1.3431  2.2444
    3CHL1    C7  159   3.464   0.041  10.179 -0.4970  0.0948  0.1048
    3CHL1   H7A  160   3.469  -0.063  10.141  3.5324 -0.1680  0.9360
    3CHL1   H7B  161   3.360   0.077  10.160 -0.7531 -0.8780 -0.3614
    3CHL1    C8  162   3.551   0.132  10.091 -0.0954 -0.4748  0.0261
    3CHL1    H8  163   3.650   0.082  10.092 -0.6858 -1.6696  0.2721
    3CHL1   C14  164   3.511   0.141   9.943  0.3557 -0.3579 -0.4573
    3CHL1   H14  165   3.413   0.192   9.959 -0.0643 -1.7573  2.2204
    3CHL1   C15  166   3.477   0.005   9.875  0.1316 -0.4379  0.7505
    3CHL1  H15A  167   3.557  -0.070   9.893  1.4849  0.9857  0.9052
    3CHL1  H15B  168   3.378  -0.033   9.909  0.6116 -0.8103  1.7714
    3CHL1   C16  169   3.489   0.037   9.723 -0.5986 -0.2663 -0.3428
    3CHL1  H16A  170   3.567  -0.030   9.682  0.3255  0.2445  0.5457
    3CHL1  H16B  171   3.391   0.024   9.671 -0.3152  0.2538 -1.0222
    3CHL1   C17  172   3.532   0.188   9.717 -0.1739 -0.3245  0.1621
    3CHL1   H17  173   3.442   0.251   9.702  0.7538  0.8078 -0.8664
    3CHL1   C13  174   3.599   0.220   9.852 -0.0810  0.1547 -0.3204
    3CHL1   C18  175   3.743   0.157   9.851 -0.2611 -0.6446 -0.2619
    3CHL1  H18A  176   3.795   0.145   9.949  1.3071  1.2693 -0.7967
    3CHL1  H18B  177   3.734   0.059   9.800  1.1049 -1.8580  1.6389
    3CHL1  H18C  178   3.815   0.222   9.797 -0.6860 -0.3552 -0.4852
    3CHL1   C12  179   3.591   0.365   9.900  0.2333 -0.3674  0.4082
    3CHL1  H12A  180   3.635   0.436   9.827 -1.8230 -0.3709 -0.9247
    3CHL1  H12B  181   3.484   0.393   9.895  0.7167  1.2640 -2.4117
    3CHL1   C11  182   3.638   0.369  10.049 -0.3251  0.2911  0.3397
    3CHL1  H11A  183   3.743   0.334  10.049  0.6021  2.4563 -3.5489
    3CHL1  H11B  184   3.629   0.473  10.088 -0.8516  0.5198 -0.3560
    3CHL1    C9  185   3.561   0.270  10.148  0.1947 -0.1617 -0.1562
    3CHL1    H9  186   3.461   0.317  10.144  0.7456  0.9791 -1.4352
    3CHL1   C10  187   3.609   0.281  10.298  0.2430 -0.0829 -0.2983
    3CHL1   C19  188   3.758   0.261  10.308  0.0212 -0.4469 -0.4225
    3CHL1  H19A  189   3.793   0.163  10.268 -1.0125 -0.2556 -1.8943
    3CHL1  H19B  190   3.820   0.338  10.256 -1.5087  1.0509 -0.1147
    3CHL1  H19C  191   3.800   0.277  10.410  1.1250  0.2365 -0.9640
    3CHL1    C1  192   3.548   0.405  10.364  0.4605 -0.7122 -0.2068
    3CHL1   H1A  193   3.581   0.497  10.310 -1.9537 -0.7329 -1.8870
    3CHL1   H1B  194   3.439   0.414  10.341  0.2723 -1.8393  0.1930
    3CHL1    C2  195   3.575   0.414  10.515 -0.1926 -0.0000 -0.1632
    3CHL1   H2A  196   3.529   0.503  10.564  1.4323  0.2137  1.0339
    3CHL1   H2B  197   3.682   0.424  10.541  0.5522 -0.8242 -2.6006
    3CHL1   C20  198   3.619   0.210   9.593 -0.2296  0.2055  0.6141
    3CHL1   H20  199   3.701   0.135   9.602 -2.2473 -2.3608 -1.1378
    3CHL1   C21  200   3.671   0.351   9.579 -0.1743  0.3390 -0.4075
    3CHL1  H21A  201   3.731   0.379   9.669 -1.2044  0.1106  0.3731
    3CHL1  H21B  202   3.584   0.418   9.560 -0.7370 -1.1747 -3.8571
    3CHL1  H21C  203   3.744   0.359   9.497 -0.3647 -1.0388 -0.7273
    3CHL1   C22  204   3.553   0.162   9.452  0.8950 -0.1127  0.3080
    3CHL1  H22A  205   3.502   0.065   9.475  0.9633 -0.3312 -0.4463
    3CHL1  H22B  206   3.472   0.232   9.423 -1.9013 -2.8140  1.0281
    3CHL1   C23  207   3.654   0.149   9.339 -0.3130  0.0176 -0.2863
    3CHL1  H23A  208   3.706   0.246   9.324  1.4225 -0.8603 -0.2921
    3CHL1  H23B  209   3.741   0.096   9.385  0.2421  0.7674 -0.4486
    3CHL1   C24  210   3.614   0.077   9.216  0.2030 -0.3177  0.1188
    3CHL1  H24A  211   3.566  -0.017   9.250 -2.1186 -0.1257 -2.2256
    3CHL1  H24B  212   3.531   0.128   9.163 -0.0811 -1.7808 -0.9082
    3CHL1   C25  213   3.724   0.032   9.113 -0.0323 -0.7443  0.2686
    3CHL1   H25  214   3.803  -0.025   9.165  1.6375  1.1610 -0.0750
    3CHL1   C26  215   3.661  -0.049   8.998 -0.2714  0.1644  0.8871
    3CHL1  H26A  216   3.601   0.021   8.936 -2.3738 -2.5449 -0.3131
    3CHL1  H26B  217   3.737  -0.100   8.936 -0.8920  0.3012 -0.0034
    3CHL1  H26C  218   3.592  -0.126   9.039 -0.5071  1.2352  2.6582
    3CHL1   C27  219   3.796   0.158   9.060 -0.2844 -0.9031 -0.3577
    3CHL1  H27A  220   3.872   0.186   9.136 -1.7331  1.1278  0.4338
    3CHL1  H27B  221   3.849   0.137   8.965 -2.8377  1.0747 -2.3721
    3CHL1  H27C  222   3.730   0.247   9.052  1.2735  0.4019  0.6344
    4CHL1    C3  223   2.868   0.537  10.564 -0.3284  0.0499 -0.0676
    4CHL1    H3  224   2.971   0.560  10.527 -0.4483 -0.2944 -0.6202
    4CHL1    O3  225   2.867   0.520  10.708 -0.3567  0.0818 -0.2208
    4CHL1   H3'  226   2.785   0.545  10.751 -1.1389 -1.1991 -0.8933
    4CHL1    C4  227   2.765   0.646  10.525  0.1975 -0.2248  0.0397
    4CHL1   H4A  228   2.669   0.608  10.564  0.7026 -0.1604  1.4050
    4CHL1   H4B  229   2.797   0.729  10.591  1.5274 -0.1458 -0.6636
    4CHL1    C5  230   2.758   0.674  10.379  0.9202  0.0995  1.6023
    4CHL1    C6  231   2.790   0.796  10.333  0.7289 -0.8919 -0.2595
    4CHL1    H6  232   2.839   0.863  10.405  2.2933 -2.7116  0.4252
    4CHL1    C7  233   2.782   0.827  10.191  0.3942  0.1071 -0.9541
    4CHL1   H7A  234   2.738   0.927  10.172 -1.2986 -0.3395  0.4225
    4CHL1   H7B  235   2.888   0.836  10.159  1.8805 -1.4954  2.9244
    4CHL1    C8  236   2.704   0.724  10.101 -0.3924  0.1255 -0.3889
    4CHL1    H8  237   2.599   0.748  10.128 -0.6037  1.9488 -2.4988
    4CHL1   C14  238   2.728   0.740   9.953  0.7018  0.7538 -0.1716
    4CHL1   H14  239   2.837   0.717   9.948  0.2584 -1.4497 -0.7179
    4CHL1   C15  240   2.713   0.884   9.892 -0.7502  0.3608 -0.1209
    4CHL1  H15A  241   2.617   0.930   9.924 -0.0799  1.2334  0.7095
    4CHL1  H15B  242   2.801   0.944   9.923 -0.5247 -0.5249  1.0212
    4CHL1   C16  243   2.723   0.848   9.742  0.2519  0.1350 -0.5027
    4CHL1  H16A  244   2.645   0.910   9.693  0.6459 -0.2452 -1.6341
    4CHL1  H16B  245   2.816   0.872   9.686  0.8551  3.7755  1.7214
    4CHL1   C17  246   2.705   0.698   9.719  0.3455  0.5319 -0.0484
    4CHL1   H17  247   2.804   0.650   9.713 -0.4408 -1.5298  1.8552
    4CHL1   C13  248   2.658   0.644   9.860 -0.4076 -0.0854  0.0971
    4CHL1   C18  249   2.506   0.656   9.880 -0.6489  0.5747  0.0552
    4CHL1  H18A  250   2.473   0.646   9.985 -3.1471  2.5033 -0.4420
    4CHL1  H18B  251   2.470   0.758   9.853  1.7629  1.8556  1.2396
    4CHL1  H18C  252   2.457   0.588   9.807  1.5445 -0.1060 -0.8779
    4CHL1   C12  253   2.715   0.500   9.891 -0.2504 -0.5542 -0.3756
    4CHL1  H12A  254   2.665   0.419   9.835 -1.5990 -1.7573  2.3856
    4CHL1  H12B  255   2.826   0.501   9.879 -0.2433  2.1024 -0.7056
    4CHL1   C11  256   2.694   0.471  10.045  0.2282  0.2992  0.5928
    4CHL1  H11A  257   2.590   0.441  10.068  0.1630  0.9632  1.2049
    4CHL1  H11B  258   2.750   0.377  10.061 -0.3109 -0.6654 -2.3946
    4CHL1    C9  259   2.737   0.579  10.140  0.3620  0.2984 -0.1275
    4CHL1    H9  260   2.847   0.578  10.126  0.3419 -1.2042 -0.3703
    4CHL1   C10  261   2.714   0.555  10.290 -0.1005 -0.2239  0.2058
    4CHL1   C19  262   2.564   0.533  10.324 -0.3138 -0.4879  0.2355
    4CHL1  H19A  263   2.520   0.449  10.266  0.7816  0.3593 -1.9224
    4CHL1  H19B  264   2.543   0.527  10.433  1.1129 -0.8703  0.5105
    4CHL1  H19C  265   2.510   0.627  10.299 -0.6870 -0.4357  1.1934
    4CHL1    C1  266   2.796   0.428  10.333  0.3523 -0.1295  0.1558
    4CHL1   H1A  267   2.748   0.331  10.308 -1.7433  0.1904  2.4828
    4CHL1   H1B  268   2.897   0.436  10.288 -0.5451  0.7541 -1.7860
    4CHL1    C2  269   2.819   0.414  10.487 -0.0223 -0.4839 -1.0230
    4CHL1   H2A  270   2.881   0.323  10.501 -0.0634 -0.1800  1.6579
    4CHL1   H2B  271   2.722   0.391  10.535  0.2342  0.7683  0.1696
    4CHL1   C20  272   2.627   0.653   9.591  0.2962 -0.6150  0.1413
    4CHL1   H20  273   2.519   0.679   9.601  0.7037  1.1188  0.4628
    4CHL1   C21  274   2.642   0.503   9.577  0.4069  0.1705 -0.1889
    4CHL1  H21A  275   2.572   0.458   9.651  0.5786 -0.0656 -0.1688
    4CHL1  H21B  276   2.745   0.470   9.601  0.4732  0.1364 -0.5198
    4CHL1  H21C  277   2.625   0.457   9.477  0.0483 -3.3901  1.3567
    4CHL1   C22  278   2.674   0.725   9.459  0.4163  0.3181  0.1120
    4CHL1  H22A  279   2.674   0.835   9.479  0.8278  0.1765  0.9171
    4CHL1  H22B  280   2.778   0.697   9.433  0.7131 -0.5463  2.0585
    4CHL1   C23  281   2.571   0.707   9.341  0.8612  0.4927  0.3982
    4CHL1  H23A  282   2.548   0.598   9.345  1.1585  0.4271  0.3341
    4CHL1  H23B  283   2.473   0.758   9.342  0.6412  0.2540 -2.1578
    4CHL1   C24  284   2.628   0.748   9.202 -1.0212 -0.3567  0.0792
    4CHL1  H24A  285   2.668   0.851   9.209  3.3811 -1.9729  2.6404
    4CHL1  H24B  286   2.708   0.676   9.173 -0.8129  0.0510 -0.3595
    4CHL1   C25  287   2.535   0.738   9.085  0.8312  0.5539 -0.1806
    4CHL1   H25  288   2.485   0.640   9.096  0.9991  0.7373  3.5749
    4CHL1   C26  289   2.424   0.843   9.077 -0.3757 -0.1784 -0.7965
    4CHL1  H26A  290   2.374   0.864   9.174  0.5288  0.2997 -0.4158
    4CHL1  H26B  291   2.446   0.946   9.041 -2.1408  0.7946  0.7191
    4CHL1  H26C  292   2.340   0.810   9.013 -1.8382  1.4540  0.1988
    4CHL1   C27  293   2.607   0.744   8.952 -0.5621  0.4202 -0.3396
    4CHL1  H27A  294   2.683   0.664   8.957 -0.3436  0.6992  2.6462
    4CHL1  H27B  295   2.540   0.725   8.865 -0.9353 -1.6083  0.3506
    4CHL1  H27C  296   2.655   0.844   8.944 -0.0728  0.3177  1.0940
    5CHL1    C3  297   3.612   6.075  10.281  0.9552  0.4899  0.1303
    5CHL1    H3  298   3.561   6.171  10.256  0.5359  0.4055  0.6310
    5CHL1    O3  299   3.624   6.092  10.420 -0.2634 -0.4709 -0.2758
    5CHL1   H3'  300   3.652   6.005  10.452 -2.7750 -1.4843 -0.5902
    5CHL1    C4  301   3.532   5.946  10.248  0.0775 -0.1256  0.0844
    5CHL1   H4A  302   3.590   5.862  10.292  0.5275 -0.3821 -0.9643
    5CHL1   H4B  303   3.432   5.940  10.296 -0.3155 -1.9300 -0.8691
    5CHL1    C5  304   3.508   5.935  10.099 -0.6102  0.7413  0.5474
    5CHL1    C6  305   3.386   5.924  10.048  0.9312 -0.4968 -0.2369
    5CHL1    H6  306   3.303   5.931  10.119  1.0176 -0.2924 -0.1542
    5CHL1    C7  307   3.349   5.895   9.906 -0.1799 -0.0115 -0.3505
    5CHL1   H7A  308   3.279   5.810   9.892 -0.7337  0.1450  1.2619
    5CHL1   H7B  309   3.301   5.983   9.857 -1.9045 -0.9126 -0.3557
    5CHL1    C8  310   3.478   5.867   9.814  0.8418 -0.5558  0.7568
    5CHL1    H8  311   3.498   5.759   9.827 -1.1952 -1.1290 -0.5540
    5CHL1   C14  312   3.448   5.899   9.669 -0.3998 -0.1448 -0.0686
    5CHL1   H14  313   3.440   6.010   9.675  0.7425 -0.0683  0.4028
    5CHL1   C15  314   3.319   5.861   9.593  0.4943  0.0361 -0.1350
    5CHL1  H15A  315   3.281   5.758   9.610  0.6579  0.0140  0.0913
    5CHL1  H15B  316   3.231   5.926   9.613 -0.4113 -1.0350 -0.4958
    5CHL1   C16  317   3.355   5.863   9.445  0.1907 -0.1027 -0.0138
    5CHL1  H16A  318   3.330   5.764   9.402 -0.2354 -0.1739  0.3937
    5CHL1  H16B  319   3.295   5.940   9.392  0.2360  0.0980  0.2237
    5CHL1   C17  320   3.512   5.892   9.437  0.3536  0.7037  0.6714
    5CHL1   H17  321   3.521   6.003   9.437 -0.0956  0.7629  2.3057
    5CHL1   C13  322   3.563   5.862   9.583 -0.4028 -0.6645 -0.3499
    5CHL1   C18  323   3.597   5.711   9.587  0.0776 -0.1043 -0.1395
    5CHL1  H18A  324   3.629   5.677   9.688 -2.1171 -0.9534  0.3253
    5CHL1  H18B  325   3.516   5.650   9.542 -0.3162  0.0996  0.2819
    5CHL1  H18C  326   3.688   5.689   9.526  0.8135  2.5630 -0.1367
    5CHL1   C12  327   3.683   5.942   9.621 -0.5305 -0.0645 -0.1828
    5CHL1  H12A  328   3.770   5.920   9.555  0.0798  0.9959  0.2357
    5CHL1  H12B  329   3.671   6.050   9.600  0.9485 -0.2417 -2.2246
    5CHL1   C11  330   3.727   5.917   9.767  0.1424  0.1815 -0.0002
    5CHL1  H11A  331   3.776   5.820   9.788  0.2394  0.3755  0.6730
    5CHL1  H11B  332   3.800   5.996   9.794 -0.2723  0.5785 -0.0197
    5CHL1    C9  333   3.605   5.944   9.857  0.1102 -0.3818  0.4348
    5CHL1    H9  334   3.590   6.052   9.837  2.0897 -0.2261 -0.4726
    5CHL1   C10  335   3.643   5.931  10.011  0.2609  0.0487 -0.5072
    5CHL1   C19  336   3.710   5.793  10.040 -0.3762  0.9642 -0.4159
    5CHL1  H19A  337   3.646   5.711  10.000  0.1378 -0.5059  1.6196
    5CHL1  H19B  338   3.813   5.778  10.000  1.1206  2.1282  2.6646
    5CHL1  H19C  339   3.715   5.768  10.148  0.4365 -0.1894 -0.7006
    5CHL1    C1  340   3.736   6.039  10.056 -0.1566 -0.4245 -0.4506
    5CHL1   H1A  341   3.840   6.025  10.019  0.0609  0.9045 -0.3824
    5CHL1   H1B  342   3.697   6.132  10.011 -0.7639 -0.2915  0.3322
    5CHL1    C2  343   3.747   6.066  10.213  1.0391  0.1609  0.2523
    5CHL1   H2A  344   3.807   6.156  10.238  0.3571  1.2441 -1.7606
    5CHL1   H2B  345   3.803   5.979  10.254 -0.7682 -0.9866  0.4097
    5CHL1   C20  346   3.598   5.843   9.317  0.1001 -0.4327  0.6250
    5CHL1   H20  347   3.687   5.796   9.363  1.3156 -1.6933 -2.7701
    5CHL1   C21  348   3.637   5.966   9.235  0.4145 -0.5452 -0.2912
    5CHL1  H21A  349   3.695   5.943   9.143  1.0740  1.7868 -0.5226
    5CHL1  H21B  350   3.696   6.038   9.295 -0.7939 -0.2784  0.6252
    5CHL1  H21C  351   3.557   6.030   9.190  0.6071  1.6848  2.2655
    5CHL1   C22  352   3.536   5.724   9.234 -0.5363 -0.6518  0.8719
    5CHL1  H22A  353   3.558   5.639   9.303  0.2913 -0.8786  0.3449
    5CHL1  H22B  354   3.427   5.740   9.218 -0.1638  0.3216 -1.0242
    5CHL1   C23  355   3.597   5.702   9.097 -0.2862  0.0284  0.4307
    5CHL1  H23A  356   3.583   5.789   9.030 -1.4249 -1.4120 -1.2781
    5CHL1  H23B  357   3.702   5.668   9.107  0.0753  0.5186 -1.3023
    5CHL1   C24  358   3.528   5.584   9.023 -0.3539  0.3503 -0.4157
    5CHL1  H24A  359   3.533   5.488   9.078  0.1739 -0.3756 -1.6778
    5CHL1  H24B  360   3.420   5.605   9.013 -0.6399  1.1808  3.1140
    5CHL1   C25  361   3.589   5.548   8.886  0.3547 -0.1055 -0.3195
    5CHL1   H25  362   3.695   5.522   8.909  0.0385  0.0350  1.3735
    5CHL1   C26  363   3.515   5.427   8.818  0.1388 -0.0431 -0.3177
    5CHL1  H26A  364   3.418   5.448   8.769  0.3038  0.1121 -0.5784
    5CHL1  H26B  365   3.581   5.383   8.741  1.8227  2.4853 -0.4413
    5CHL1  H26C  366   3.507   5.355   8.902  0.6343 -1.3138 -1.3377
    5CHL1   C27  367   3.581   5.658   8.779  0.9947 -0.0956  0.1954
    5CHL1  H27A  368   3.665   5.732   8.782  0.5720  0.5642 -2.1724
    5CHL1  H27B  369   3.591   5.611   8.679  1.5493 -1.0867  0.7043
    5CHL1  H27C  370   3.489   5.721   8.782  1.3363  0.4590 -0.4559
    6CHL1    C3  371   1.797   3.888  10.433 -0.4090 -0.6202 -0.2831
    6CHL1    H3  372   1.698   3.926  10.400 -0.6258  1.1369  2.1800
    6CHL1    O3  373   1.800   3.892  10.575  0.1241  0.2036 -0.1330
    6CHL1   H3'  374   1.726   3.834  10.597 -0.9978  1.4764 -0.4661
    6CHL1    C4  375   1.796   3.740  10.389 -0.4054 -1.1516 -0.4095
    6CHL1   H4A  376   1.895   3.705  10.426 -0.9147  0.6592  3.1851
    6CHL1   H4B  377   1.724   3.678  10.447  1.0293 -3.5140 -0.9871
    6CHL1    C5  378   1.772   3.725  10.244  0.2301  0.0420  0.6609
    6CHL1    C6  379   1.679   3.636  10.191  0.1217 -0.0249  0.1270
    6CHL1    H6  380   1.614   3.572  10.251  1.0785 -2.5195 -1.3509
    6CHL1    C7  381   1.664   3.609  10.046  0.7300  0.1798  0.3200
    6CHL1   H7A  382   1.662   3.501  10.021 -0.5024 -0.0405  1.2565
    6CHL1   H7B  383   1.566   3.647  10.010 -0.6720 -3.6402 -0.2480
    6CHL1    C8  384   1.779   3.669   9.964 -0.5392  0.1728  0.0254
    6CHL1    H8  385   1.863   3.597   9.960 -0.4959  0.2598 -1.8731
    6CHL1   C14  386   1.724   3.677   9.822  0.4550  0.2854  0.1340
    6CHL1   H14  387   1.635   3.743   9.830  0.7395  0.5653  1.1702
    6CHL1   C15  388   1.675   3.541   9.765 -0.3572 -0.1792  0.2798
    6CHL1  H15A  389   1.740   3.455   9.792 -0.1555 -0.0753  0.1275
    6CHL1  H15B  390   1.570   3.530   9.801 -0.2459 -1.4578  0.2708
    6CHL1   C16  391   1.675   3.556   9.617  0.3426 -0.2885  0.4590
    6CHL1  H16A  392   1.743   3.484   9.567 -0.3847 -0.9097  0.3577
    6CHL1  H16B  393   1.577   3.537   9.569 -0.8149  2.3625  1.5348
    6CHL1   C17  394   1.721   3.707   9.590 -0.5600 -0.1039  0.4122
    6CHL1   H17  395   1.630   3.769   9.603 -1.6317 -0.8930 -2.4409
    6CHL1   C13  396   1.811   3.736   9.714 -0.5247 -0.3655 -0.1824
    6CHL1   C18  397   1.940   3.647   9.705 -1.0654 -0.3691 -0.0791
    6CHL1  H18A  398   1.932   3.554   9.644  0.1701  0.2636 -1.2713
    6CHL1  H18B  399   2.011   3.713   9.651 -1.2519  0.6894  0.9285
    6CHL1  H18C  400   1.993   3.615   9.797 -0.8696 -2.6502 -0.9192
    6CHL1   C12  401   1.838   3.881   9.760 -0.2888  0.0757 -0.0392
    6CHL1  H12A  402   1.906   3.930   9.687 -1.4933  0.2631 -1.0775
    6CHL1  H12B  403   1.746   3.943   9.752 -2.2438 -2.7503 -0.8714
    6CHL1   C11  404   1.906   3.886   9.898  0.3352  0.5117  0.0655
    6CHL1  H11A  405   2.007   3.840   9.889 -0.5133 -2.2540  2.8608
    6CHL1  H11B  406   1.922   3.992   9.927 -0.4947  0.4798  0.6602
    6CHL1    C9  407   1.820   3.806  10.013 -0.8358  0.4160  0.7137
    6CHL1    H9  408   1.736   3.880  10.014  0.3855  1.8626  0.6022
    6CHL1   C10  409   1.877   3.801  10.155  0.0869 -0.7731 -0.1952
    6CHL1   C19  410   2.007   3.712  10.152  0.0300 -0.0979  0.8876
    6CHL1  H19A  411   1.969   3.610  10.128  0.3140  0.0091 -0.0625
    6CHL1  H19B  412   2.071   3.741  10.066  2.0279  1.8745  2.8891
    6CHL1  H19C  413   2.057   3.717  10.251  0.1398 -0.9275  0.8787
    6CHL1    C1  414   1.904   3.943  10.205  0.0440 -0.6523  0.5546
    6CHL1   H1A  415   1.995   3.978  10.151 -0.4943 -0.6010 -0.3273
    6CHL1   H1B  416   1.828   4.009  10.159  3.1833  1.5127 -1.9915
    6CHL1    C2  417   1.911   3.955  10.355 -0.1727  0.6533  0.1380
    6CHL1   H2A  418   1.919   4.061  10.387  2.2679  0.8055 -0.7918
    6CHL1   H2B  419   2.009   3.913  10.386 -1.8012 -1.5076  2.7831
    6CHL1   C20  420   1.781   3.742   9.450 -0.2512 -0.2329 -0.5026
    6CHL1   H20  421   1.888   3.717   9.438  0.8939  3.0189  1.8377
    6CHL1   C21  422   1.792   3.891   9.423 -0.1847  0.3257 -0.7956
    6CHL1  H21A  423   1.692   3.939   9.421  0.2277  1.2683  0.1461
    6CHL1  H21B  424   1.852   3.911   9.331 -1.4462  1.3444 -1.4429
    6CHL1  H21C  425   1.855   3.944   9.498  1.3563  0.0227 -1.8211
    6CHL1   C22  426   1.701   3.670   9.346 -0.5267 -0.4289 -0.0285
    6CHL1  H22A  427   1.721   3.562   9.362  1.4876 -0.1664 -0.5309
    6CHL1  H22B  428   1.593   3.688   9.363 -0.5361 -1.0090  0.5593
    6CHL1   C23  429   1.719   3.711   9.203 -0.4339  0.1541 -0.8122
    6CHL1  H23A  430   1.697   3.820   9.191 -0.7957  0.0883 -0.7378
    6CHL1  H23B  431   1.825   3.688   9.180  0.4780 -0.8343  3.4638
    6CHL1   C24  432   1.635   3.623   9.113 -0.2261 -0.1237 -0.2681
    6CHL1  H24A  433   1.637   3.517   9.145 -1.8275  0.5302  2.2173
    6CHL1  H24B  434   1.526   3.634   9.130 -0.4622  1.1912 -2.2991
    6CHL1   C25  435   1.672   3.625   8.968  0.1715 -0.1418 -0.1350
    6CHL1   H25  436   1.776   3.588   8.958  0.3984  0.3891  0.1900
    6CHL1   C26  437   1.578   3.541   8.877 -0.2655  0.0841  0.0731
    6CHL1  H26A  438   1.482   3.590   8.850  0.1446 -0.0070 -1.6211
    6CHL1  H26B  439   1.631   3.515   8.783  0.3266  1.3566  0.0432
    6CHL1  H26C  440   1.553   3.446   8.929  0.6498 -0.2143 -0.0154
    6CHL1   C27  441   1.681   3.769   8.906  0.2014  0.4005  0.5967
    6CHL1  H27A  442   1.744   3.834   8.970  1.9659 -1.7782  1.1960
    6CHL1  H27B  443   1.713   3.754   8.801 -1.6632 -2.3353  0.2851
    6CHL1  H27C  444   1.578   3.809   8.902 -0.4296 -1.2096 -1.0762
    7CHL1    C3  445   3.925   1.781  10.254 -0.2059  0.0945  0.1851
    7CHL1    H3  446   3.819   1.753  10.272 -0.2176  0.9568  1.6962
    7CHL1    O3  447   3.984   1.822  10.379  0.1040 -0.1482  0.0169
    7CHL1   H3'  448   4.078   1.836  10.364 -0.0508  2.3900  0.9084
    7CHL1    C4  449   4.018   1.665  10.208 -0.1895  0.7151 -0.4728
    7CHL1   H4A  450   4.123   1.703  10.210  0.0532  0.0818 -0.9331
    7CHL1   H4B  451   4.016   1.587  10.286  1.3967 -0.0222 -1.1199
    7CHL1    C5  452   3.980   1.625  10.063  0.2067  0.3959 -0.7570
    7CHL1    C6  453   3.963   1.494  10.029  0.9209  0.2856 -0.3288
    7CHL1    H6  454   3.970   1.414  10.104 -2.1360 -0.0653 -0.2870
    7CHL1    C7  455   3.948   1.441   9.889  0.0153 -0.5777  0.1848
    7CHL1   H7A  456   4.032   1.370   9.871  1.6012  0.5185  2.7273
    7CHL1   H7B  457   3.853   1.383   9.882 -0.0599 -0.3476 -0.9422
    7CHL1    C8  458   3.967   1.549   9.781 -0.4618 -0.6929  0.1003
    7CHL1    H8  459   4.075   1.557   9.758 -0.2205 -2.3529  0.5559
    7CHL1   C14  460   3.902   1.503   9.645  0.6478  0.6248 -0.6522
    7CHL1   H14  461   3.796   1.470   9.652  0.2110  2.2805  1.1024
    7CHL1   C15  462   3.966   1.369   9.593 -0.4218  0.1110  1.1725
    7CHL1  H15A  463   4.076   1.377   9.607  0.0860 -0.0746 -1.9745
    7CHL1  H15B  464   3.936   1.274   9.641  1.2848 -0.7962  0.5390
    7CHL1   C16  465   3.945   1.371   9.445  0.3771 -0.3030  0.8935
    7CHL1  H16A  466   4.040   1.361   9.387 -0.4325  1.3790 -0.8242
    7CHL1  H16B  467   3.892   1.281   9.409  1.0673 -0.7175  0.8885
    7CHL1   C17  468   3.882   1.509   9.412  0.9652 -0.6476  0.1581
    7CHL1   H17  469   3.774   1.499   9.434  1.1822 -1.9732  0.6989
    7CHL1   C13  470   3.924   1.602   9.528  0.2047 -0.2366 -0.4277
    7CHL1   C18  471   4.071   1.632   9.505 -0.4199 -0.0167  0.1092
    7CHL1  H18A  472   4.080   1.713   9.430  0.4404  0.6793  0.9381
    7CHL1  H18B  473   4.121   1.666   9.598 -0.5606 -2.1489  1.0249
    7CHL1  H18C  474   4.131   1.547   9.464 -1.3044 -0.8959  0.5876
    7CHL1   C12  475   3.849   1.734   9.563 -0.0445 -0.6667  0.1218
    7CHL1  H12A  476   3.867   1.808   9.483  0.8626 -1.4363 -0.4132
    7CHL1  H12B  477   3.738   1.724   9.566 -0.2489  0.6849 -1.7590
    7CHL1   C11  478   3.899   1.784   9.704  0.2479 -0.4278 -0.0516
    7CHL1  H11A  479   4.002   1.816   9.679 -0.3485 -0.6029 -3.1134
    7CHL1  H11B  480   3.833   1.867   9.737 -0.5064 -0.7625 -0.6863
    7CHL1    C9  481   3.902   1.683   9.826  0.6295 -0.2278  0.6392
    7CHL1    H9  482   3.796   1.654   9.841  0.8549 -0.8462  1.0682
    7CHL1   C10  483   3.962   1.742   9.957  0.1461 -0.2841  0.8877
    7CHL1   C19  484   4.108   1.794   9.941 -0.4800  0.5342  0.5804
    7CHL1  H19A  485   4.178   1.717   9.902 -0.6508  1.4927 -1.7788
    7CHL1  H19B  486   4.110   1.883   9.875  2.8147  0.8091  0.8824
    7CHL1  H19C  487   4.150   1.827  10.039  2.2415 -1.3013  0.1619
    7CHL1    C1  488   3.870   1.859  10.019 -0.0472 -0.0767  0.4394
    7CHL1   H1A  489   3.873   1.946   9.949  2.0865 -1.1787 -0.9371
    7CHL1   H1B  490   3.768   1.815  10.013  0.8524 -2.1906  0.0231
    7CHL1    C2  491   3.920   1.899  10.157  0.6938 -0.1839 -0.4081
    7CHL1   H2A  492   3.841   1.971  10.185 -0.7168 -1.8309 -0.0204
    7CHL1   H2B  493   4.026   1.933  10.162  0.8067 -0.7197  1.7938
    7CHL1   C20  494   3.896   1.549   9.266 -0.4974 -0.3407  0.2596
    7CHL1   H20  495   4.000   1.589   9.257 -1.5489  2.2435 -1.3712
    7CHL1   C21  496   3.803   1.667   9.232  0.8973 -0.1254 -0.1228
    7CHL1  H21A  497   3.825   1.770   9.266 -2.0260  0.3590  0.5747
    7CHL1  H21B  498   3.696   1.641   9.245  0.8795  0.0530  0.0848
    7CHL1  H21C  499   3.816   1.678   9.122 -0.8528  1.9503 -0.1702
    7CHL1   C22  500   3.886   1.429   9.167 -0.1261  0.1563  0.2768
    7CHL1  H22A  501   3.906   1.459   9.062  3.2984  1.3192  1.1259
    7CHL1  H22B  502   3.970   1.360   9.192 -1.1155 -1.5269 -0.8091
    7CHL1   C23  503   3.756   1.359   9.170 -0.4926 -0.4773  0.6356
    7CHL1  H23A  504   3.775   1.256   9.133 -0.2297 -0.1879 -0.0577
    7CHL1  H23B  505   3.722   1.338   9.273 -1.3482 -0.7159  0.3164
    7CHL1   C24  506   3.640   1.407   9.075  0.9241  0.1060 -0.4879
    7CHL1  H24A  507   3.546   1.350   9.087  0.4021  1.4343  2.4982
    7CHL1  H24B  508   3.615   1.511   9.104 -0.1898 -0.0337 -0.8884
    7CHL1   C25  509   3.684   1.420   8.927  0.1499 -0.8149 -0.7364
    7CHL1   H25  510   3.759   1.502   8.923 -0.0049 -0.7006 -1.3311
    7CHL1   C26  511   3.750   1.292   8.863  0.6097 -0.5961 -0.0614
    7CHL1  H26A  512   3.780   1.311   8.758 -0.2280  0.1030 -0.1875
    7CHL1  H26B  513   3.842   1.266   8.920  0.5857 -1.6631 -0.4949
    7CHL1  H26C  514   3.683   1.203   8.863  2.2115 -1.8336 -0.2441
    7CHL1   C27  515   3.559   1.463   8.843 -0.3364 -0.2920  0.2525
    7CHL1  H27A  516   3.499   1.372   8.820 -0.0945 -0.9154  2.0063
    7CHL1  H27B  517   3.490   1.533   8.895  1.5214  2.2862 -0.5647
    7CHL1  H27C  518   3.608   1.506   8.753 -2.1694  0.9116 -0.2271
    8CHL1    C3  519   1.815   3.201  10.353  0.4382  0.2452  0.1557
    8CHL1    H3  520   1.709   3.234  10.347 -0.2300 -1.9063 -1.2426
    8CHL1    O3  521   1.841   3.187  10.493 -0.0117 -0.1957 -0.3559
    8CHL1   H3'  522   1.936   3.181  10.502 -0.0556  0.4107  0.5554
    8CHL1    C4  523   1.832   3.057  10.296 -0.1582  0.6007 -0.3880
    8CHL1   H4A  524   1.921   3.013  10.346 -2.3248 -0.9074  2.4615
    8CHL1   H4B  525   1.759   2.989  10.344 -1.7273  1.0910 -1.9736
    8CHL1    C5  526   1.826   3.057  10.138  0.7034  0.2079  0.4602
    8CHL1    C6  527   1.751   2.969  10.074 -0.8038 -0.4997 -0.4472
    8CHL1    H6  528   1.696   2.885  10.121 -0.5783 -0.0051  0.7420
    8CHL1    C7  529   1.745   2.966   9.927 -0.3748  0.5051  0.2164
    8CHL1   H7A  530   1.748   2.862   9.889 -1.9527 -0.6026  2.8487
    8CHL1   H7B  531   1.645   3.006   9.898 -0.7075 -1.7472 -2.1806
    8CHL1    C8  532   1.859   3.043   9.862  0.6497 -0.0321 -0.5201
    8CHL1    H8  533   1.939   2.972   9.894  0.3036  0.3570  1.3548
    8CHL1   C14  534   1.837   3.057   9.715  0.4129  0.0167 -0.1512
    8CHL1   H14  535   1.756   3.126   9.685  0.5495  0.0684 -0.4027
    8CHL1   C15  536   1.807   2.932   9.636  0.3705 -0.6017 -0.3731
    8CHL1  H15A  537   1.874   2.849   9.664 -0.6455 -1.2526  0.1907
    8CHL1  H15B  538   1.705   2.889   9.647 -0.2279  0.7295 -0.4419
    8CHL1   C16  539   1.846   2.963   9.489 -0.2304 -0.6819  0.2508
    8CHL1  H16A  540   1.901   2.879   9.440  0.4771 -0.4242  0.5845
    8CHL1  H16B  541   1.757   2.960   9.423  0.9792 -2.0394 -1.4076
    8CHL1   C17  542   1.930   3.091   9.490  0.2333 -0.3568 -0.0059
    8CHL1   H17  543   1.869   3.177   9.456  4.0059  2.4192 -0.5338
    8CHL1   C13  544   1.962   3.117   9.640 -0.2890  0.4194 -0.4137
    8CHL1   C18  545   2.085   3.033   9.678  0.0408  0.2074  0.3716
    8CHL1  H18A  546   2.169   3.080   9.623 -1.8357  3.2813 -0.1247
    8CHL1  H18B  547   2.099   3.039   9.788 -4.1896 -2.3057  1.2574
    8CHL1  H18C  548   2.075   2.925   9.658 -1.3130  0.6278 -1.4327
    8CHL1   C12  549   1.973   3.266   9.683  0.0149  1.3112  0.0650
    8CHL1  H12A  550   2.038   3.334   9.625 -0.3928  0.5537 -1.3410
    8CHL1  H12B  551   1.873   3.301   9.651 -1.9593 -1.0671  3.0500
    8CHL1   C11  552   1.977   3.281   9.839  0.2113  0.0057  0.6612
    8CHL1  H11A  553   2.077   3.250   9.876 -0.1108 -1.3466  0.4560
    8CHL1  H11B  554   1.952   3.387   9.861  0.1067 -0.0305  0.7173
    8CHL1    C9  555   1.870   3.185   9.921 -0.2017 -0.6255 -0.2732
    8CHL1    H9  556   1.768   3.227   9.908 -0.3311 -1.1614 -1.0718
    8CHL1   C10  557   1.900   3.167  10.065  0.7974 -0.8236  0.2228
    8CHL1   C19  558   2.050   3.132  10.095 -0.0754 -0.0875 -0.3895
    8CHL1  H19A  559   2.118   3.213  10.059 -0.4769  0.9345  1.0763
    8CHL1  H19B  560   2.070   3.106  10.201  0.1851 -1.4556 -0.7572
    8CHL1  H19C  561   2.073   3.044  10.031  0.3628  0.5887 -1.1881
    8CHL1    C1  562   1.872   3.306  10.132  0.6473  0.4154 -0.6482
    8CHL1   H1A  563   1.924   3.391  10.083 -1.3978  1.5990 -0.8727
    8CHL1   H1B  564   1.764   3.329  10.118 -0.1984 -1.6707  1.7038
    8CHL1    C2  565   1.905   3.304  10.285 -0.7870 -0.3887 -0.0978
    8CHL1   H2A  566   1.876   3.399  10.334  0.5478  0.1114 -0.2284
    8CHL1   H2B  567   2.011   3.289  10.316 -1.5029 -1.3636  2.0565
    8CHL1   C20  568   2.052   3.079   9.392 -0.1931  0.3454  0.3252
    8CHL1   H20  569   2.105   2.989   9.430 -0.7501  0.0828  0.4930
    8CHL1   C21  570   2.146   3.212   9.390  0.2138  0.1248  0.8997
    8CHL1  H21A  571   2.171   3.233   9.496 -1.1312 -2.4645  1.8224
    8CHL1  H21B  572   2.089   3.291   9.337 -0.1988 -0.2841  0.7231
    8CHL1  H21C  573   2.242   3.185   9.339 -0.5236 -1.8305  0.4417
    8CHL1   C22  574   1.998   3.044   9.240 -0.2906 -0.4447 -1.2423
    8CHL1  H22A  575   1.906   2.981   9.242 -0.0931 -0.7522 -1.6674
    8CHL1  H22B  576   1.964   3.141   9.199  0.3460  2.1077  3.5216
    8CHL1   C23  577   2.101   2.973   9.154 -0.1743  0.3676 -0.0715
    8CHL1  H23A  578   2.195   3.032   9.156 -0.0025  0.1999 -1.6667
    8CHL1  H23B  579   2.117   2.870   9.193  0.8777  0.4756 -0.1719
    8CHL1   C24  580   2.045   2.961   9.006 -1.0794  0.7498  0.4302
    8CHL1  H24A  581   1.952   2.905   8.988 -1.1676  1.5279 -1.8874
    8CHL1  H24B  582   2.037   3.065   8.968 -2.5507  0.3945 -0.2968
    8CHL1   C25  583   2.148   2.890   8.917  0.8076  0.1493 -0.3774
    8CHL1   H25  584   2.149   2.784   8.952 -0.6237 -0.1089 -1.0607
    8CHL1   C26  585   2.101   2.891   8.779  0.1149  0.0761  0.4491
    8CHL1  H26A  586   2.007   2.833   8.768  0.2127  0.0554 -0.3838
    8CHL1  H26B  587   2.079   2.996   8.748  2.4511  1.2589  2.5047
    8CHL1  H26C  588   2.178   2.846   8.713  0.6880  0.7841  0.6226
    8CHL1   C27  589   2.294   2.938   8.921 -0.0528  0.6041  0.4725
    8CHL1  H27A  590   2.350   2.867   8.856 -2.1319  0.0057 -0.7718
    8CHL1  H27B  591   2.302   3.046   8.896 -2.5839  0.9322  0.8241
    8CHL1  H27C  592   2.332   2.919   9.023  1.9939 -0.6797 -0.4567
    9CHL1    C3  593   6.493   3.781  10.511  0.0419  0.2105  0.0293
    9CHL1    H3  594   6.460   3.676  10.523  0.1309  0.3352  1.6299
    9CHL1    O3  595   6.459   3.845  10.633 -0.3316  0.1724  0.3205
    9CHL1   H3'  596   6.376   3.884  10.605  0.1392  0.1528 -1.2165
    9CHL1    C4  597   6.646   3.776  10.484  0.4249 -0.3140 -0.1483
    9CHL1   H4A  598   6.680   3.881  10.476 -1.9360  0.3538 -2.9501
    9CHL1   H4B  599   6.688   3.724  10.573 -4.0545 -0.2157  2.3180
    9CHL1    C5  600   6.672   3.699  10.352 -0.3909  0.0303 -0.4699
    9CHL1    C6  601   6.748   3.592  10.340  0.0933 -0.1549 -0.2554
    9CHL1    H6  602   6.804   3.556  10.428 -1.1053 -0.3265  0.4663
    9CHL1    C7  603   6.776   3.516  10.212 -0.5947 -0.0308 -0.9145
    9CHL1   H7A  604   6.882   3.484  10.200 -0.2725  0.0104  1.3042
    9CHL1   H7B  605   6.717   3.422  10.217 -0.0454 -0.3506 -0.0688
    9CHL1    C8  606   6.733   3.589  10.086  0.2642  0.1761  0.6008
    9CHL1    H8  607   6.816   3.662  10.076  0.9943 -0.6280  0.5838
    9CHL1   C14  608   6.729   3.490   9.963 -0.9907 -0.1360 -0.6011
    9CHL1   H14  609   6.651   3.413   9.981  0.2443 -1.5357 -1.0495
    9CHL1   C15  610   6.859   3.404   9.936  0.1573  0.3753  0.7320
    9CHL1  H15A  611   6.955   3.456   9.954 -0.7184  1.1112  3.7249
    9CHL1  H15B  612   6.875   3.318  10.005 -0.1043 -1.0396 -0.8929
    9CHL1   C16  613   6.842   3.368   9.788 -0.4160 -0.0751  0.1337
    9CHL1  H16A  614   6.941   3.392   9.743 -1.3384  1.4568 -1.1904
    9CHL1  H16B  615   6.814   3.265   9.758  2.8992 -0.5024 -2.0156
    9CHL1   C17  616   6.727   3.458   9.729  0.5678  0.4063 -0.0143
    9CHL1   H17  617   6.634   3.397   9.730 -0.7207  2.2887  1.5968
    9CHL1   C13  618   6.704   3.570   9.835  0.8006  0.9814  0.2663
    9CHL1   C18  619   6.802   3.680   9.814 -0.0527 -0.0261 -0.1378
    9CHL1  H18A  620   6.798   3.765   9.885  2.6788  0.6333 -0.6320
    9CHL1  H18B  621   6.911   3.658   9.807  0.2649  1.1670  0.7501
    9CHL1  H18C  622   6.775   3.735   9.721 -1.3113 -0.4976 -0.0666
    9CHL1   C12  623   6.560   3.631   9.843  0.2743  0.4403  0.5355
    9CHL1  H12A  624   6.547   3.685   9.746  1.5602  1.1183  0.7097
    9CHL1  H12B  625   6.493   3.543   9.852  2.4207 -1.3877 -0.3858
    9CHL1   C11  626   6.544   3.715   9.969 -0.2489 -0.4964  0.3965
    9CHL1  H11A  627   6.607   3.806   9.953 -0.2591 -0.9328 -2.5961
    9CHL1  H11B  628   6.435   3.732   9.976 -0.0405  0.7102  0.8889
    9CHL1    C9  629   6.599   3.662  10.105  0.1433  0.6735  0.3445
    9CHL1    H9  630   6.532   3.580  10.140  0.3369 -0.0481 -0.9426
    9CHL1   C10  631   6.596   3.758  10.228  0.3957  0.4344 -0.2400
    9CHL1   C19  632   6.682   3.883  10.193  0.3606 -0.0587  0.2579
    9CHL1  H19A  633   6.781   3.859  10.149 -0.3248 -0.1614 -1.2790
    9CHL1  H19B  634   6.636   3.943  10.112 -0.6630 -1.6576 -0.3736
    9CHL1  H19C  635   6.694   3.959  10.274  2.4331  1.8314 -1.6883
    9CHL1    C1  636   6.449   3.800  10.257 -0.7570 -0.2518  0.3844
    9CHL1   H1A  637   6.402   3.863  10.179 -1.1997  0.3144  1.0879
    9CHL1   H1B  638   6.386   3.708  10.260 -5.0721  2.3730  4.0893
    9CHL1    C2  639   6.425   3.860  10.395 -0.4583 -0.0952 -0.7006
    9CHL1   H2A  640   6.317   3.864  10.423 -0.4830  0.9260 -0.9074
    9CHL1   H2B  641   6.469   3.962  10.389 -2.3790  0.9513  1.4421
    9CHL1   C20  642   6.747   3.486   9.581  0.3695 -0.2433  0.0575
    9CHL1   H20  643   6.822   3.567   9.569 -2.5442  2.4180 -1.6282
    9CHL1   C21  644   6.614   3.543   9.526  0.1218  0.2567 -0.5153
    9CHL1  H21A  645   6.528   3.499   9.582 -0.5138 -2.9485 -3.6465
    9CHL1  H21B  646   6.595   3.531   9.417  0.7810  0.6674 -0.6825
    9CHL1  H21C  647   6.619   3.653   9.544  2.3928  0.0356  0.5007
    9CHL1   C22  648   6.799   3.364   9.506 -0.1092  0.5270 -0.6248
    9CHL1  H22A  649   6.891   3.324   9.554  0.3654  0.6123 -1.4280
    9CHL1  H22B  650   6.720   3.286   9.510 -0.3962  0.8919  1.9607
    9CHL1   C23  651   6.837   3.384   9.361  0.5026 -0.2872  0.4284
    9CHL1  H23A  652   6.753   3.433   9.307 -0.3308  0.1357  2.0442
    9CHL1  H23B  653   6.928   3.447   9.370  1.6974 -2.1295  1.9893
    9CHL1   C24  654   6.871   3.250   9.283  0.3181  0.6394  0.0294
    9CHL1  H24A  655   6.961   3.211   9.336 -0.2343  1.6448  1.8008
    9CHL1  H24B  656   6.794   3.171   9.297  0.5213  0.2415 -1.0476
    9CHL1   C25  657   6.928   3.262   9.137 -0.4642  0.7104 -0.1867
    9CHL1   H25  658   7.025   3.316   9.146  0.5225 -0.0939 -4.2214
    9CHL1   C26  659   6.960   3.132   9.061 -0.6630 -0.6775 -0.3812
    9CHL1  H26A  660   7.035   3.138   8.979  0.3939 -1.1734  0.5280
    9CHL1  H26B  661   6.994   3.057   9.135  0.2079  0.2212  0.1588
    9CHL1  H26C  662   6.865   3.092   9.020  0.4177 -1.9549 -1.7385
    9CHL1   C27  663   6.837   3.351   9.049  0.9736  0.3621 -0.3822
    9CHL1  H27A  664   6.880   3.375   8.950  0.9264  0.9255 -0.2711
    9CHL1  H27B  665   6.737   3.304   9.036  0.0823  1.6283  1.4742
    9CHL1  H27C  666   6.828   3.448   9.102 -0.2584  0.0415  0.0417
   10CHL1    C3  667   6.124   1.424  10.111 -0.2157  0.2089 -0.4570
   10CHL1    H3  668   6.086   1.526  10.090 -0.8338  0.0674 -0.0567
   10CHL1    O3  669   6.190   1.424  10.235  0.4247  0.2281  0.1338
   10CHL1   H3'  670   6.203   1.333  10.264  0.9108  0.6628  1.3436
   10CHL1    C4  671   6.004   1.331  10.128 -0.0860 -0.2421 -0.3099
   10CHL1   H4A  672   6.024   1.225  10.154 -0.9554 -0.1677  0.7371
   10CHL1   H4B  673   5.927   1.362  10.202  0.4634  1.4548 -0.3933
   10CHL1    C5  674   5.928   1.323   9.999  0.1867 -0.0041  0.3383
   10CHL1    C6  675   5.796   1.344   9.998 -0.7237 -0.2773  0.2172
   10CHL1    H6  676   5.735   1.354  10.089 -1.7451 -0.9169 -0.3835
   10CHL1    C7  677   5.713   1.340   9.875  0.2670 -0.2909 -0.1186
   10CHL1   H7A  678   5.620   1.287   9.905  0.6794 -0.9898 -0.0423
   10CHL1   H7B  679   5.684   1.444   9.849 -2.5120 -1.4203 -2.0047
   10CHL1    C8  680   5.785   1.272   9.759  0.4534 -0.2715  1.0862
   10CHL1    H8  681   5.792   1.162   9.771  1.0721 -0.4275 -0.5362
   10CHL1   C14  682   5.711   1.302   9.627 -0.2004  0.9838 -0.3006
   10CHL1   H14  683   5.715   1.411   9.605  1.1860  1.2579  1.1704
   10CHL1   C15  684   5.559   1.276   9.625 -0.2922 -0.0699  0.2738
   10CHL1  H15A  685   5.538   1.172   9.657 -0.5669 -0.6811 -1.7126
   10CHL1  H15B  686   5.498   1.342   9.689 -1.5933 -1.2139  0.2625
   10CHL1   C16  687   5.526   1.296   9.478  0.1320 -0.6724  0.2403
   10CHL1  H16A  688   5.449   1.220   9.450  1.1983 -1.0267 -1.9414
   10CHL1  H16B  689   5.469   1.390   9.459  1.1267 -0.2553 -0.7721
   10CHL1   C17  690   5.668   1.291   9.395  0.5361 -0.1273 -0.1984
   10CHL1   H17  691   5.695   1.398   9.378 -2.2775  0.7487  0.2910
   10CHL1   C13  692   5.772   1.239   9.499  0.4643  0.2300 -0.1983
   10CHL1   C18  693   5.768   1.087   9.511 -0.0988 -0.8582  0.0885
   10CHL1  H18A  694   5.811   1.043   9.603 -0.8719 -0.1038  0.8343
   10CHL1  H18B  695   5.665   1.050   9.492  0.1944 -0.8590 -1.6201
   10CHL1  H18C  696   5.831   1.049   9.428  1.0306  1.5934 -0.2992
   10CHL1   C12  697   5.918   1.277   9.486 -0.0472 -0.6533 -0.2560
   10CHL1  H12A  698   5.962   1.215   9.405  0.4710  0.3024 -0.7194
   10CHL1  H12B  699   5.938   1.384   9.469 -2.0000  0.2623  2.4706
   10CHL1   C11  700   5.996   1.253   9.617 -0.0476 -0.0248 -1.2353
   10CHL1  H11A  701   5.992   1.143   9.636  0.5199  0.0829 -0.3949
   10CHL1  H11B  702   6.100   1.291   9.607 -0.1551  2.2236  3.4928
   10CHL1    C9  703   5.928   1.317   9.746 -0.6063  0.3970  0.4480
   10CHL1    H9  704   5.928   1.428   9.739  0.6649  0.3447 -0.8933
   10CHL1   C10  705   6.010   1.288   9.874 -0.2475  0.6726 -0.5111
   10CHL1   C19  706   6.051   1.137   9.896  0.8289 -0.0840 -0.3299
   10CHL1  H19A  707   6.100   1.107   9.992  1.1554  1.3161 -0.0361
   10CHL1  H19B  708   5.966   1.071   9.871  0.4631  0.9278 -1.8377
   10CHL1  H19C  709   6.129   1.107   9.823  0.8109 -1.1783  0.0748
   10CHL1    C1  710   6.136   1.364   9.862  0.0678 -0.9425 -0.4099
   10CHL1   H1A  711   6.202   1.323   9.783 -0.0415 -0.0719 -0.9696
   10CHL1   H1B  712   6.108   1.470   9.842  2.4549  0.1816  1.4885
   10CHL1    C2  713   6.216   1.373   9.996  0.1101  0.8323  0.0289
   10CHL1   H2A  714   6.289   1.456   9.985  0.1803  1.0050  1.6208
   10CHL1   H2B  715   6.251   1.272  10.026 -1.4874  0.1452 -0.3116
   10CHL1   C20  716   5.667   1.237   9.252  0.5875  0.1137  0.9705
   10CHL1   H20  717   5.672   1.126   9.260 -0.2810  0.1201  1.8254
   10CHL1   C21  718   5.787   1.295   9.168  0.3905 -0.1346  0.2309
   10CHL1  H21A  719   5.887   1.279   9.213  0.8583  0.5476 -0.5313
   10CHL1  H21B  720   5.782   1.406   9.172 -0.1881 -0.0674 -1.4777
   10CHL1  H21C  721   5.786   1.254   9.065  0.1853 -2.4684  1.1009
   10CHL1   C22  722   5.541   1.283   9.180 -0.4754 -0.3779  0.6225
   10CHL1  H22A  723   5.448   1.276   9.241 -1.2247 -3.8301 -0.6638
   10CHL1  H22B  724   5.549   1.389   9.149 -1.8489 -0.3518  0.3237
   10CHL1   C23  725   5.512   1.192   9.056  0.6708  0.0194 -0.0387
   10CHL1  H23A  726   5.601   1.204   8.991  0.8375  0.8889  0.3388
   10CHL1  H23B  727   5.509   1.083   9.079  1.0837 -0.4648 -2.0880
   10CHL1   C24  728   5.396   1.244   8.970  0.2009  0.3926  0.2083
   10CHL1  H24A  729   5.301   1.206   9.013 -0.0867 -0.3049 -0.9927
   10CHL1  H24B  730   5.391   1.355   8.977  1.1549  0.4162  0.6286
   10CHL1   C25  731   5.395   1.208   8.823 -0.0197  0.2827  0.7826
   10CHL1   H25  732   5.477   1.269   8.780 -0.5618  0.3224 -0.2218
   10CHL1   C26  733   5.413   1.053   8.804 -0.2765  0.7943 -0.1718
   10CHL1  H26A  734   5.358   1.004   8.887  0.0078 -1.3968 -1.2262
   10CHL1  H26B  735   5.365   1.010   8.714  1.4380 -0.9395 -0.3254
   10CHL1  H26C  736   5.522   1.031   8.808 -0.4121  0.2944  1.2801
   10CHL1   C27  737   5.267   1.247   8.752 -0.2021 -0.4093 -0.5368
   10CHL1  H27A  738   5.269   1.213   8.646  0.2376 -0.1679 -0.6077
   10CHL1  H27B  739   5.184   1.210   8.815  1.4151 -0.0592  1.8998
   10CHL1  H27C  740   5.246   1.356   8.751 -1.7976 -0.6808 -0.7499
   11CHL1    C3  741   1.590   6.256  10.335 -0.2783  0.2683  0.0101
   11CHL1    H3  742   1.662   6.175  10.310  1.0006  1.2367  0.4405
   11CHL1    O3  743   1.556   6.259  10.477  0.8402 -0.4910  0.2648
   11CHL1   H3'  744   1.479   6.317  10.474  0.0843 -1.4710 -1.8831
   11CHL1    C4  745   1.650   6.391  10.290 -0.0274 -0.1877 -1.0585
   11CHL1   H4A  746   1.580   6.474  10.311 -0.0642 -0.0950 -1.5254
   11CHL1   H4B  747   1.743   6.396  10.351 -1.5577  2.3511  1.2716
   11CHL1    C5  748   1.678   6.404  10.148 -0.6543 -0.5835 -0.2499
   11CHL1    C6  749   1.804   6.432  10.102  0.9773 -0.5164 -0.1911
   11CHL1    H6  750   1.888   6.442  10.171  1.0806  0.5336 -0.4494
   11CHL1    C7  751   1.830   6.459   9.959 -0.3060  0.9847  0.5181
   11CHL1   H7A  752   1.901   6.542   9.937 -0.2129  0.4757 -1.3387
   11CHL1   H7B  753   1.874   6.369   9.909 -0.8173  0.3212  1.2347
   11CHL1    C8  754   1.705   6.478   9.869 -0.2789  0.1039  0.9183
   11CHL1    H8  755   1.668   6.582   9.882 -0.6996 -0.0285  0.7928
   11CHL1   C14  756   1.743   6.457   9.729  0.3222 -0.6565  0.7997
   11CHL1   H14  757   1.777   6.351   9.719  1.5552 -0.2467  0.4780
   11CHL1   C15  758   1.862   6.534   9.663  0.1956  0.2434 -0.4412
   11CHL1  H15A  759   1.860   6.643   9.680  2.4489  0.2562 -0.0218
   11CHL1  H15B  760   1.950   6.488   9.713 -1.6651 -0.9642  1.9326
   11CHL1   C16  761   1.847   6.497   9.515 -0.2145 -0.3630 -0.1257
   11CHL1  H16A  762   1.850   6.590   9.454 -2.2989  1.0172  1.7126
   11CHL1  H16B  763   1.917   6.426   9.465  0.5966  0.0398  0.4142
   11CHL1   C17  764   1.708   6.434   9.502 -0.5254 -0.2177  0.2190
   11CHL1   H17  765   1.720   6.324   9.518  0.8434 -0.1935 -0.4774
   11CHL1   C13  766   1.630   6.461   9.627 -0.2417 -0.3411  0.1216
   11CHL1   C18  767   1.566   6.605   9.636 -0.3577 -0.3733 -0.1964
   11CHL1  H18A  768   1.521   6.637   9.731 -1.1127  3.9297 -1.8101
   11CHL1  H18B  769   1.642   6.685   9.620 -0.2447 -0.2462  0.9500
   11CHL1  H18C  770   1.485   6.609   9.560  0.1863 -1.8797 -0.9004
   11CHL1   C12  771   1.524   6.353   9.660 -0.4131 -0.0525 -0.0637
   11CHL1  H12A  772   1.438   6.371   9.592 -1.2512 -0.0379  0.9635
   11CHL1  H12B  773   1.571   6.253   9.652  1.0814  0.4805  1.4326
   11CHL1   C11  774   1.475   6.376   9.809 -0.2745  0.3809  0.2415
   11CHL1  H11A  775   1.407   6.464   9.808  1.1136  1.5745 -2.9898
   11CHL1  H11B  776   1.410   6.292   9.845  0.4410 -0.5044 -0.4785
   11CHL1    C9  777   1.596   6.381   9.910  0.1926  0.1749  0.6146
   11CHL1    H9  778   1.647   6.283   9.899  0.3779  0.1642  1.5191
   11CHL1   C10  779   1.550   6.388  10.057 -0.8998 -0.3033  0.7483
   11CHL1   C19  780   1.444   6.498  10.082  0.4405 -0.7695  0.6733
   11CHL1  H19A  781   1.474   6.602  10.059  1.5887 -0.8457  1.7179
   11CHL1  H19B  782   1.353   6.491  10.018  1.2670 -0.6241 -0.5618
   11CHL1  H19C  783   1.407   6.496  10.186  3.5855 -2.5041  1.9125
   11CHL1    C1  784   1.490   6.248  10.092 -0.2746 -1.4550  0.0784
   11CHL1   H1A  785   1.391   6.257  10.042 -0.1354  0.5439  0.0896
   11CHL1   H1B  786   1.557   6.175  10.041  1.1764  0.7752 -1.4321
   11CHL1    C2  787   1.467   6.221  10.247 -0.7183 -0.1634  0.6595
   11CHL1   H2A  788   1.441   6.113  10.249 -3.4508  0.3995 -0.0292
   11CHL1   H2B  789   1.378   6.279  10.279 -1.3367  1.1426 -2.9071
   11CHL1   C20  790   1.624   6.457   9.380  0.0575 -0.2067  0.3059
   11CHL1   H20  791   1.515   6.457   9.402 -0.3594 -0.0409 -1.6130
   11CHL1   C21  792   1.619   6.333   9.286 -0.1334 -0.1374 -0.9056
   11CHL1  H21A  793   1.710   6.325   9.222 -0.8352 -1.2430 -1.7880
   11CHL1  H21B  794   1.528   6.341   9.223  0.0751 -0.0680 -1.1987
   11CHL1  H21C  795   1.614   6.233   9.334  0.0559 -0.0303 -0.6575
   11CHL1   C22  796   1.650   6.592   9.299 -0.3240  0.3180 -0.4279
   11CHL1  H22A  797   1.662   6.676   9.370 -0.2292 -0.3119  0.3197
   11CHL1  H22B  798   1.738   6.573   9.235 -1.9904 -2.0382 -2.2102
   11CHL1   C23  799   1.556   6.649   9.192 -0.7527  0.5149 -1.0361
   11CHL1  H23A  800   1.520   6.560   9.135 -1.5782  0.0930  0.0961
   11CHL1  H23B  801   1.466   6.688   9.245 -1.1023 -0.7602 -0.6616
   11CHL1   C24  802   1.618   6.750   9.101  0.3143  0.4549  0.6687
   11CHL1  H24A  803   1.654   6.836   9.161  1.5468  0.0806  0.4976
   11CHL1  H24B  804   1.701   6.704   9.042 -1.8105 -1.5067 -0.9825
   11CHL1   C25  805   1.510   6.804   9.003 -0.4076 -0.1138  0.2395
   11CHL1   H25  806   1.407   6.801   9.046  0.1284  2.4344  1.8791
   11CHL1   C26  807   1.526   6.962   8.976 -0.2577 -0.3311  0.5083
   11CHL1  H26A  808   1.625   6.969   8.926 -0.8618  0.4276 -0.6381
   11CHL1  H26B  809   1.444   7.002   8.913 -1.9260  1.1438  3.4527
   11CHL1  H26C  810   1.523   7.003   9.079  3.2212 -2.1572  1.4982
   11CHL1   C27  811   1.510   6.728   8.866  0.2724  0.6429 -0.3529
   11CHL1  H27A  812   1.610   6.740   8.821  1.7414 -2.5070  1.7527
   11CHL1  H27B  813   1.499   6.619   8.884  2.8548  0.6056  1.4719
   11CHL1  H27C  814   1.431   6.781   8.807  1.2432  1.5719 -0.8454
   12CHL1    C3  815   3.665   0.954  10.374  0.5682  0.0430  1.5558
   12CHL1    H3  816   3.775   0.948  10.360  0.2685 -0.2608 -1.4198
   12CHL1    O3  817   3.625   0.974  10.504 -0.0536  0.6609 -0.6174
   12CHL1   H3'  818   3.533   0.996  10.494 -1.0225 -1.7032  1.8196
   12CHL1    C4  819   3.630   1.079  10.282  0.3651 -0.9419  0.0192
   12CHL1   H4A  820   3.524   1.107  10.303 -0.2154 -1.8261 -1.5193
   12CHL1   H4B  821   3.702   1.155  10.317 -2.1827 -0.1405  4.1206
   12CHL1    C5  822   3.637   1.061  10.129  0.4935 -0.1746  0.3100
   12CHL1    C6  823   3.695   1.152  10.048 -0.1269  1.2625 -0.2765
   12CHL1    H6  824   3.741   1.244  10.086  1.4157  0.3367  0.1929
   12CHL1    C7  825   3.703   1.138   9.895  0.3293  0.1538  0.2128
   12CHL1   H7A  826   3.658   1.226   9.844  1.1680  1.2010  1.2280
   12CHL1   H7B  827   3.808   1.124   9.863  0.7225 -3.5174  2.4870
   12CHL1    C8  828   3.619   1.021   9.842  0.0481  0.6212  0.0852
   12CHL1    H8  829   3.511   1.048   9.840 -0.2261 -0.3170  1.0130
   12CHL1   C14  830   3.670   0.978   9.703 -0.4249 -0.1339 -0.2662
   12CHL1   H14  831   3.773   0.937   9.715 -0.3519  0.3841  1.0570
   12CHL1   C15  832   3.694   1.090   9.600  1.0678 -0.3551 -0.0176
   12CHL1  H15A  833   3.609   1.161   9.601  0.6995 -0.7506  1.7524
   12CHL1  H15B  834   3.792   1.141   9.615  0.5995  0.8687 -0.9644
   12CHL1   C16  835   3.681   1.015   9.462  0.0112  0.0738  0.2449
   12CHL1  H16A  836   3.599   1.058   9.401  0.7448  0.3377 -0.5574
   12CHL1  H16B  837   3.775   1.010   9.404 -0.1093  1.7534 -0.1268
   12CHL1   C17  838   3.645   0.865   9.488  0.5152 -0.1899 -0.3599
   12CHL1   H17  839   3.739   0.806   9.497 -0.9053 -2.6603 -0.9276
   12CHL1   C13  840   3.584   0.868   9.632 -0.1150  0.6563 -0.5648
   12CHL1   C18  841   3.439   0.923   9.610  0.2799 -0.0166  0.5283
   12CHL1  H18A  842   3.392   0.933   9.710  1.8381  1.8111  1.1316
   12CHL1  H18B  843   3.442   1.027   9.572  0.0489 -1.0501 -2.6835
   12CHL1  H18C  844   3.370   0.860   9.548 -0.0044 -2.0203  2.7376
   12CHL1   C12  845   3.594   0.746   9.719  0.3477 -0.0515  0.5317
   12CHL1  H12A  846   3.517   0.674   9.686 -2.1006  1.9864  1.4710
   12CHL1  H12B  847   3.691   0.693   9.707 -0.5904 -1.3035 -2.6531
   12CHL1   C11  848   3.563   0.773   9.867  0.7546 -0.6047 -0.0834
   12CHL1  H11A  849   3.453   0.793   9.866  0.6173 -1.2587 -1.9332
   12CHL1  H11B  850   3.569   0.680   9.927  2.2546 -0.0130  0.7156
   12CHL1    C9  851   3.626   0.899   9.936  0.1795  0.2390  0.5407
   12CHL1    H9  852   3.734   0.874   9.927  0.9478  3.2627  0.2822
   12CHL1   C10  853   3.584   0.923  10.080 -0.2112 -0.5679 -0.3129
   12CHL1   C19  854   3.430   0.936  10.089 -0.2806 -0.1228 -0.0754
   12CHL1  H19A  855   3.385   0.835  10.077 -0.0150 -0.2603  0.0762
   12CHL1  H19B  856   3.385   0.979  10.180  0.6588  1.3403 -0.2722
   12CHL1  H19C  857   3.394   1.006  10.012 -1.5166 -0.0116  0.5898
   12CHL1    C1  858   3.622   0.800  10.176 -0.5325 -0.2935 -0.0226
   12CHL1   H1A  859   3.562   0.721  10.125 -1.5643 -0.4312  1.3531
   12CHL1   H1B  860   3.732   0.790  10.167 -0.4251  0.5585  0.3012
   12CHL1    C2  861   3.600   0.826  10.325  0.2220  0.0633  0.0805
   12CHL1   H2A  862   3.631   0.743  10.392  1.4220  0.7302  0.3843
   12CHL1   H2B  863   3.490   0.834  10.337 -0.0938 -2.0414 -0.9913
   12CHL1   C20  864   3.574   0.803   9.376 -0.1196  0.6184 -0.5995
   12CHL1   H20  865   3.480   0.862   9.369  0.3591  1.3195 -1.3364
   12CHL1   C21  866   3.541   0.659   9.408  0.4796  0.4496 -0.1144
   12CHL1  H21A  867   3.488   0.601   9.329 -2.1165  2.5136 -0.0246
   12CHL1  H21B  868   3.466   0.670   9.490 -0.7979  1.5892 -1.3875
   12CHL1  H21C  869   3.631   0.599   9.433 -1.0036 -2.0417 -0.4558
   12CHL1   C22  870   3.649   0.806   9.239  0.0632 -0.4068 -0.2123
   12CHL1  H22A  871   3.681   0.911   9.227  1.8035 -0.5259  2.4712
   12CHL1  H22B  872   3.737   0.742   9.261  0.7513  0.0015 -1.6851
   12CHL1   C23  873   3.581   0.750   9.120  0.7271 -0.1081  0.8694
   12CHL1  H23A  874   3.577   0.640   9.132  1.6977 -0.1654  0.7388
   12CHL1  H23B  875   3.475   0.784   9.120  0.2090 -1.6381  1.1587
   12CHL1   C24  876   3.635   0.784   8.979  0.0847  0.2508 -0.6680
   12CHL1  H24A  877   3.606   0.889   8.959 -2.2618 -0.3336 -0.6681
   12CHL1  H24B  878   3.745   0.774   8.966 -0.1458  0.2479 -3.1667
   12CHL1   C25  879   3.572   0.706   8.859 -0.0957  0.1533 -0.0193
   12CHL1   H25  880   3.460   0.706   8.858 -0.1149  2.0924 -0.3152
   12CHL1   C26  881   3.591   0.784   8.721  0.1307  0.3348 -0.2359
   12CHL1  H26A  882   3.528   0.731   8.647  1.3103  1.1915 -1.9295
   12CHL1  H26B  883   3.559   0.888   8.746  1.4073 -0.2054  4.5192
   12CHL1  H26C  884   3.695   0.775   8.682 -0.2339 -0.0812 -1.1329
   12CHL1   C27  885   3.623   0.560   8.839  0.7104 -0.7129 -0.8173
   12CHL1  H27A  886   3.570   0.481   8.897 -1.9606  1.9063  0.5884
   12CHL1  H27B  887   3.633   0.533   8.732  3.2537  0.8395 -1.0624
   12CHL1  H27C  888   3.728   0.556   8.875 -0.4551  2.4166  3.9174
   13CHL1    C3  889   4.121   2.989   9.904 -0.3008  0.1982  0.2907
   13CHL1    H3  890   4.223   3.015   9.869 -0.2501 -0.7666 -0.3146
   13CHL1    O3  891   4.110   2.981  10.044  0.3886  0.1447  0.0100
   13CHL1   H3'  892   4.021   3.006  10.069  0.5958  0.4098  0.5023
   13CHL1    C4  893   4.036   3.097   9.846  0.3529  0.0585  0.4703
   13CHL1   H4A  894   3.936   3.072   9.886 -0.2730  0.8808 -0.5267
   13CHL1   H4B  895   4.065   3.192   9.895  0.2319  0.1864  0.2965
   13CHL1    C5  896   4.034   3.117   9.693  0.1921  0.8617 -0.5289
   13CHL1    C6  897   4.074   3.228   9.635 -0.0273  0.1936 -0.1726
   13CHL1    H6  898   4.094   3.314   9.700  0.0416 -0.4472  0.6684
   13CHL1    C7  899   4.091   3.240   9.482 -0.4661 -0.0978  0.2859
   13CHL1   H7A  900   4.054   3.335   9.437  1.0711  0.1328 -0.5397
   13CHL1   H7B  901   4.201   3.230   9.467 -0.6264  1.4220 -2.6501
   13CHL1    C8  902   4.025   3.119   9.413  0.5416  0.4665  0.1861
   13CHL1    H8  903   3.918   3.149   9.407  0.3542 -0.0916  0.6216
   13CHL1   C14  904   4.077   3.109   9.269  0.1254 -0.4362 -0.0370
   13CHL1   H14  905   4.182   3.077   9.287  0.0128  0.3968  2.4776
   13CHL1   C15  906   4.080   3.234   9.177 -0.4331 -0.0647 -0.0411
   13CHL1  H15A  907   3.994   3.302   9.193 -0.0031  0.8818 -1.5386
   13CHL1  H15B  908   4.165   3.294   9.216  1.9302 -2.7214 -0.7431
   13CHL1   C16  909   4.082   3.186   9.035  0.1540 -0.6406  0.2585
   13CHL1  H16A  910   3.986   3.225   8.994  1.3290 -0.7730 -2.8469
   13CHL1  H16B  911   4.175   3.220   8.986  1.1732 -1.2677  1.6725
   13CHL1   C17  912   4.079   3.030   9.046  0.4340  0.5908 -0.5502
   13CHL1   H17  913   4.187   3.003   9.054 -0.1031 -1.3062  0.9127
   13CHL1   C13  914   4.019   2.991   9.187 -0.0152 -0.7797 -0.2087
   13CHL1   C18  915   3.864   3.015   9.171 -0.2723 -0.0329 -0.1865
   13CHL1  H18A  916   3.807   2.937   9.116 -2.1712 -1.5306  3.5169
   13CHL1  H18B  917   3.816   3.014   9.271  1.1240  2.1031  0.5760
   13CHL1  H18C  918   3.842   3.107   9.114  3.6384 -0.0769 -2.0639
   13CHL1   C12  919   4.059   2.863   9.251 -0.1254  0.9500  0.8363
   13CHL1  H12A  920   4.026   2.775   9.191 -0.1392  0.9747  0.8085
   13CHL1  H12B  921   4.169   2.864   9.266 -0.1047  1.0455  0.6791
   13CHL1   C11  922   4.006   2.862   9.397  0.4895  0.1474  0.2071
   13CHL1  H11A  923   3.896   2.873   9.391  0.2463 -2.4643 -2.7492
   13CHL1  H11B  924   4.040   2.769   9.446  2.7560  0.2865 -0.9571
   13CHL1    C9  925   4.047   2.988   9.480 -0.3003  0.2968 -0.3339
   13CHL1    H9  926   4.158   2.994   9.489 -0.4184 -0.3153  1.9560
   13CHL1   C10  927   4.001   2.984   9.630 -0.2916 -0.1089 -0.8980
   13CHL1   C19  928   3.849   2.960   9.632 -0.2804 -0.0289 -0.0197
   13CHL1  H19A  929   3.820   2.858   9.597  1.3262  0.0069 -1.5395
   13CHL1  H19B  930   3.815   2.965   9.738  1.0373  0.5764  0.3940
   13CHL1  H19C  931   3.804   3.038   9.568  1.5240  0.5309 -0.6348
   13CHL1    C1  932   4.070   2.857   9.696  0.7013 -0.3244  0.1758
   13CHL1   H1A  933   4.049   2.764   9.640 -0.0402  1.3002 -2.3948
   13CHL1   H1B  934   4.175   2.882   9.669  0.2984  2.1104  0.6273
   13CHL1    C2  935   4.069   2.856   9.843  0.7479  0.8539 -0.3922
   13CHL1   H2A  936   4.127   2.770   9.883 -2.1106 -0.7054  0.7310
   13CHL1   H2B  937   3.964   2.850   9.878  1.1936  1.2528  1.0849
   13CHL1   C20  938   4.033   2.963   8.918 -0.0244 -0.4076 -0.6835
   13CHL1   H20  939   3.928   2.988   8.891 -0.2160  2.1178  1.8618
   13CHL1   C21  940   4.038   2.806   8.940  0.1590 -0.5263  0.8209
   13CHL1  H21A  941   4.130   2.767   8.988 -0.3978 -3.4326 -0.2645
   13CHL1  H21B  942   4.019   2.757   8.842  1.0559  2.2547 -0.8713
   13CHL1  H21C  943   3.948   2.786   9.002 -0.3002  1.6925  0.9684
   13CHL1   C22  944   4.103   3.002   8.785 -0.1581 -0.8350 -0.4621
   13CHL1  H22A  945   4.041   2.956   8.705  0.4867 -0.8838 -0.9429
   13CHL1  H22B  946   4.107   3.112   8.771  1.5660 -0.3776  2.6242
   13CHL1   C23  947   4.248   2.944   8.762 -0.1432 -0.3280 -0.3769
   13CHL1  H23A  948   4.301   2.972   8.856 -0.9599 -0.4259  0.1238
   13CHL1  H23B  949   4.258   2.834   8.770  1.8727 -0.0807  1.2399
   13CHL1   C24  950   4.312   3.029   8.650 -0.3131  0.2326 -0.5760
   13CHL1  H24A  951   4.245   3.030   8.562 -0.3541 -2.8706 -0.6923
   13CHL1  H24B  952   4.316   3.130   8.696  1.2319  0.9486 -2.2034
   13CHL1   C25  953   4.449   2.976   8.605 -0.0670 -0.7850  0.3275
   13CHL1   H25  954   4.435   2.887   8.539  2.2721 -1.1169  0.2048
   13CHL1   C26  955   4.512   3.077   8.513 -0.5665 -0.2210 -0.5557
   13CHL1  H26A  956   4.547   3.166   8.570 -0.4924 -0.0835 -0.8155
   13CHL1  H26B  957   4.603   3.041   8.463  0.5950  2.7172 -0.7586
   13CHL1  H26C  958   4.442   3.106   8.432 -0.3587  1.6802 -0.1109
   13CHL1   C27  959   4.544   2.934   8.716 -0.1652  0.4725  0.5832
   13CHL1  H27A  960   4.640   2.915   8.663 -0.7032 -0.6486 -0.0389
   13CHL1  H27B  961   4.556   3.015   8.791 -0.5890  0.7113  0.3984
   13CHL1  H27C  962   4.505   2.845   8.770  0.4760  0.5217  1.1376
   14CHL1    C3  963   3.232   6.333  10.327 -0.3316 -0.1021 -0.4355
   14CHL1    H3  964   3.294   6.242  10.320 -0.6679 -0.3239 -0.5622
   14CHL1    O3  965   3.197   6.358  10.465  0.3237 -0.5054  0.1612
   14CHL1   H3'  966   3.105   6.332  10.470 -0.1936  1.3412  1.5079
   14CHL1    C4  967   3.308   6.453  10.265 -0.2294  0.3052 -0.1398
   14CHL1   H4A  968   3.244   6.541  10.285  0.3785  0.7058  0.0465
   14CHL1   H4B  969   3.402   6.470  10.322  0.0127 -1.1383 -0.0595
   14CHL1    C5  970   3.333   6.419  10.121  0.0572 -0.1765  0.3722
   14CHL1    C6  971   3.459   6.413  10.070 -0.1584 -0.1979 -0.2055
   14CHL1    H6  972   3.540   6.430  10.143  1.1259  0.8726 -1.8329
   14CHL1    C7  973   3.501   6.387   9.924  0.5688  0.4075 -0.0701
   14CHL1   H7A  974   3.591   6.444   9.891 -1.3797  2.5637 -2.0075
   14CHL1   H7B  975   3.517   6.277   9.911 -1.7532  0.2596 -2.7451
   14CHL1    C8  976   3.384   6.415   9.830  0.3865 -0.4843  0.1209
   14CHL1    H8  977   3.377   6.526   9.828  1.0461 -0.4365  0.0434
   14CHL1   C14  978   3.413   6.354   9.692  0.6575 -0.1270 -0.0607
   14CHL1   H14  979   3.393   6.246   9.704 -1.7644 -0.0017 -2.0942
   14CHL1   C15  980   3.550   6.380   9.629 -0.2490 -0.2122 -0.3192
   14CHL1  H15A  981   3.579   6.487   9.639  0.5295 -0.2740 -1.6707
   14CHL1  H15B  982   3.629   6.317   9.675 -0.7336 -0.4272  0.2334
   14CHL1   C16  983   3.522   6.349   9.481  0.4350  0.2385 -0.0438
   14CHL1  H16A  984   3.560   6.432   9.417 -1.5725 -0.4182 -2.2480
   14CHL1  H16B  985   3.576   6.253   9.466  3.7408  1.6948  1.3574
   14CHL1   C17  986   3.369   6.329   9.463  0.2401  0.0637 -0.2340
   14CHL1   H17  987   3.347   6.221   9.475 -1.6630  0.5756  1.2209
   14CHL1   C13  988   3.304   6.386   9.590 -0.6796  0.6491 -0.9191
   14CHL1   C18  989   3.306   6.539   9.568  0.3982  0.4276 -0.2398
   14CHL1  H18A  990   3.288   6.595   9.662 -0.7862 -0.4471  0.0790
   14CHL1  H18B  991   3.405   6.579   9.537  0.7714  0.4482  0.9526
   14CHL1  H18C  992   3.228   6.562   9.491  0.1554  1.6124  0.3481
   14CHL1   C12  993   3.178   6.326   9.641  0.1637  0.4786  1.0294
   14CHL1  H12A  994   3.096   6.346   9.569  0.7754  0.8453  0.4194
   14CHL1  H12B  995   3.189   6.216   9.653 -2.5317  0.2405  1.8778
   14CHL1   C11  996   3.132   6.385   9.779 -0.6273  0.1323  0.4832
   14CHL1  H11A  997   3.104   6.492   9.772 -1.2130 -0.0202  0.4233
   14CHL1  H11B  998   3.049   6.319   9.813  1.1360 -2.1544  0.5605
   14CHL1    C9  999   3.251   6.359   9.879 -0.0251  0.0287  0.5985
   14CHL1    H9 1000   3.263   6.249   9.885 -2.2516 -0.4615 -1.7618
   14CHL1   C10 1001   3.209   6.402  10.030 -1.3676 -0.5896 -0.1090
   14CHL1   C19 1002   3.138   6.538  10.019 -0.2161  0.1985 -0.8038
   14CHL1  H19A 1003   3.140   6.581  10.121 -0.0993  0.6383 -0.9867
   14CHL1  H19B 1004   3.185   6.608   9.946  0.7125  0.0813 -0.3237
   14CHL1  H19C 1005   3.035   6.521   9.979  0.2411 -2.6527 -0.9689
   14CHL1    C1 1006   3.131   6.292  10.093  0.1996 -0.1821 -0.0465
   14CHL1   H1A 1007   3.033   6.276  10.043 -0.4795  0.1551  1.1382
   14CHL1   H1B 1008   3.188   6.198  10.081  0.8544  0.0254  1.3367
   14CHL1    C2 1009   3.107   6.310  10.250  0.5290 -0.6217  0.4399
   14CHL1   H2A 1010   3.054   6.222  10.291 -2.9249  0.8389 -0.5234
   14CHL1   H2B 1011   3.041   6.399  10.261 -1.0351 -1.9394  2.2697
   14CHL1   C20 1012   3.301   6.353   9.324 -0.0463  0.6680 -0.3303
   14CHL1   H20 1013   3.191   6.362   9.337 -0.0195 -0.9954  1.4857
   14CHL1   C21 1014   3.316   6.213   9.252 -0.0925 -0.3368  0.4123
   14CHL1  H21A 1015   3.427   6.203   9.247 -0.3585 -4.8242 -2.0056
   14CHL1  H21B 1016   3.274   6.209   9.149 -2.8635 -1.1948  1.4727
   14CHL1  H21C 1017   3.256   6.138   9.308 -3.1446  0.5514 -1.4094
   14CHL1   C22 1018   3.361   6.468   9.236  0.1328  0.2468 -0.3474
   14CHL1  H22A 1019   3.340   6.563   9.288  0.2674  0.9201 -1.4722
   14CHL1  H22B 1020   3.469   6.446   9.223  0.8083  2.8239  0.3755
   14CHL1   C23 1021   3.294   6.495   9.099  0.0624  0.3163  0.3899
   14CHL1  H23A 1022   3.352   6.564   9.034 -0.6615  2.1152  1.5831
   14CHL1  H23B 1023   3.297   6.400   9.040  0.7805  0.9927 -0.6986
   14CHL1   C24 1024   3.147   6.543   9.112 -0.3805  0.1859 -0.2195
   14CHL1  H24A 1025   3.093   6.551   9.015  1.5418 -1.9822 -1.5721
   14CHL1  H24B 1026   3.100   6.458   9.165  1.5881 -0.9394 -0.1875
   14CHL1   C25 1027   3.121   6.668   9.197  0.6182  0.2742 -0.0793
   14CHL1   H25 1028   3.149   6.633   9.299  1.9148  0.2996 -0.4076
   14CHL1   C26 1029   3.214   6.777   9.156 -0.1181  0.0645 -0.2584
   14CHL1  H26A 1030   3.216   6.870   9.217  0.8405  0.2273 -0.5294
   14CHL1  H26B 1031   3.318   6.740   9.152  0.1725 -0.0467  3.8285
   14CHL1  H26C 1032   3.205   6.813   9.051 -1.1030  0.9697  0.1231
   14CHL1   C27 1033   2.970   6.706   9.193  0.2567  0.1461  0.0540
   14CHL1  H27A 1034   2.932   6.752   9.099 -0.6961 -0.9896 -0.1458
   14CHL1  H27B 1035   2.892   6.629   9.213  0.1914 -0.5636 -2.5358
   14CHL1  H27C 1036   2.952   6.787   9.267 -0.5091 -0.3609  0.4360
   15CHL1    C3 1037   3.245   5.447  10.254  0.3446  0.4353  0.2619
   15CHL1    H3 1038   3.142   5.490  10.252  0.2044  0.3000 -3.8751
   15CHL1    O3 1039   3.319   5.440  10.374 -0.3453  0.3931 -0.3334
   15CHL1   H3' 1040   3.410   5.435  10.345 -1.1397 -0.3129 -3.0334
   15CHL1    C4 1041   3.241   5.299  10.193  0.5218 -0.5738 -0.5304
   15CHL1   H4A 1042   3.348   5.274  10.180  0.7346  0.9802 -2.1134
   15CHL1   H4B 1043   3.192   5.229  10.264  0.6005  0.0561  0.1483
   15CHL1    C5 1044   3.189   5.290  10.053 -0.4396 -0.9232 -0.1482
   15CHL1    C6 1045   3.081   5.218  10.024  0.2304  0.5971 -0.0480
   15CHL1    H6 1046   3.030   5.158  10.102  1.6805 -0.5713  0.0465
   15CHL1    C7 1047   3.019   5.216   9.888 -0.5469 -0.3714 -1.1136
   15CHL1   H7A 1048   2.986   5.116   9.854  0.2015 -0.7571 -0.7373
   15CHL1   H7B 1049   2.945   5.298   9.877  0.1595  0.8379  1.9504
   15CHL1    C8 1050   3.116   5.260   9.777 -0.2788 -0.4196 -0.9065
   15CHL1    H8 1051   3.202   5.190   9.778  0.8895  0.9774 -0.1100
   15CHL1   C14 1052   3.055   5.268   9.635  0.7227 -0.4318 -0.0470
   15CHL1   H14 1053   2.961   5.328   9.644  1.2422  0.6034 -1.2097
   15CHL1   C15 1054   2.993   5.131   9.575  0.5369 -0.1413 -0.5394
   15CHL1  H15A 1055   3.068   5.049   9.573  1.2771  0.4096  1.6094
   15CHL1  H15B 1056   2.912   5.076   9.626 -0.6281  1.6907 -0.3344
   15CHL1   C16 1057   2.973   5.165   9.433 -0.1364  0.1356  0.4399
   15CHL1  H16A 1058   3.015   5.084   9.370  0.1550 -0.7481  1.7274
   15CHL1  H16B 1059   2.865   5.179   9.414 -0.3595  0.2801  1.7013
   15CHL1   C17 1060   3.048   5.298   9.402  0.1168  0.0591 -0.2002
   15CHL1   H17 1061   2.972   5.378   9.396  0.2849  0.1223 -2.7153
   15CHL1   C13 1062   3.136   5.331   9.527  0.3938  0.6351  0.5230
   15CHL1   C18 1063   3.271   5.266   9.508 -0.7946 -0.0038  0.7455
   15CHL1  H18A 1064   3.341   5.329   9.449 -0.0491 -2.1021 -0.7351
   15CHL1  H18B 1065   3.326   5.233   9.599  0.5847 -1.6456 -0.5841
   15CHL1  H18C 1066   3.265   5.172   9.449 -0.7757  2.6636 -3.9482
   15CHL1   C12 1067   3.159   5.478   9.569  0.0316 -0.4709  0.1211
   15CHL1  H12A 1068   3.232   5.540   9.514  1.4514  0.6292  3.0070
   15CHL1  H12B 1069   3.066   5.538   9.579  0.3746  0.3690 -1.4420
   15CHL1   C11 1070   3.242   5.479   9.707 -0.3423  0.5900  0.3404
   15CHL1  H11A 1071   3.334   5.421   9.683 -0.8358  0.4653 -1.4246
   15CHL1  H11B 1072   3.276   5.576   9.749  0.7707  1.2685 -1.9569
   15CHL1    C9 1073   3.173   5.396   9.819 -0.7236  0.6436 -0.3585
   15CHL1    H9 1074   3.083   5.460   9.835 -0.8863  0.5195 -0.7755
   15CHL1   C10 1075   3.257   5.388   9.955  0.2097 -0.5530 -0.2772
   15CHL1   C19 1076   3.402   5.340   9.928  0.2856  0.6864  0.3761
   15CHL1  H19A 1077   3.397   5.241   9.877  0.0264  0.3746  0.9938
   15CHL1  H19B 1078   3.463   5.403   9.861 -1.5049  0.5157 -1.5205
   15CHL1  H19C 1079   3.465   5.318  10.016  1.6060  0.8466 -0.5088
   15CHL1    C1 1080   3.264   5.527  10.026 -0.1045 -0.6796  0.3678
   15CHL1   H1A 1081   3.325   5.594   9.961  0.9111 -0.2227  1.7569
   15CHL1   H1B 1082   3.160   5.564  10.027 -1.1906 -3.3072 -1.9912
   15CHL1    C2 1083   3.335   5.531  10.160 -0.1511 -0.0333  0.2668
   15CHL1   H2A 1084   3.331   5.633  10.204 -0.0464 -0.2911  0.8936
   15CHL1   H2B 1085   3.441   5.498  10.154  0.4170  1.3411  2.0328
   15CHL1   C20 1086   3.113   5.292   9.264 -0.7724 -0.5733 -0.4474
   15CHL1   H20 1087   3.191   5.214   9.258  0.7271  0.4531  3.2868
   15CHL1   C21 1088   3.185   5.432   9.235 -0.0117 -0.4133 -0.8085
   15CHL1  H21A 1089   3.120   5.521   9.253 -1.2539 -1.5488  0.5656
   15CHL1  H21B 1090   3.225   5.421   9.133 -0.7739  1.1803 -1.3161
   15CHL1  H21C 1091   3.266   5.447   9.310 -1.1330 -0.4459  0.4604
   15CHL1   C22 1092   3.007   5.261   9.157  0.1980 -0.6783 -0.0338
   15CHL1  H22A 1093   2.972   5.157   9.174 -2.2193  0.1427  0.3978
   15CHL1  H22B 1094   2.920   5.330   9.158  1.5919  1.1593 -0.5244
   15CHL1   C23 1095   3.052   5.283   9.012  0.8175 -0.1158 -0.1192
   15CHL1  H23A 1096   3.055   5.392   8.992 -1.0806 -0.0375 -0.2084
   15CHL1  H23B 1097   3.147   5.226   9.003  0.9764 -0.2772  2.0667
   15CHL1   C24 1098   2.946   5.226   8.914  0.5687 -0.3506 -0.6094
   15CHL1  H24A 1099   2.982   5.199   8.812  0.6091 -1.2532 -0.3611
   15CHL1  H24B 1100   2.921   5.125   8.952 -0.3058 -0.9052 -2.5519
   15CHL1   C25 1101   2.818   5.313   8.903 -0.1699  0.5865  0.4841
   15CHL1   H25 1102   2.820   5.384   8.989 -1.8849  1.0620  0.1561
   15CHL1   C26 1103   2.828   5.411   8.788  0.9925 -0.2538  0.3498
   15CHL1  H26A 1104   2.844   5.364   8.688  2.1350 -0.2530  0.5121
   15CHL1  H26B 1105   2.737   5.472   8.774  0.0094 -1.1477  2.4783
   15CHL1  H26C 1106   2.920   5.472   8.805  1.7920 -0.8816 -1.4022
   15CHL1   C27 1107   2.693   5.230   8.900  0.2822  0.3439  0.6139
   15CHL1  H27A 1108   2.686   5.179   8.998 -1.1723  2.2309  1.5488
   15CHL1  H27B 1109   2.607   5.300   8.910 -2.1738 -2.0391 -1.9033
   15CHL1  H27C 1110   2.689   5.173   8.805  1.8327  0.3122  0.5358
   16CHL1    C3 1111   6.140   5.105  10.448 -0.5562 -0.4632 -0.1674
   16CHL1    H3 1112   6.108   5.210  10.433 -0.5739 -0.3698  0.5211
   16CHL1    O3 1113   6.129   5.068  10.587 -0.4593 -0.0004 -0.4833
   16CHL1   H3' 1114   6.181   4.987  10.586 -0.2318  0.1460 -0.7087
   16CHL1    C4 1115   6.049   5.009  10.365 -0.1570  0.0959  0.2585
   16CHL1   H4A 1116   6.073   4.905  10.395 -1.8607 -0.3929  0.0121
   16CHL1   H4B 1117   5.944   5.028  10.395 -1.2784  0.1957 -3.2923
   16CHL1    C5 1118   6.067   5.033  10.214 -0.3511  0.3419 -0.7447
   16CHL1    C6 1119   5.961   5.063  10.136  0.0151  0.1385  0.3143
   16CHL1    H6 1120   5.859   5.060  10.176  0.7152 -3.7060  2.2883
   16CHL1    C7 1121   5.977   5.105   9.998 -0.0546  0.3290  0.0426
   16CHL1   H7A 1122   5.907   5.048   9.934  3.1599 -2.2238 -1.4727
   16CHL1   H7B 1123   5.937   5.208   9.986 -2.3979 -0.6813 -1.7942
   16CHL1    C8 1124   6.112   5.088   9.925  0.1800  0.4395  0.3033
   16CHL1    H8 1125   6.130   4.983   9.891  1.5463 -0.1702  2.7066
   16CHL1   C14 1126   6.118   5.178   9.806  0.1329  1.0577  0.8193
   16CHL1   H14 1127   6.136   5.278   9.851  0.6840  3.0239 -3.2573
   16CHL1   C15 1128   5.997   5.184   9.707 -0.0273  0.4378 -0.1089
   16CHL1  H15A 1129   5.951   5.084   9.691  0.9236  0.0555 -0.5149
   16CHL1  H15B 1130   5.923   5.262   9.735 -1.6953 -0.7166 -1.1059
   16CHL1   C16 1131   6.066   5.237   9.573  0.2059 -0.7713 -0.5599
   16CHL1  H16A 1132   6.058   5.155   9.498  0.4505 -0.6311 -0.7387
   16CHL1  H16B 1133   6.026   5.337   9.544  2.8022  0.2638 -0.7889
   16CHL1   C17 1134   6.217   5.253   9.611 -0.5112  0.3872 -0.9497
   16CHL1   H17 1135   6.219   5.351   9.664  1.0767 -0.3764  0.4739
   16CHL1   C13 1136   6.248   5.155   9.723  0.2068  0.3194  0.3199
   16CHL1   C18 1137   6.251   5.015   9.660 -0.2165  0.3222  0.0016
   16CHL1  H18A 1138   6.158   4.973   9.614  0.2425 -1.3844  0.5663
   16CHL1  H18B 1139   6.326   5.007   9.578  0.6769  3.3211  0.4220
   16CHL1  H18C 1140   6.290   4.941   9.733  2.1029  1.7165  0.2585
   16CHL1   C12 1141   6.365   5.187   9.816  0.8600  0.6283  0.7952
   16CHL1  H12A 1142   6.452   5.149   9.758 -2.0105 -3.4844 -1.2925
   16CHL1  H12B 1143   6.359   5.296   9.838 -2.0498  0.3551  1.8414
   16CHL1   C11 1144   6.366   5.116   9.950  0.0396  0.6936  0.0518
   16CHL1  H11A 1145   6.381   5.008   9.928 -0.9601  1.0165 -2.5766
   16CHL1  H11B 1146   6.453   5.157  10.006  0.0677  0.1923  0.3827
   16CHL1    C9 1147   6.226   5.124  10.025  0.1051  0.7213 -0.0095
   16CHL1    H9 1148   6.209   5.230  10.051  3.0190  0.6868  2.5829
   16CHL1   C10 1149   6.216   5.043  10.159 -0.0954  0.2855 -0.5367
   16CHL1   C19 1150   6.260   4.900  10.143  0.2141 -0.0005 -0.4770
   16CHL1  H19A 1151   6.232   4.833  10.227  0.2256  1.3571  0.6496
   16CHL1  H19B 1152   6.216   4.853  10.052 -1.3808 -0.1502  0.3430
   16CHL1  H19C 1153   6.369   4.904  10.123  0.0128 -1.1975 -1.9963
   16CHL1    C1 1154   6.301   5.121  10.259  0.0197  0.0664  0.1588
   16CHL1   H1A 1155   6.407   5.101  10.230  0.0387 -1.4534  1.1792
   16CHL1   H1B 1156   6.294   5.232  10.251  1.8242  0.2616  0.7873
   16CHL1    C2 1157   6.279   5.087  10.407 -0.2677 -0.7142 -0.3283
   16CHL1   H2A 1158   6.345   5.141  10.477 -1.6598 -1.7713  1.9052
   16CHL1   H2B 1159   6.304   4.978  10.406 -0.6183 -0.7960 -0.6531
   16CHL1   C20 1160   6.316   5.266   9.500 -0.2289  0.7471  0.3868
   16CHL1   H20 1161   6.363   5.173   9.461  0.2010  1.9092 -2.0995
   16CHL1   C21 1162   6.442   5.355   9.533 -0.7849 -0.1891  0.1525
   16CHL1  H21A 1163   6.484   5.322   9.630 -1.3565 -2.4704 -0.3067
   16CHL1  H21B 1164   6.399   5.452   9.567 -0.9461 -0.1418 -0.1808
   16CHL1  H21C 1165   6.518   5.366   9.452 -0.5952 -1.1887  0.1842
   16CHL1   C22 1166   6.246   5.317   9.368 -0.2157  0.5416 -0.1621
   16CHL1  H22A 1167   6.167   5.244   9.338 -0.0987  0.2589  0.2028
   16CHL1  H22B 1168   6.199   5.416   9.388 -0.7475 -0.3885  4.2591
   16CHL1   C23 1169   6.344   5.317   9.250  0.1324 -0.3091 -0.1584
   16CHL1  H23A 1170   6.416   5.400   9.267  0.3007 -0.7355  1.3586
   16CHL1  H23B 1171   6.397   5.220   9.254  0.4290 -0.1589 -0.4404
   16CHL1   C24 1172   6.270   5.336   9.120  0.2966  0.0394  0.4291
   16CHL1  H24A 1173   6.178   5.275   9.107 -0.0055  0.2841  1.3850
   16CHL1  H24B 1174   6.240   5.441   9.097 -0.5262 -0.5838 -1.5381
   16CHL1   C25 1175   6.357   5.296   9.000 -0.1669  0.0468 -0.0451
   16CHL1   H25 1176   6.458   5.342   9.011 -1.1595  1.8577  2.0388
   16CHL1   C26 1177   6.370   5.139   9.006 -1.0833  0.6113 -0.1842
   16CHL1  H26A 1178   6.450   5.100   9.072  1.5999  2.4413 -2.1260
   16CHL1  H26B 1179   6.270   5.110   9.045 -0.4437  1.6926  2.4657
   16CHL1  H26C 1180   6.386   5.101   8.902  1.8371  1.9735 -0.3430
   16CHL1   C27 1181   6.283   5.353   8.877 -0.3538 -0.4641 -0.0082
   16CHL1  H27A 1182   6.289   5.464   8.886 -0.2362 -0.4462 -0.2841
   16CHL1  H27B 1183   6.342   5.325   8.787  0.7149 -0.6768  0.7334
   16CHL1  H27C 1184   6.175   5.326   8.879 -0.7369  0.9733 -0.1690
   17CHL1    C3 1185   0.432   2.266  10.418  0.3437  0.5199 -0.5659
   17CHL1    H3 1186   0.322   2.249  10.412  0.4205  0.1066 -0.8042
   17CHL1    O3 1187   0.476   2.266  10.552 -0.4813 -0.3383  0.3633
   17CHL1   H3' 1188   0.456   2.347  10.600 -0.0393 -0.0251  0.0314
   17CHL1    C4 1189   0.497   2.148  10.342  0.4987 -0.3848 -0.7733
   17CHL1   H4A 1190   0.605   2.174  10.339  0.2524  0.9419  0.5725
   17CHL1   H4B 1191   0.479   2.057  10.404 -0.8906 -0.9669 -1.9841
   17CHL1    C5 1192   0.444   2.144  10.197  0.2196 -0.6336 -0.1491
   17CHL1    C6 1193   0.384   2.040  10.142 -0.1388 -0.0022  0.1021
   17CHL1    H6 1194   0.387   1.946  10.199  1.3491  1.5575  2.8310
   17CHL1    C7 1195   0.329   2.038  10.004  0.2733 -0.0786 -0.0202
   17CHL1   H7A 1196   0.355   1.938   9.961  1.5145  0.6297 -1.0200
   17CHL1   H7B 1197   0.218   2.041  10.003  0.2875  1.9030 -1.0580
   17CHL1    C8 1198   0.378   2.154   9.919  0.2565 -0.1354  0.9865
   17CHL1    H8 1199   0.477   2.127   9.876  0.5550  0.3473  1.3621
   17CHL1   C14 1200   0.289   2.163   9.790  0.8004  0.0403 -0.8591
   17CHL1   H14 1201   0.188   2.194   9.822  1.1318  1.7575 -1.3812
   17CHL1   C15 1202   0.264   2.038   9.699  0.2572 -0.2827  0.2281
   17CHL1  H15A 1203   0.359   1.982   9.693 -0.9892 -2.4898  0.0933
   17CHL1  H15B 1204   0.206   1.969   9.763  1.1106 -0.1777  1.1363
   17CHL1   C16 1205   0.204   2.094   9.572  0.5776  0.4964 -0.2945
   17CHL1  H16A 1206   0.250   2.046   9.483  2.2199  2.8809 -0.8348
   17CHL1  H16B 1207   0.095   2.081   9.588  0.4216  3.1540  1.2931
   17CHL1   C17 1208   0.232   2.246   9.573 -0.7368 -0.0575 -0.0189
   17CHL1   H17 1209   0.130   2.280   9.604 -1.1435 -0.5358 -0.8059
   17CHL1   C13 1210   0.335   2.278   9.691 -0.0457 -0.0805  1.4480
   17CHL1   C18 1211   0.487   2.264   9.640  0.1150  0.2852 -0.0506
   17CHL1  H18A 1212   0.553   2.246   9.728  1.9381  0.1247 -1.4103
   17CHL1  H18B 1213   0.491   2.185   9.563  0.8595  0.9405 -0.6942
   17CHL1  H18C 1214   0.532   2.352   9.589  0.3227 -0.2333 -0.7734
   17CHL1   C12 1215   0.309   2.411   9.764  0.1733  0.0152  0.1163
   17CHL1  H12A 1216   0.341   2.501   9.708 -1.6228  1.6652  1.5935
   17CHL1  H12B 1217   0.201   2.422   9.787 -0.3907 -1.4545 -1.6061
   17CHL1   C11 1218   0.394   2.407   9.899 -0.0484 -0.1704  0.2227
   17CHL1  H11A 1219   0.502   2.417   9.873  0.0693 -1.3136  0.2093
   17CHL1  H11B 1220   0.348   2.494   9.950 -1.6871 -0.3688 -0.8546
   17CHL1    C9 1221   0.369   2.285   9.990  0.0020  0.5097  0.2029
   17CHL1    H9 1222   0.262   2.294  10.018 -0.5840  0.2485 -1.7530
   17CHL1   C10 1223   0.448   2.283  10.121 -1.0687  0.6587 -0.4261
   17CHL1   C19 1224   0.599   2.309  10.081  0.7470  0.3242  0.3254
   17CHL1  H19A 1225   0.620   2.235  10.001 -2.3478 -2.9676  2.2506
   17CHL1  H19B 1226   0.613   2.412  10.041 -1.8475  0.8899  0.6870
   17CHL1  H19C 1227   0.661   2.288  10.171 -0.4710  1.1734  1.4031
   17CHL1    C1 1228   0.398   2.394  10.211 -0.4072 -0.2989 -0.1526
   17CHL1   H1A 1229   0.427   2.492  10.168 -1.6167  0.9931  1.8452
   17CHL1   H1B 1230   0.289   2.381  10.225 -0.1842 -2.9218 -0.3011
   17CHL1    C2 1231   0.465   2.398  10.352  0.2075  0.7186  0.0318
   17CHL1   H2A 1232   0.414   2.483  10.402 -0.1366  1.2065 -1.1073
   17CHL1   H2B 1233   0.574   2.423  10.346  0.6203 -0.2795  2.4406
   17CHL1   C20 1234   0.265   2.301   9.441  0.2781 -0.2348 -0.0998
   17CHL1   H20 1235   0.354   2.249   9.401  0.2835 -0.7205  0.5282
   17CHL1   C21 1236   0.286   2.453   9.447  0.3242  0.2660 -0.2203
   17CHL1  H21A 1237   0.189   2.499   9.477 -0.4283 -1.6295  0.3827
   17CHL1  H21B 1238   0.309   2.495   9.346 -0.1480  1.2072  0.0472
   17CHL1  H21C 1239   0.359   2.490   9.522 -0.7175  0.7798  0.5684
   17CHL1   C22 1240   0.150   2.282   9.336 -0.5871  0.3131 -0.6436
   17CHL1  H22A 1241   0.065   2.237   9.392 -1.0265  2.3347  0.3965
   17CHL1  H22B 1242   0.114   2.377   9.293  0.7590  1.6590  1.0614
   17CHL1   C23 1243   0.186   2.193   9.214 -0.3835  0.2032  0.0612
   17CHL1  H23A 1244   0.277   2.238   9.167 -1.2205  1.3157 -0.5446
   17CHL1  H23B 1245   0.200   2.086   9.238  0.0895  0.0331 -0.8976
   17CHL1   C24 1246   0.070   2.203   9.114  0.8697  0.3291  0.1031
   17CHL1  H24A 1247  -0.023   2.194   9.175  1.7011 -2.7598  1.1286
   17CHL1  H24B 1248   0.072   2.303   9.066  0.4155  0.7359  0.9100
   17CHL1   C25 1249   0.054   2.102   9.007 -0.3679 -0.0917 -0.2177
   17CHL1   H25 1250   0.154   2.086   8.963 -0.3767 -0.0737 -0.2449
   17CHL1   C26 1251   0.010   1.961   9.057  0.3162  0.1638 -0.0543
   17CHL1  H26A 1252  -0.075   1.979   9.127 -0.1633  2.3916 -1.1157
   17CHL1  H26B 1253  -0.022   1.886   8.980  0.6047 -1.9617  1.7839
   17CHL1  H26C 1254   0.094   1.922   9.118  0.4067  1.1990  0.4910
   17CHL1   C27 1255  -0.049   2.160   8.903  0.1730  0.3185 -0.7879
   17CHL1  H27A 1256  -0.075   2.097   8.815 -0.9916  2.4006 -2.0124
   17CHL1  H27B 1257  -0.140   2.194   8.958  2.5683 -0.1003  4.0197
   17CHL1  H27C 1258   0.005   2.241   8.851  1.0540 -1.0020 -2.0185
   18CHL1    C3 1259   5.369   1.199  10.268 -0.8207  0.2722  0.8187
   18CHL1    H3 1260   5.407   1.300  10.239 -1.6752 -0.0551 -1.6937
   18CHL1    O3 1261   5.407   1.165  10.397 -0.8078  0.1319  0.0057
   18CHL1   H3' 1262   5.333   1.109  10.421 -0.6997  0.0578  0.1753
   18CHL1    C4 1263   5.218   1.204  10.262 -0.5036  0.2704 -0.6611
   18CHL1   H4A 1264   5.188   1.104  10.300  2.5541 -0.5673 -0.1836
   18CHL1   H4B 1265   5.188   1.274  10.343 -0.7727 -1.6761  1.0030
   18CHL1    C5 1266   5.160   1.227  10.125 -0.2089 -0.2136 -0.4216
   18CHL1    C6 1267   5.083   1.340  10.104 -0.2787 -0.5818  0.1304
   18CHL1    H6 1268   5.056   1.410  10.184 -0.1387  0.2845 -0.5616
   18CHL1    C7 1269   5.025   1.386   9.970  0.0030 -0.1117 -0.6245
   18CHL1   H7A 1270   4.916   1.406   9.970 -0.0391 -0.3445 -0.6915
   18CHL1   H7B 1271   5.087   1.467   9.925  1.1961 -0.8133 -0.2890
   18CHL1    C8 1272   5.044   1.270   9.863 -0.1874  0.3725  0.2080
   18CHL1    H8 1273   4.963   1.196   9.880 -0.1241  0.2090 -0.2045
   18CHL1   C14 1274   5.035   1.336   9.727  0.1209 -0.5524  0.0696
   18CHL1   H14 1275   5.120   1.408   9.724 -0.5955  0.2625 -0.8967
   18CHL1   C15 1276   4.907   1.416   9.704  0.1914 -0.2945 -0.1670
   18CHL1  H15A 1277   4.820   1.350   9.726  2.1102 -2.8559  0.2894
   18CHL1  H15B 1278   4.884   1.510   9.758 -0.8578 -0.0464 -1.0200
   18CHL1   C16 1279   4.904   1.436   9.551 -0.5873 -0.6100 -0.7672
   18CHL1  H16A 1280   4.806   1.408   9.507 -0.1021 -2.6784 -0.6029
   18CHL1  H16B 1281   4.928   1.544   9.536  0.4323 -0.0693  3.4274
   18CHL1   C17 1282   5.020   1.343   9.492  0.4368  0.6029  0.7457
   18CHL1   H17 1283   5.110   1.409   9.487 -0.3111  1.6530  0.7518
   18CHL1   C13 1284   5.054   1.249   9.602 -1.2216  0.5174 -0.4986
   18CHL1   C18 1285   4.962   1.128   9.599  0.3178  0.1647 -0.3555
   18CHL1  H18A 1286   4.991   1.061   9.515  1.9642  0.2338  0.1440
   18CHL1  H18B 1287   4.964   1.071   9.694  3.5438 -0.4398 -0.6994
   18CHL1  H18C 1288   4.858   1.164   9.582 -0.5836 -2.5157 -0.9710
   18CHL1   C12 1289   5.195   1.191   9.612  0.2710 -0.7156 -0.0126
   18CHL1  H12A 1290   5.241   1.139   9.525 -1.6026 -0.7900 -0.9945
   18CHL1  H12B 1291   5.268   1.275   9.619 -1.2119  0.6143 -0.0801
   18CHL1   C11 1292   5.217   1.116   9.741 -0.6475 -1.0680 -0.1119
   18CHL1  H11A 1293   5.157   1.022   9.732 -0.3198 -1.1088 -2.7282
   18CHL1  H11B 1294   5.321   1.078   9.735 -0.2428  0.0017 -0.1080
   18CHL1    C9 1295   5.184   1.203   9.868  0.3609 -0.6822 -0.1147
   18CHL1    H9 1296   5.246   1.295   9.857 -0.7696  0.2048  0.6617
   18CHL1   C10 1297   5.216   1.140  10.008  0.6194 -0.3367 -0.3684
   18CHL1   C19 1298   5.149   1.009  10.015  0.2061 -0.2240  0.1091
   18CHL1  H19A 1299   5.188   0.943   9.934  1.6269  3.1604 -2.1907
   18CHL1  H19B 1300   5.165   0.964  10.115 -1.4857  1.4793  1.1924
   18CHL1  H19C 1301   5.040   1.013   9.998 -0.0512 -0.9720  1.4765
   18CHL1    C1 1302   5.374   1.128  10.036  0.5947 -0.0152 -0.6844
   18CHL1   H1A 1303   5.408   1.063   9.953 -1.1957  0.3262 -1.7496
   18CHL1   H1B 1304   5.418   1.227  10.010 -1.0372  1.7444  2.5870
   18CHL1    C2 1305   5.420   1.089  10.177 -0.1982 -0.4980  0.2319
   18CHL1   H2A 1306   5.527   1.064  10.192 -0.2550  0.5790  2.7719
   18CHL1   H2B 1307   5.374   0.991  10.204  0.3226 -1.2597 -1.5003
   18CHL1   C20 1308   4.990   1.293   9.347 -0.7425  0.2518 -0.3416
   18CHL1   H20 1309   4.909   1.218   9.360 -1.5327  1.2922  0.9536
   18CHL1   C21 1310   5.121   1.227   9.285 -0.1916  0.2836 -0.2196
   18CHL1  H21A 1311   5.116   1.197   9.178  0.1118  1.2593 -0.5235
   18CHL1  H21B 1312   5.167   1.146   9.346 -3.4572  1.0430  3.6553
   18CHL1  H21C 1313   5.203   1.302   9.286 -0.7952  1.0496 -2.1453
   18CHL1   C22 1314   4.951   1.404   9.244 -0.0844  0.6180  0.3222
   18CHL1  H22A 1315   4.891   1.484   9.293  0.1471  3.4330 -3.5365
   18CHL1  H22B 1316   5.045   1.458   9.217 -0.0148  0.5428  0.4111
   18CHL1   C23 1317   4.871   1.352   9.130 -0.4161  0.0054 -0.0037
   18CHL1  H23A 1318   4.920   1.264   9.083  0.0601  0.4188 -0.2929
   18CHL1  H23B 1319   4.769   1.325   9.165 -0.7044  1.5163  0.4133
   18CHL1   C24 1320   4.858   1.453   9.017  0.0101  0.5404 -0.0551
   18CHL1  H24A 1321   4.810   1.545   9.056 -1.6938 -1.0728  1.8796
   18CHL1  H24B 1322   4.964   1.479   8.995  0.0740  0.6504  0.3798
   18CHL1   C25 1323   4.785   1.389   8.898  0.1372 -0.8221 -0.3326
   18CHL1   H25 1324   4.698   1.330   8.934 -1.1483 -0.2239 -2.2974
   18CHL1   C26 1325   4.734   1.506   8.803  0.2718  0.3707 -0.1883
   18CHL1  H26A 1326   4.809   1.571   8.752 -0.1547 -0.1639 -1.5206
   18CHL1  H26B 1327   4.681   1.455   8.720  0.8010  0.1568 -0.4023
   18CHL1  H26C 1328   4.658   1.566   8.858 -1.6925  0.9283 -3.2441
   18CHL1   C27 1329   4.878   1.298   8.818 -0.5670 -0.4346 -0.0748
   18CHL1  H27A 1330   4.968   1.359   8.793 -0.6509  0.7518  2.3159
   18CHL1  H27B 1331   4.914   1.209   8.874  1.0126 -0.1578 -0.5977
   18CHL1  H27C 1332   4.838   1.270   8.718 -1.1677 -0.5058  0.1842
   19CHL1    C3 1333   2.648   4.840  10.107 -0.3047  0.2679  0.0074
   19CHL1    H3 1334   2.689   4.753  10.051 -1.8490 -3.0489  3.5592
   19CHL1    O3 1335   2.711   4.845  10.235 -0.0683  0.0566  0.3842
   19CHL1   H3' 1336   2.795   4.892  10.232  0.2831 -0.2725  2.7776
   19CHL1    C4 1337   2.679   4.971  10.032  0.6701  0.2367  0.0049
   19CHL1   H4A 1338   2.635   5.057  10.087  3.5993  1.0291  1.3128
   19CHL1   H4B 1339   2.789   4.987  10.039  0.5780  0.5198  0.9972
   19CHL1    C5 1340   2.623   4.957   9.890  0.5780 -0.0041 -0.4091
   19CHL1    C6 1341   2.702   4.972   9.786  0.8447  0.9768 -0.0325
   19CHL1    H6 1342   2.805   5.000   9.810  0.7897  0.1889  1.2050
   19CHL1    C7 1343   2.657   4.960   9.645 -0.1276 -0.2206  0.2894
   19CHL1   H7A 1344   2.706   5.052   9.606  1.1451 -0.6726  0.7771
   19CHL1   H7B 1345   2.710   4.872   9.602  1.6890 -0.4085  2.7232
   19CHL1    C8 1346   2.506   4.952   9.627 -0.2355  0.0718  0.0127
   19CHL1    H8 1347   2.465   5.055   9.636 -1.7241 -0.3505 -1.5030
   19CHL1   C14 1348   2.461   4.915   9.489  0.2049 -0.2109  0.0043
   19CHL1   H14 1349   2.495   4.809   9.480  2.9333  0.5222  0.7115
   19CHL1   C15 1350   2.522   4.979   9.364  0.3008 -0.4252  0.1526
   19CHL1  H15A 1351   2.507   5.089   9.370  2.7253  0.0405 -0.7601
   19CHL1  H15B 1352   2.632   4.970   9.349  0.5718  1.3088  0.8555
   19CHL1   C16 1353   2.435   4.917   9.251  0.9404 -0.5628 -0.6195
   19CHL1  H16A 1354   2.410   4.996   9.176 -0.0543  1.4657  1.6938
   19CHL1  H16B 1355   2.499   4.838   9.208 -0.4115 -1.3660 -1.2145
   19CHL1   C17 1356   2.307   4.865   9.322  0.5550 -0.2675  0.4180
   19CHL1   H17 1357   2.319   4.756   9.304 -1.1485 -0.2348 -1.2425
   19CHL1   C13 1358   2.305   4.912   9.468  0.1527  0.1617  0.5677
   19CHL1   C18 1359   2.248   5.055   9.470  0.0779 -0.2278 -0.1583
   19CHL1  H18A 1360   2.290   5.115   9.553  1.1984  0.8559 -1.4634
   19CHL1  H18B 1361   2.268   5.118   9.381 -1.1104  0.3984  0.0039
   19CHL1  H18C 1362   2.138   5.049   9.479  0.1359 -2.7037 -0.3043
   19CHL1   C12 1363   2.234   4.826   9.569 -0.1995 -0.1953 -0.9015
   19CHL1  H12A 1364   2.125   4.845   9.561 -0.4328 -0.7772  0.5572
   19CHL1  H12B 1365   2.260   4.723   9.538  0.5923  0.4719 -2.5414
   19CHL1   C11 1366   2.286   4.853   9.712 -0.3023  0.1142  0.0095
   19CHL1  H11A 1367   2.228   4.942   9.745  0.0956  1.3252 -2.3721
   19CHL1  H11B 1368   2.255   4.764   9.771  0.0756 -0.3864 -0.5439
   19CHL1    C9 1369   2.438   4.876   9.733  0.0590  0.5930 -0.9422
   19CHL1    H9 1370   2.488   4.778   9.718  0.9847  0.4364  2.3212
   19CHL1   C10 1371   2.472   4.918   9.883 -0.2554 -0.5374 -0.1468
   19CHL1   C19 1372   2.400   5.055   9.918  0.5869 -0.4754 -0.0308
   19CHL1  H19A 1373   2.292   5.032   9.909  0.5623 -0.5662  0.4529
   19CHL1  H19B 1374   2.422   5.084  10.023 -1.6797  2.0323 -0.1534
   19CHL1  H19C 1375   2.422   5.133   9.843 -2.6656  0.2750 -0.3319
   19CHL1    C1 1376   2.446   4.798   9.977  0.3645 -0.6656 -0.3777
   19CHL1   H1A 1377   2.341   4.762   9.984  0.0818  0.1893  0.0043
   19CHL1   H1B 1378   2.488   4.710   9.924  0.5601 -0.8740  0.1191
   19CHL1    C2 1379   2.499   4.809  10.117 -0.1604  0.6274 -0.4902
   19CHL1   H2A 1380   2.480   4.722  10.184  1.9834  1.7918  1.7875
   19CHL1   H2B 1381   2.453   4.894  10.172  1.7042  0.5543  1.3162
   19CHL1   C20 1382   2.174   4.882   9.234  0.2048 -0.0816 -0.5770
   19CHL1   H20 1383   2.153   4.989   9.213 -1.0418 -0.4006 -1.0452
   19CHL1   C21 1384   2.058   4.831   9.312  0.5140  0.0803 -0.6353
   19CHL1  H21A 1385   1.970   4.816   9.246 -1.4134 -0.4914  1.8941
   19CHL1  H21B 1386   2.016   4.902   9.386 -1.3191  1.8526 -3.2151
   19CHL1  H21C 1387   2.072   4.736   9.368 -0.3093  0.0478 -0.4702
   19CHL1   C22 1388   2.196   4.821   9.096  0.2534  0.0908 -0.3710
   19CHL1  H22A 1389   2.289   4.862   9.050  1.1452 -0.0617  1.2180
   19CHL1  H22B 1390   2.201   4.712   9.116  1.2827  0.7483  4.1377
   19CHL1   C23 1391   2.089   4.856   8.991 -0.2134  0.2376 -0.4822
   19CHL1  H23A 1392   1.993   4.850   9.047 -0.9441 -0.2240 -1.7651
   19CHL1  H23B 1393   2.102   4.963   8.962 -0.2206 -0.4904 -3.3976
   19CHL1   C24 1394   2.083   4.764   8.876  0.0352  0.2276 -0.3114
   19CHL1  H24A 1395   2.178   4.776   8.819  0.3849  2.0219  0.5844
   19CHL1  H24B 1396   2.072   4.659   8.908 -1.1027  0.6053  0.5971
   19CHL1   C25 1397   1.981   4.784   8.761 -0.5340  0.9590  0.4190
   19CHL1   H25 1398   2.000   4.883   8.715  1.3557  1.8298  2.8652
   19CHL1   C26 1399   1.998   4.666   8.659 -0.1505  0.4287  0.3607
   19CHL1  H26A 1400   1.988   4.568   8.710  2.4232  0.4934  1.1282
   19CHL1  H26B 1401   1.916   4.653   8.586 -0.1885 -1.0519  0.6472
   19CHL1  H26C 1402   2.098   4.668   8.611 -0.4417 -3.3886 -0.7327
   19CHL1   C27 1403   1.836   4.777   8.822 -0.1721  0.4048 -0.2231
   19CHL1  H27A 1404   1.793   4.878   8.830  0.5069  1.3288 -5.2666
   19CHL1  H27B 1405   1.773   4.713   8.758  1.8684 -0.7147 -1.2147
   19CHL1  H27C 1406   1.843   4.743   8.928  0.2613 -2.0837 -0.9730
   20CHL1    C3 1407   0.220   4.808  10.320 -0.0795  1.5092 -0.0920
   20CHL1    H3 1408   0.218   4.920  10.320  2.7423  1.6232  1.3756
   20CHL1    O3 1409   0.260   4.748  10.442 -0.6661  0.2613  0.1583
   20CHL1   H3' 1410   0.353   4.772  10.446 -0.1119 -1.7087 -0.0202
   20CHL1    C4 1411   0.086   4.744  10.277  0.1870 -0.5032 -0.7567
   20CHL1   H4A 1412   0.102   4.635  10.292  1.1716 -0.2891 -0.1558
   20CHL1   H4B 1413   0.005   4.777  10.345  1.2712 -1.6954  1.2038
   20CHL1    C5 1414   0.047   4.767  10.128  0.1070 -0.3532 -0.5637
   20CHL1    C6 1415  -0.073   4.820  10.094 -1.0128 -0.3650 -0.7452
   20CHL1    H6 1416  -0.140   4.866  10.169  1.8097 -0.7158  2.2285
   20CHL1    C7 1417  -0.122   4.834   9.956  0.3803  0.2444  0.4296
   20CHL1   H7A 1418  -0.226   4.794   9.953  1.9461 -4.5161  0.9941
   20CHL1   H7B 1419  -0.124   4.945   9.948 -2.9134  0.5478  3.1801
   20CHL1    C8 1420  -0.041   4.757   9.849 -0.8793  0.2453 -0.5265
   20CHL1    H8 1421  -0.071   4.654   9.877 -0.1597  0.8635  3.0951
   20CHL1   C14 1422  -0.066   4.798   9.711  0.1134  0.2948  0.8007
   20CHL1   H14 1423  -0.035   4.901   9.686 -2.7950  0.9190 -0.6141
   20CHL1   C15 1424  -0.211   4.782   9.660 -0.0048  0.2966  0.7661
   20CHL1  H15A 1425  -0.259   4.697   9.714  0.3332 -0.8118 -0.6202
   20CHL1  H15B 1426  -0.272   4.874   9.673  0.9331  1.1134 -0.3709
   20CHL1   C16 1427  -0.202   4.760   9.509  0.5014 -0.4289  0.1410
   20CHL1  H16A 1428  -0.253   4.665   9.484  0.4751 -0.5712  0.7110
   20CHL1  H16B 1429  -0.260   4.830   9.445  0.9581 -1.7055 -1.7303
   20CHL1   C17 1430  -0.056   4.765   9.475  0.2317  1.0269 -0.0205
   20CHL1   H17 1431  -0.026   4.870   9.452  0.2773  1.0973  0.3552
   20CHL1   C13 1432   0.011   4.714   9.606  0.2275  0.2048  0.4108
   20CHL1   C18 1433  -0.018   4.562   9.610 -0.2886  0.3599  0.1600
   20CHL1  H18A 1434   0.043   4.513   9.531 -0.2430 -1.2110  1.1257
   20CHL1  H18B 1435   0.009   4.516   9.708 -1.9512  1.2285  1.0743
   20CHL1  H18C 1436  -0.127   4.545   9.597  0.2895 -3.0365 -1.2512
   20CHL1   C12 1437   0.159   4.747   9.621  0.0966  0.4824 -0.0917
   20CHL1  H12A 1438   0.222   4.697   9.543 -0.2049 -0.2394  0.1227
   20CHL1  H12B 1439   0.184   4.854   9.608 -2.3484  0.9045 -2.0509
   20CHL1   C11 1440   0.201   4.702   9.765  0.2552 -0.8551  0.2536
   20CHL1  H11A 1441   0.180   4.593   9.761 -1.4444 -0.6309  1.8221
   20CHL1  H11B 1442   0.311   4.711   9.781 -0.0746  1.9992  1.5441
   20CHL1    C9 1443   0.113   4.769   9.876 -0.0070 -0.6903  0.7089
   20CHL1    H9 1444   0.133   4.878   9.877 -0.4862 -0.5966  0.3043
   20CHL1   C10 1445   0.148   4.721  10.024 -0.1499  0.5032  0.0394
   20CHL1   C19 1446   0.171   4.569  10.022  0.2717 -0.0927  0.3079
   20CHL1  H19A 1447   0.073   4.526   9.992 -0.6839  2.0038  0.2209
   20CHL1  H19B 1448   0.233   4.517   9.947 -0.9627  0.5281 -1.1969
   20CHL1  H19C 1449   0.189   4.532  10.125 -1.4643 -0.5955  0.4721
   20CHL1    C1 1450   0.285   4.790  10.072  0.4443  0.7629  0.7167
   20CHL1   H1A 1451   0.359   4.764   9.993 -3.0093 -0.1037 -2.6023
   20CHL1   H1B 1452   0.264   4.897  10.049  1.4398  1.1261  1.4527
   20CHL1    C2 1453   0.333   4.780  10.217  0.4041  0.1962  0.3428
   20CHL1   H2A 1454   0.422   4.845  10.229 -0.7412  2.3602 -1.8501
   20CHL1   H2B 1455   0.361   4.673  10.225 -0.5538 -0.2665 -1.7514
   20CHL1   C20 1456  -0.034   4.692   9.340  0.0669  0.1556 -0.2460
   20CHL1   H20 1457  -0.027   4.582   9.353  3.7299  0.3045  0.0451
   20CHL1   C21 1458   0.117   4.729   9.290  0.5593  0.1367 -0.6331
   20CHL1  H21A 1459   0.134   4.699   9.185  1.3025  0.6550 -0.6703
   20CHL1  H21B 1460   0.195   4.675   9.348 -0.6344  0.0791  0.9803
   20CHL1  H21C 1461   0.130   4.838   9.306 -0.3782  0.3599 -1.3074
   20CHL1   C22 1462  -0.141   4.735   9.228  0.0742  0.3775 -0.2212
   20CHL1  H22A 1463  -0.246   4.725   9.265  0.1190  0.2225 -0.1349
   20CHL1  H22B 1464  -0.121   4.843   9.213  0.2474  0.0025 -3.1151
   20CHL1   C23 1465  -0.127   4.669   9.094 -0.0606 -0.7286  0.4243
   20CHL1  H23A 1466  -0.034   4.704   9.043  0.6385 -1.9453  0.8118
   20CHL1  H23B 1467  -0.128   4.558   9.101 -2.2579 -0.7770  0.0294
   20CHL1   C24 1468  -0.248   4.697   9.002 -0.2782  0.4177 -0.3616
   20CHL1  H24A 1469  -0.341   4.685   9.061  0.1373 -1.1664  0.0120
   20CHL1  H24B 1470  -0.247   4.805   8.974  1.3433 -0.0723 -2.4178
   20CHL1   C25 1471  -0.262   4.608   8.878 -0.3128 -0.6453  0.1624
   20CHL1   H25 1472  -0.263   4.501   8.906 -0.3204  0.0752  3.3223
   20CHL1   C26 1473  -0.386   4.644   8.792  0.2064 -0.0370 -0.3671
   20CHL1  H26A 1474  -0.486   4.615   8.829 -0.8695  1.7977 -1.6938
   20CHL1  H26B 1475  -0.396   4.751   8.764 -0.3412 -0.5193 -2.1629
   20CHL1  H26C 1476  -0.373   4.592   8.695 -2.5480  1.1724 -1.4918
   20CHL1   C27 1477  -0.133   4.627   8.787  0.2893  0.0296 -0.1244
   20CHL1  H27A 1478  -0.128   4.567   8.693 -0.1938  0.4433 -0.4226
   20CHL1  H27B 1479  -0.126   4.732   8.750  1.5123 -0.1943 -0.5624
   20CHL1  H27C 1480  -0.039   4.605   8.841 -0.6562  1.8291  2.4287
   21CHL1    C3 1481   4.752   3.139  10.090  0.2045  0.0034  0.3589
   21CHL1    H3 1482   4.821   3.198  10.026 -1.1576 -0.0276 -1.2048
   21CHL1    O3 1483   4.761   3.167  10.225 -0.0036 -0.4144  0.0657
   21CHL1   H3' 1484   4.847   3.208  10.232 -0.1040 -0.3835  1.5488
   21CHL1    C4 1485   4.606   3.156  10.041  0.2278 -0.2612  0.4554
   21CHL1   H4A 1486   4.533   3.102  10.105  0.9271  1.4528  2.8789
   21CHL1   H4B 1487   4.576   3.262  10.057  2.2173  0.5529 -0.7820
   21CHL1    C5 1488   4.577   3.109   9.896  0.0702  0.0692 -0.0203
   21CHL1    C6 1489   4.529   3.199   9.806  0.0223 -0.1682  0.0844
   21CHL1    H6 1490   4.490   3.297   9.839  1.8023  0.9929 -1.0883
   21CHL1    C7 1491   4.500   3.180   9.663 -0.1677 -0.9490  0.3799
   21CHL1   H7A 1492   4.396   3.212   9.639 -0.0510  0.0372  1.1381
   21CHL1   H7B 1493   4.565   3.246   9.602  1.3512 -0.9127  1.9694
   21CHL1    C8 1494   4.539   3.039   9.617  0.5059  0.0732  0.3176
   21CHL1    H8 1495   4.449   2.981   9.649  1.4337 -0.9399  1.1351
   21CHL1   C14 1496   4.562   3.036   9.467  0.2885 -0.7913 -0.0590
   21CHL1   H14 1497   4.652   3.099   9.451 -2.2815  2.5572 -2.7441
   21CHL1   C15 1498   4.454   3.095   9.377  0.0919 -0.0830 -0.4885
   21CHL1  H15A 1499   4.350   3.076   9.410 -0.8209  2.1280 -1.8436
   21CHL1  H15B 1500   4.464   3.204   9.363 -0.1916  0.4831  2.9164
   21CHL1   C16 1501   4.489   3.034   9.235 -0.5768  0.3600  0.7120
   21CHL1  H16A 1502   4.404   2.968   9.208 -0.0517  0.3184 -0.9116
   21CHL1  H16B 1503   4.504   3.110   9.155  0.2911 -3.0123 -2.5741
   21CHL1   C17 1504   4.611   2.937   9.255 -0.1849 -0.6128 -0.9402
   21CHL1   H17 1505   4.706   2.994   9.242  0.2932 -1.0124  0.5642
   21CHL1   C13 1506   4.599   2.897   9.407 -0.7094 -0.4094 -0.7123
   21CHL1   C18 1507   4.483   2.799   9.428 -0.4652  0.7419 -0.2646
   21CHL1  H18A 1508   4.518   2.694   9.419 -1.5540  0.2223  1.1994
   21CHL1  H18B 1509   4.452   2.800   9.534  1.3180 -0.5961  0.3157
   21CHL1  H18C 1510   4.390   2.827   9.372 -1.9619  1.3303  2.3483
   21CHL1   C12 1511   4.735   2.846   9.475  0.3998 -0.1599  0.0022
   21CHL1  H12A 1512   4.769   2.749   9.434 -2.0824 -1.5549  1.0479
   21CHL1  H12B 1513   4.816   2.922   9.462  0.6222 -0.6447 -1.6787
   21CHL1   C11 1514   4.714   2.838   9.633 -0.5329  0.1164  0.3523
   21CHL1  H11A 1515   4.650   2.749   9.654 -0.4877  0.2211  0.9780
   21CHL1  H11B 1516   4.809   2.808   9.683 -0.2550  2.5773  1.4344
   21CHL1    C9 1517   4.662   2.976   9.688  0.5274 -1.1422  0.4944
   21CHL1    H9 1518   4.744   3.048   9.670 -0.1638 -0.9894 -2.5699
   21CHL1   C10 1519   4.643   2.976   9.845 -0.6472 -0.4053  0.7819
   21CHL1   C19 1520   4.561   2.850   9.886  0.1679 -0.8623  0.5027
   21CHL1  H19A 1521   4.548   2.844   9.996 -1.5936  0.3160  0.3962
   21CHL1  H19B 1522   4.461   2.859   9.838  0.9415 -1.5149 -1.3255
   21CHL1  H19C 1523   4.611   2.755   9.855 -2.0019 -1.8137 -0.2816
   21CHL1    C1 1524   4.785   2.963   9.915  0.3190 -0.4389  0.2516
   21CHL1   H1A 1525   4.836   2.866   9.899  1.5372  0.1489  0.4624
   21CHL1   H1B 1526   4.852   3.033   9.860 -0.8388 -0.3573 -1.1033
   21CHL1    C2 1527   4.788   2.995  10.065  0.1329  0.1283 -0.1825
   21CHL1   H2A 1528   4.887   2.972  10.109  0.8464 -0.8525 -2.1764
   21CHL1   H2B 1529   4.712   2.932  10.116 -1.7131  1.9339 -0.5441
   21CHL1   C20 1530   4.636   2.816   9.167 -0.0020  0.1230 -0.6946
   21CHL1   H20 1531   4.690   2.740   9.227 -1.3127 -0.1197  0.2173
   21CHL1   C21 1532   4.727   2.861   9.054  0.0174 -0.0748 -0.4295
   21CHL1  H21A 1533   4.763   2.772   8.998  1.6672  2.0987 -3.1173
   21CHL1  H21B 1534   4.816   2.912   9.097  0.4856  1.0673 -2.5686
   21CHL1  H21C 1535   4.682   2.924   8.973 -0.2064 -0.5419 -0.6704
   21CHL1   C22 1536   4.511   2.757   9.099  0.1714 -0.8938  0.3633
   21CHL1  H22A 1537   4.432   2.740   9.175 -0.7903  1.4753 -0.0124
   21CHL1  H22B 1538   4.481   2.822   9.014 -0.4206  0.6344  1.6899
   21CHL1   C23 1539   4.540   2.615   9.046 -0.1723  0.6530 -0.0610
   21CHL1  H23A 1540   4.624   2.595   8.977 -1.1583 -1.3672 -0.7386
   21CHL1  H23B 1541   4.558   2.555   9.138 -1.1277 -1.2949 -1.0834
   21CHL1   C24 1542   4.398   2.564   8.992 -0.5859 -0.4397  1.1489
   21CHL1  H24A 1543   4.320   2.569   9.071 -2.4032  3.3459 -0.6191
   21CHL1  H24B 1544   4.382   2.631   8.905 -0.5996  0.2377  1.6686
   21CHL1   C25 1545   4.402   2.428   8.923 -0.8709  0.0423  0.2208
   21CHL1   H25 1546   4.448   2.359   8.996  0.3653  1.7957  1.1931
   21CHL1   C26 1547   4.258   2.387   8.883  0.0108  0.3295  0.3094
   21CHL1  H26A 1548   4.248   2.290   8.829 -1.9530 -1.5600  3.6729
   21CHL1  H26B 1549   4.203   2.359   8.976  1.5372 -2.0107  0.5850
   21CHL1  H26C 1550   4.206   2.462   8.820 -1.7103 -0.7452  0.3649
   21CHL1   C27 1551   4.490   2.420   8.793  0.2001 -0.2563 -0.3354
   21CHL1  H27A 1552   4.445   2.493   8.723 -1.6726  0.0055  1.0744
   21CHL1  H27B 1553   4.596   2.450   8.808  0.6284 -1.2673 -1.2127
   21CHL1  H27C 1554   4.492   2.318   8.751 -1.1265 -0.0692 -0.8846
   22CHL1    C3 1555   5.971   1.976  10.237  0.8269 -0.3560 -0.1276
   22CHL1    H3 1556   6.039   2.062  10.218  0.6373 -0.4738 -1.4412
   22CHL1    O3 1557   5.947   1.984  10.378  0.5933 -0.1890  0.6440
   22CHL1   H3' 1558   5.884   1.913  10.384  0.8725 -0.3056  2.8278
   22CHL1    C4 1559   5.834   1.992  10.162 -0.3103  0.1987  0.4608
   22CHL1   H4A 1560   5.757   1.921  10.198  0.5781 -1.0985 -0.1209
   22CHL1   H4B 1561   5.788   2.086  10.201  0.7223  1.1455 -0.5192
   22CHL1    C5 1562   5.852   1.992  10.014  0.7024 -0.6573 -0.6484
   22CHL1    C6 1563   5.823   2.092   9.934  0.6270 -1.0505  0.1955
   22CHL1    H6 1564   5.773   2.178   9.980  0.5096 -1.6972  1.3063
   22CHL1    C7 1565   5.833   2.089   9.787  0.1791 -0.1972 -0.1593
   22CHL1   H7A 1566   5.748   2.149   9.747  0.5519  0.7347  0.4178
   22CHL1   H7B 1567   5.926   2.142   9.758 -1.8470  3.2734 -0.9320
   22CHL1    C8 1568   5.840   1.940   9.742 -0.1934  0.0240  0.0892
   22CHL1    H8 1569   5.740   1.892   9.750 -1.7789  2.7343 -1.7851
   22CHL1   C14 1570   5.877   1.926   9.597  0.9827  0.2789  0.7152
   22CHL1   H14 1571   5.973   1.981   9.586  0.5336  0.7416 -1.3736
   22CHL1   C15 1572   5.782   2.005   9.498  0.1169 -0.2451 -0.0857
   22CHL1  H15A 1573   5.676   1.985   9.524  0.2407  0.2296  0.8409
   22CHL1  H15B 1574   5.791   2.115   9.496  0.0929 -0.1977  1.3620
   22CHL1   C16 1575   5.810   1.942   9.361 -0.3897  0.4878  0.8707
   22CHL1  H16A 1576   5.715   1.893   9.332 -1.8231  3.4302  0.1339
   22CHL1  H16B 1577   5.849   2.001   9.275 -1.1450 -1.2026 -0.6996
   22CHL1   C17 1578   5.921   1.835   9.385 -0.2630 -0.9996 -0.9499
   22CHL1   H17 1579   6.017   1.890   9.375 -0.3582 -0.4808  0.7704
   22CHL1   C13 1580   5.898   1.790   9.532 -0.2290 -0.1056  0.3974
   22CHL1   C18 1581   5.772   1.697   9.545  0.3476 -0.9591  0.6770
   22CHL1  H18A 1582   5.732   1.724   9.645 -0.5185 -0.4674  0.2129
   22CHL1  H18B 1583   5.691   1.727   9.475  0.2975  0.6844  1.4002
   22CHL1  H18C 1584   5.807   1.592   9.540  0.7868 -0.8122  0.6501
   22CHL1   C12 1585   6.021   1.733   9.610  0.6517 -0.1144 -0.4745
   22CHL1  H12A 1586   6.036   1.628   9.576 -2.0105 -0.5030 -0.6186
   22CHL1  H12B 1587   6.111   1.795   9.588  1.1008 -0.1500  1.1250
   22CHL1   C11 1588   5.993   1.727   9.762 -1.1179 -0.0303 -0.2817
   22CHL1  H11A 1589   5.920   1.645   9.774 -2.5512  0.9081 -2.0621
   22CHL1  H11B 1590   6.081   1.688   9.817 -1.4598 -2.3181 -1.2624
   22CHL1    C9 1591   5.950   1.865   9.815 -0.4590 -0.0382 -0.0023
   22CHL1    H9 1592   6.044   1.923   9.801 -0.3385 -0.6431 -1.9564
   22CHL1   C10 1593   5.920   1.858   9.965 -0.2883  0.6614  0.2034
   22CHL1   C19 1594   5.821   1.741   9.988 -0.2526 -0.3599  0.1862
   22CHL1  H19A 1595   5.749   1.751   9.904  1.8323  0.7324 -1.6111
   22CHL1  H19B 1596   5.869   1.641   9.989  0.1218 -0.1942 -0.2831
   22CHL1  H19C 1597   5.764   1.738  10.083 -0.4270 -2.2119  0.0570
   22CHL1    C1 1598   6.061   1.855  10.044 -0.2923 -0.7778  0.0861
   22CHL1   H1A 1599   6.120   1.770  10.003  0.6162  0.6723 -1.8212
   22CHL1   H1B 1600   6.127   1.939  10.013 -0.4383 -0.5767  0.3190
   22CHL1    C2 1601   6.043   1.854  10.196  0.6787 -0.3936  0.2030
   22CHL1   H2A 1602   6.143   1.843  10.244  0.7014 -2.3756 -0.2106
   22CHL1   H2B 1603   5.982   1.765  10.224 -0.2244 -0.4378 -1.7321
   22CHL1   C20 1604   5.912   1.722   9.283  0.0357  1.1676  0.8158
   22CHL1   H20 1605   5.833   1.651   9.313  0.7760  1.0313  2.5531
   22CHL1   C21 1606   6.047   1.647   9.277  0.7135 -0.1558 -0.2909
   22CHL1  H21A 1607   6.125   1.723   9.257  0.4347 -0.3603 -2.3696
   22CHL1  H21B 1608   6.033   1.569   9.199 -1.8188  2.2551 -2.4542
   22CHL1  H21C 1609   6.067   1.594   9.373 -2.3696  0.5314  0.8404
   22CHL1   C22 1610   5.883   1.777   9.136 -0.4787  0.2484 -0.2627
   22CHL1  H22A 1611   5.791   1.840   9.138 -0.6197  0.0804 -1.1525
   22CHL1  H22B 1612   5.977   1.825   9.101  0.3862 -2.4857 -2.0225
   22CHL1   C23 1613   5.839   1.667   9.046 -0.4369 -0.1657  0.1256
   22CHL1  H23A 1614   5.909   1.582   9.057 -0.1482  0.0269 -0.1813
   22CHL1  H23B 1615   5.741   1.632   9.085 -0.9505 -0.2900 -1.2122
   22CHL1   C24 1616   5.828   1.713   8.900  0.1267 -0.2892  0.8477
   22CHL1  H24A 1617   5.784   1.815   8.892  2.0505  0.4944 -0.4010
   22CHL1  H24B 1618   5.930   1.725   8.860 -0.6620  2.4757 -0.6130
   22CHL1   C25 1619   5.753   1.621   8.797  0.7286  0.6175  0.4052
   22CHL1   H25 1620   5.758   1.665   8.695  1.5958  0.5297  0.4045
   22CHL1   C26 1621   5.813   1.475   8.790  0.2046 -0.3943  0.5489
   22CHL1  H26A 1622   5.748   1.408   8.730 -0.2614  0.0958  0.5020
   22CHL1  H26B 1623   5.914   1.481   8.744 -0.2614  3.0819 -0.2732
   22CHL1  H26C 1624   5.815   1.442   8.896  1.2327 -0.2165  0.5973
   22CHL1   C27 1625   5.602   1.613   8.830 -0.1898 -0.5491  0.2486
   22CHL1  H27A 1626   5.568   1.715   8.856 -0.5968 -0.9926  1.5607
   22CHL1  H27B 1627   5.542   1.560   8.753  1.1986 -2.9153  0.6700
   22CHL1  H27C 1628   5.583   1.555   8.923  0.1943 -1.7726 -0.4155
   23CHL1    C3 1629   2.159   4.471  10.321 -0.4036 -0.4002 -0.0743
   23CHL1    H3 1630   2.192   4.572  10.287 -3.8992  0.4039 -1.5098
   23CHL1    O3 1631   2.181   4.464  10.464 -0.4437  0.2088  0.3602
   23CHL1   H3' 1632   2.275   4.482  10.473 -0.8684  3.2862 -0.1455
   23CHL1    C4 1633   2.008   4.469  10.287 -0.2139  0.1732 -0.3495
   23CHL1   H4A 1634   1.971   4.370  10.322  2.6307 -0.8983 -0.0348
   23CHL1   H4B 1635   1.952   4.551  10.336 -0.6552 -0.2521 -0.1298
   23CHL1    C5 1636   1.984   4.473  10.140 -0.1701  0.4118  0.4857
   23CHL1    C6 1637   1.900   4.564  10.095  0.1800 -0.0478  0.3900
   23CHL1    H6 1638   1.847   4.625  10.169  1.8065  2.9614 -0.7593
   23CHL1    C7 1639   1.881   4.593   9.943  0.2600  0.2945 -0.0100
   23CHL1   H7A 1640   1.772   4.594   9.922  0.1488 -1.2794  0.3232
   23CHL1   H7B 1641   1.929   4.688   9.913  2.7865 -0.3987  1.5163
   23CHL1    C8 1642   1.935   4.488   9.858 -0.2748  0.1057  0.2821
   23CHL1    H8 1643   1.870   4.398   9.868  0.8121 -0.6408  0.7924
   23CHL1   C14 1644   1.938   4.531   9.711  0.4086  0.2101  0.5289
   23CHL1   H14 1645   1.988   4.626   9.682 -0.5129  0.0117 -1.9681
   23CHL1   C15 1646   1.797   4.572   9.646 -0.8024 -0.3611  0.3046
   23CHL1  H15A 1647   1.712   4.509   9.679 -2.0457 -1.2917 -4.0677
   23CHL1  H15B 1648   1.773   4.677   9.674  0.5540 -0.1868  0.9028
   23CHL1   C16 1649   1.819   4.551   9.496 -0.1725 -0.0031 -0.0055
   23CHL1  H16A 1650   1.732   4.493   9.457 -0.2958 -3.1316  4.3305
   23CHL1  H16B 1651   1.819   4.655   9.455 -6.3130  0.6204  0.5416
   23CHL1   C17 1652   1.957   4.479   9.479  0.2434  0.0762 -0.3532
   23CHL1   H17 1653   2.027   4.565   9.466 -0.3343  0.3405 -2.0192
   23CHL1   C13 1654   1.985   4.418   9.620 -0.0317  0.6133  0.3301
   23CHL1   C18 1655   1.905   4.282   9.628 -0.2047  0.2649 -0.8688
   23CHL1  H18A 1656   1.919   4.256   9.735 -1.5963  0.6002 -0.5817
   23CHL1  H18B 1657   1.795   4.286   9.608 -0.1991  0.5233 -0.8595
   23CHL1  H18C 1658   1.957   4.204   9.568  2.2337  0.4784  0.8511
   23CHL1   C12 1659   2.132   4.401   9.659 -0.0741 -0.4480  0.5865
   23CHL1  H12A 1660   2.175   4.325   9.590 -0.2045  0.7837 -0.9015
   23CHL1  H12B 1661   2.187   4.498   9.653  0.1119 -0.5789  0.1002
   23CHL1   C11 1662   2.150   4.351   9.802  0.0961 -0.0768 -0.0678
   23CHL1  H11A 1663   2.111   4.247   9.802  1.4862 -0.6268  0.2579
   23CHL1  H11B 1664   2.258   4.338   9.828  0.5448 -0.2247 -1.8896
   23CHL1    C9 1665   2.077   4.439   9.909  0.0402 -0.1588  0.5817
   23CHL1    H9 1666   2.132   4.535   9.902 -2.2301  1.1232 -4.1801
   23CHL1   C10 1667   2.078   4.381  10.055  0.1531  0.1590  0.2275
   23CHL1   C19 1668   2.030   4.243  10.065  0.1864 -0.0336 -0.4146
   23CHL1  H19A 1669   1.926   4.237  10.025  0.5476 -0.5773 -1.2818
   23CHL1  H19B 1670   2.080   4.174   9.995 -0.6478 -1.4637  0.3417
   23CHL1  H19C 1671   2.034   4.200  10.168  3.5294 -1.6967 -1.1211
   23CHL1    C1 1672   2.225   4.378  10.107  0.0675 -0.1338  0.6252
   23CHL1   H1A 1673   2.286   4.304  10.051 -0.0102 -1.8825  2.7117
   23CHL1   H1B 1674   2.267   4.472  10.065 -0.4999 -0.9269 -1.8731
   23CHL1    C2 1675   2.250   4.369  10.256  0.0091 -0.3709  0.7778
   23CHL1   H2A 1676   2.357   4.370  10.287  0.4698 -1.7054 -0.6599
   23CHL1   H2B 1677   2.216   4.271  10.296 -0.9026 -0.9118 -1.1980
   23CHL1   C20 1678   1.977   4.389   9.355 -0.0322  1.1181 -0.2008
   23CHL1   H20 1679   1.944   4.286   9.380 -1.5923  1.4623 -0.7004
   23CHL1   C21 1680   2.123   4.403   9.306  0.0412 -0.0683 -0.7348
   23CHL1  H21A 1681   2.143   4.493   9.245  1.3218  1.2581  1.5287
   23CHL1  H21B 1682   2.159   4.310   9.257  2.5701 -0.2123  1.1807
   23CHL1  H21C 1683   2.200   4.413   9.385  2.1787 -0.1712 -2.7067
   23CHL1   C22 1684   1.878   4.446   9.248 -0.3171  0.1968  0.5318
   23CHL1  H22A 1685   1.774   4.423   9.279  0.5981 -2.7353  1.7988
   23CHL1  H22B 1686   1.889   4.555   9.231  0.7570  0.0972  0.4712
   23CHL1   C23 1687   1.887   4.369   9.113 -0.2728  0.4775  0.1126
   23CHL1  H23A 1688   1.965   4.402   9.041  0.4331  0.0813  0.6709
   23CHL1  H23B 1689   1.910   4.261   9.125 -0.7706  0.1064 -1.9265
   23CHL1   C24 1690   1.758   4.382   9.030  0.3892  0.8779 -0.1550
   23CHL1  H24A 1691   1.672   4.342   9.088  1.6090 -1.7061  0.0414
   23CHL1  H24B 1692   1.724   4.486   9.016 -2.3639  0.3376  1.6873
   23CHL1   C25 1693   1.758   4.303   8.892 -0.4069 -0.0866 -0.2304
   23CHL1   H25 1694   1.849   4.336   8.837  1.8621 -1.7328  2.3358
   23CHL1   C26 1695   1.742   4.153   8.898 -0.4011  0.1177  0.2506
   23CHL1  H26A 1696   1.655   4.103   8.946 -0.5257  0.5420  0.4720
   23CHL1  H26B 1697   1.750   4.115   8.794  4.5358  1.2330 -0.0430
   23CHL1  H26C 1698   1.833   4.111   8.946 -1.1449 -0.4911  1.1628
   23CHL1   C27 1699   1.642   4.359   8.810  0.4514 -0.9062  0.6013
   23CHL1  H27A 1700   1.543   4.343   8.857 -1.3557  0.6130 -2.3544
   23CHL1  H27B 1701   1.659   4.468   8.797 -1.3342 -0.8794 -2.8784
   23CHL1  H27C 1702   1.638   4.318   8.707 -0.2752  1.3917 -0.3442
   24CHL1    C3 1703   2.701   4.178  10.370 -0.3919 -0.4232 -0.1423
   24CHL1    H3 1704   2.644   4.092  10.329  1.7340 -0.9382 -2.2506
   24CHL1    O3 1705   2.725   4.150  10.507 -0.4627  0.3693  0.6198
   24CHL1   H3' 1706   2.765   4.229  10.544  0.4262 -0.8675  2.4989
   24CHL1    C4 1707   2.831   4.173  10.291 -0.4019 -0.1203  0.8579
   24CHL1   H4A 1708   2.887   4.259  10.333 -0.8789 -0.1993  1.6709
   24CHL1   H4B 1709   2.883   4.078  10.313 -0.0566  0.1031  1.0064
   24CHL1    C5 1710   2.799   4.196  10.145  0.4400  0.5604 -0.4866
   24CHL1    C6 1711   2.828   4.098  10.053 -0.5835  0.6773 -0.5199
   24CHL1    H6 1712   2.886   4.008  10.080  0.0259  0.6076 -1.9890
   24CHL1    C7 1713   2.810   4.113   9.900 -0.0109 -0.5531 -0.1326
   24CHL1   H7A 1714   2.903   4.080   9.850  0.1157  0.8973 -0.9039
   24CHL1   H7B 1715   2.735   4.040   9.864 -0.0890 -0.3159 -0.4485
   24CHL1    C8 1716   2.771   4.259   9.861 -0.6612  0.2948  0.1629
   24CHL1    H8 1717   2.864   4.321   9.867 -0.5409  0.0586  0.7895
   24CHL1   C14 1718   2.705   4.251   9.724  0.6282 -0.4868 -0.1865
   24CHL1   H14 1719   2.617   4.183   9.730  2.0183 -2.2373  2.9528
   24CHL1   C15 1720   2.788   4.202   9.595 -0.5362  0.3802 -0.3801
   24CHL1  H15A 1721   2.882   4.261   9.603  1.8275 -2.8163 -2.2165
   24CHL1  H15B 1722   2.803   4.092   9.597 -0.0026  0.4369  2.0513
   24CHL1   C16 1723   2.714   4.256   9.479 -0.5102 -0.5771  0.5012
   24CHL1  H16A 1724   2.794   4.298   9.414  0.8346  0.4656  2.6903
   24CHL1  H16B 1725   2.659   4.169   9.438 -4.2307  1.3668  0.9695
   24CHL1   C17 1726   2.613   4.365   9.536  0.1624 -0.8704  0.5170
   24CHL1   H17 1727   2.516   4.311   9.548  1.1427 -2.3781  2.1804
   24CHL1   C13 1728   2.657   4.390   9.681  1.4902  0.4194  0.1173
   24CHL1   C18 1729   2.767   4.499   9.677  0.0681  0.4171 -0.6159
   24CHL1  H18A 1730   2.848   4.470   9.607  1.4169 -1.3438  1.5391
   24CHL1  H18B 1731   2.731   4.600   9.648  1.5365  1.3674  0.7137
   24CHL1  H18C 1732   2.812   4.507   9.778  1.2805  0.8130 -1.1726
   24CHL1   C12 1733   2.537   4.429   9.773  0.4993 -0.0817  0.1697
   24CHL1  H12A 1734   2.509   4.537   9.771  4.7267  1.1675 -2.4849
   24CHL1  H12B 1735   2.452   4.359   9.757  1.2526 -0.6398 -1.6184
   24CHL1   C11 1736   2.586   4.441   9.914  0.0980  0.1415  0.1472
   24CHL1  H11A 1737   2.646   4.532   9.938  1.3834 -0.4513 -0.7199
   24CHL1  H11B 1738   2.489   4.450   9.968 -0.6189  0.2564 -1.1230
   24CHL1    C9 1739   2.666   4.310   9.959  0.2894 -0.3401  0.0687
   24CHL1    H9 1740   2.594   4.226   9.955  0.1523 -0.2994  1.4028
   24CHL1   C10 1741   2.721   4.323  10.100  0.2497 -0.1335 -0.6972
   24CHL1   C19 1742   2.801   4.452  10.128 -0.0263 -0.3268 -0.3028
   24CHL1  H19A 1743   2.872   4.461  10.043 -2.8096  0.2617 -2.7269
   24CHL1  H19B 1744   2.746   4.549  10.126  1.1714  0.3809  0.0573
   24CHL1  H19C 1745   2.854   4.449  10.226 -1.0133 -1.1634  0.2220
   24CHL1    C1 1746   2.601   4.328  10.200  0.2458 -0.0621  0.0779
   24CHL1   H1A 1747   2.553   4.428  10.196 -1.4160 -0.8090  0.4701
   24CHL1   H1B 1748   2.519   4.259  10.171 -1.0202  1.3696  0.0993
   24CHL1    C2 1749   2.627   4.309  10.347 -0.2558  0.0264 -0.2032
   24CHL1   H2A 1750   2.525   4.299  10.390 -0.9524 -1.6144 -2.0989
   24CHL1   H2B 1751   2.676   4.390  10.406 -2.6846  1.4335  0.0200
   24CHL1   C20 1752   2.592   4.474   9.422  0.4844  0.6481 -0.5912
   24CHL1   H20 1753   2.684   4.535   9.416  0.3161  0.8892 -0.7129
   24CHL1   C21 1754   2.470   4.551   9.473 -0.0638 -0.5077  0.5188
   24CHL1  H21A 1755   2.482   4.592   9.575  2.0652 -2.2662  1.0589
   24CHL1  H21B 1756   2.378   4.490   9.467  0.8631 -1.8705 -1.3269
   24CHL1  H21C 1757   2.457   4.637   9.404  3.1790 -0.5016 -0.2880
   24CHL1   C22 1758   2.566   4.403   9.286 -0.5574 -0.1134  0.0969
   24CHL1  H22A 1759   2.663   4.362   9.251  0.1245  0.6572  1.0248
   24CHL1  H22B 1760   2.486   4.327   9.295 -1.4456  0.6484 -1.0629
   24CHL1   C23 1761   2.516   4.500   9.174 -0.2345 -0.1578  0.6249
   24CHL1  H23A 1762   2.421   4.546   9.206 -0.7449 -1.5786  1.2323
   24CHL1  H23B 1763   2.589   4.582   9.160 -0.2883  0.4660  3.4985
   24CHL1   C24 1764   2.495   4.418   9.039  0.1512 -0.0442  0.2154
   24CHL1  H24A 1765   2.591   4.417   8.984 -0.1075  0.8352 -0.2829
   24CHL1  H24B 1766   2.479   4.310   9.055 -1.3472  0.3123  1.3838
   24CHL1   C25 1767   2.386   4.478   8.948 -0.4022 -0.3122 -0.6032
   24CHL1   H25 1768   2.292   4.487   9.008  1.1005 -1.8793  2.1773
   24CHL1   C26 1769   2.420   4.618   8.892  0.4391 -0.1550 -0.1086
   24CHL1  H26A 1770   2.481   4.618   8.799 -0.3316 -2.1234 -0.6649
   24CHL1  H26B 1771   2.321   4.666   8.876 -0.3089 -1.6996 -0.3679
   24CHL1  H26C 1772   2.472   4.675   8.972  0.7619 -0.3883 -0.1503
   24CHL1   C27 1773   2.350   4.376   8.838 -0.0575 -0.4020  0.1155
   24CHL1  H27A 1774   2.441   4.336   8.788  0.4293 -0.2334  0.8398
   24CHL1  H27B 1775   2.299   4.285   8.876 -0.4961 -1.0789 -1.9690
   24CHL1  H27C 1776   2.282   4.422   8.764 -1.7884  0.4792  2.1353
   25CHL1    C3 1777   4.238   0.103  10.401  0.8703  0.1436 -0.6618
   25CHL1    H3 1778   4.195   0.004  10.377 -0.0972  0.5632 -0.6871
   25CHL1    O3 1779   4.254   0.118  10.542 -0.3537  0.3959 -0.2335
   25CHL1   H3' 1780   4.347   0.130  10.564 -0.4427 -1.7142  1.6719
   25CHL1    C4 1781   4.385   0.103  10.344  0.4194  0.6754  0.1242
   25CHL1   H4A 1782   4.433   0.200  10.370  1.1340  0.3462  0.0641
   25CHL1   H4B 1783   4.449   0.025  10.390 -0.3757  0.3628  0.7161
   25CHL1    C5 1784   4.376   0.081  10.192  0.6088 -0.5272  0.4467
   25CHL1    C6 1785   4.456  -0.006  10.131 -0.2614  0.0523  0.8519
   25CHL1    H6 1786   4.532  -0.058  10.191 -0.5983  0.7458  1.9049
   25CHL1    C7 1787   4.456  -0.023   9.978 -0.1922 -0.1288 -0.4285
   25CHL1   H7A 1788   4.557  -0.007   9.937 -0.0742  2.1739  0.6250
   25CHL1   H7B 1789   4.440  -0.131   9.958 -1.3550  0.3079 -1.9644
   25CHL1    C8 1790   4.362   0.060   9.895  0.0810  0.1956 -0.0442
   25CHL1    H8 1791   4.412   0.156   9.869 -3.8558  2.6841  0.5389
   25CHL1   C14 1792   4.329  -0.017   9.766  0.4395  0.2115  0.4054
   25CHL1   H14 1793   4.275  -0.107   9.802  0.4541  0.5943  1.4080
   25CHL1   C15 1794   4.445  -0.070   9.676 -0.0979 -0.4148 -0.2644
   25CHL1  H15A 1795   4.516   0.011   9.648 -1.1899  0.7958  0.3143
   25CHL1  H15B 1796   4.503  -0.156   9.715 -0.6593 -0.2806  0.9206
   25CHL1   C16 1797   4.373  -0.097   9.540 -0.1100 -0.1599 -0.0560
   25CHL1  H16A 1798   4.434  -0.043   9.464  1.1370 -0.0847  0.9590
   25CHL1  H16B 1799   4.372  -0.208   9.534 -0.2779 -0.0818 -3.6094
   25CHL1   C17 1800   4.228  -0.035   9.552  0.0081  0.1510  0.0211
   25CHL1   H17 1801   4.173  -0.120   9.597  1.8605 -1.6205 -0.8996
   25CHL1   C13 1802   4.237   0.061   9.670 -0.1273  0.0996 -0.3925
   25CHL1   C18 1803   4.293   0.192   9.610 -0.6114  0.1748 -0.2477
   25CHL1  H18A 1804   4.328   0.258   9.692 -0.0570  1.2250 -1.3030
   25CHL1  H18B 1805   4.379   0.177   9.541 -1.3471  1.5188 -1.4960
   25CHL1  H18C 1806   4.219   0.249   9.551 -1.6103 -0.8367 -0.0136
   25CHL1   C12 1807   4.105   0.085   9.756 -0.3288  0.4478 -0.4746
   25CHL1  H12A 1808   4.020   0.126   9.697 -0.6647 -0.7381 -0.8417
   25CHL1  H12B 1809   4.072  -0.015   9.790 -2.5350  1.1295 -0.4658
   25CHL1   C11 1810   4.129   0.160   9.890  1.6258  0.1463 -0.5555
   25CHL1  H11A 1811   4.157   0.265   9.867  3.7056  0.0494  1.1600
   25CHL1  H11B 1812   4.038   0.154   9.954  1.2921 -0.9522 -1.1166
   25CHL1    C9 1813   4.237   0.085   9.977 -0.0541  0.4593 -0.0768
   25CHL1    H9 1814   4.177  -0.006   9.998 -1.0309  1.1504  0.1950
   25CHL1   C10 1815   4.266   0.159  10.109 -0.2742 -0.0615  0.0548
   25CHL1   C19 1816   4.325   0.296  10.081 -0.3200  0.5779 -0.7421
   25CHL1  H19A 1817   4.427   0.282  10.040 -0.6971  0.4958 -1.6993
   25CHL1  H19B 1818   4.262   0.352  10.008 -0.5323 -1.3045 -2.0876
   25CHL1  H19C 1819   4.335   0.358  10.172  1.2173  0.7439 -1.0015
   25CHL1    C1 1820   4.139   0.178  10.186  0.3082 -0.3841 -0.4715
   25CHL1   H1A 1821   4.083   0.265  10.145  0.8305  1.8602  3.0687
   25CHL1   H1B 1822   4.076   0.087  10.177  0.2147 -0.2112 -1.7736
   25CHL1    C2 1823   4.151   0.212  10.342  0.0885 -0.1237 -0.5347
   25CHL1   H2A 1824   4.047   0.213  10.381  0.3194 -1.0732  0.1580
   25CHL1   H2B 1825   4.204   0.307  10.362  1.4947 -1.4830  3.0094
   25CHL1   C20 1826   4.170   0.004   9.417  0.1942 -0.4260  0.8996
   25CHL1   H20 1827   4.236   0.082   9.374  1.4224 -1.1096  1.5226
   25CHL1   C21 1828   4.025   0.065   9.426  0.0768 -1.1586 -0.0452
   25CHL1  H21A 1829   3.964  -0.006   9.487  1.2099 -0.1430  2.4081
   25CHL1  H21B 1830   3.973   0.054   9.328 -3.3028 -2.2357  1.6990
   25CHL1  H21C 1831   4.025   0.170   9.462 -1.3133 -1.7335  1.7840
   25CHL1   C22 1832   4.165  -0.105   9.316  0.0748  0.0277  0.4555
   25CHL1  H22A 1833   4.251  -0.175   9.320 -0.9548 -1.2949  0.2848
   25CHL1  H22B 1834   4.084  -0.172   9.352  0.9897 -2.7471 -2.2181
   25CHL1   C23 1835   4.147  -0.062   9.169 -0.5889 -0.3295 -0.5187
   25CHL1  H23A 1836   4.040  -0.032   9.156 -0.9014 -0.9216  0.5293
   25CHL1  H23B 1837   4.220   0.018   9.145 -0.7736 -0.3256 -1.0729
   25CHL1   C24 1838   4.180  -0.195   9.088  0.3282  0.1485 -0.8898
   25CHL1  H24A 1839   4.285  -0.229   9.098  0.6694  1.3352 -0.2624
   25CHL1  H24B 1840   4.122  -0.274   9.139  1.2196  2.7121  4.9432
   25CHL1   C25 1841   4.136  -0.187   8.945  0.1812  0.2879  0.5061
   25CHL1   H25 1842   4.027  -0.171   8.936  0.3079  0.2864 -1.5325
   25CHL1   C26 1843   4.213  -0.088   8.851  0.2386 -0.0825  0.8159
   25CHL1  H26A 1844   4.184  -0.098   8.744  1.7040 -1.6854  0.5154
   25CHL1  H26B 1845   4.212   0.013   8.896 -2.4415 -0.3976  1.5981
   25CHL1  H26C 1846   4.319  -0.121   8.862  0.6859  1.1473  0.3849
   25CHL1   C27 1847   4.169  -0.320   8.868 -0.2908 -0.1214  0.2565
   25CHL1  H27A 1848   4.146  -0.312   8.760  1.2815  0.6387 -0.0541
   25CHL1  H27B 1849   4.276  -0.350   8.879 -0.2021  0.6536  1.9163
   25CHL1  H27C 1850   4.106  -0.402   8.911 -0.4650  1.1061  2.5128
   26CHL1    C3 1851   6.497   1.977  10.340 -0.2502  0.0329  0.1646
   26CHL1    H3 1852   6.392   1.939  10.334 -0.3923  0.5747 -1.2541
   26CHL1    O3 1853   6.546   2.009  10.467  0.4217  0.6128 -0.2662
   26CHL1   H3' 1854   6.639   2.023  10.449  0.7297 -1.7552 -0.8757
   26CHL1    C4 1855   6.592   1.874  10.278  0.1683  0.6059 -0.1140
   26CHL1   H4A 1856   6.699   1.903  10.272  0.4200 -0.3469 -0.2504
   26CHL1   H4B 1857   6.590   1.791  10.351 -0.0241 -0.1555 -0.9659
   26CHL1    C5 1858   6.546   1.837  10.140  0.2964  1.1031 -0.4393
   26CHL1    C6 1859   6.508   1.715  10.110 -0.6340 -0.2358  0.0873
   26CHL1    H6 1860   6.493   1.640  10.190 -0.2281  0.7971  1.1690
   26CHL1    C7 1861   6.486   1.674   9.967  0.3657  0.7157 -0.0573
   26CHL1   H7A 1862   6.542   1.579   9.951  0.0209  0.7660 -1.7849
   26CHL1   H7B 1863   6.377   1.654   9.955  0.2967  1.0495  0.0019
   26CHL1    C8 1864   6.518   1.772   9.855 -0.0150  0.4765 -0.6482
   26CHL1    H8 1865   6.628   1.764   9.849 -0.1493 -1.7390 -1.0044
   26CHL1   C14 1866   6.455   1.736   9.724 -0.1910 -0.0515  0.4623
   26CHL1   H14 1867   6.347   1.756   9.736  0.4961  4.3238  1.0329
   26CHL1   C15 1868   6.470   1.594   9.677  0.2430 -0.9773 -0.1063
   26CHL1  H15A 1869   6.575   1.557   9.684  0.7076  0.5037  1.6574
   26CHL1  H15B 1870   6.403   1.533   9.742  0.0939  0.7478  1.4512
   26CHL1   C16 1871   6.434   1.608   9.530  0.4544  0.0470  0.5188
   26CHL1  H16A 1872   6.504   1.543   9.473 -0.7156 -1.8626  1.1744
   26CHL1  H16B 1873   6.337   1.565   9.498  0.7093  1.6278 -2.8459
   26CHL1   C17 1874   6.417   1.761   9.490 -0.3796  0.7391 -0.4445
   26CHL1   H17 1875   6.309   1.782   9.505 -0.0291  0.8202  2.7422
   26CHL1   C13 1876   6.487   1.826   9.610  0.6158  0.0732  0.0877
   26CHL1   C18 1877   6.647   1.832   9.584  0.5052  0.7949 -0.1803
   26CHL1  H18A 1878   6.703   1.847   9.679 -1.0685 -1.6145  1.2280
   26CHL1  H18B 1879   6.676   1.733   9.544  2.5108  0.9492  0.7764
   26CHL1  H18C 1880   6.675   1.908   9.508  1.7783  0.2639 -0.2525
   26CHL1   C12 1881   6.441   1.974   9.646 -0.1356 -0.4397  0.5057
   26CHL1  H12A 1882   6.462   2.043   9.561 -2.4625  1.3914  1.2915
   26CHL1  H12B 1883   6.331   1.977   9.662  0.0574  1.8579  1.9970
   26CHL1   C11 1884   6.510   2.019   9.772  0.0134 -0.6805 -0.6554
   26CHL1  H11A 1885   6.617   2.040   9.751  0.2064  0.9401  1.6489
   26CHL1  H11B 1886   6.462   2.112   9.809  1.4589 -0.4063  0.6537
   26CHL1    C9 1887   6.484   1.916   9.888  0.1974 -0.0611  0.6197
   26CHL1    H9 1888   6.375   1.922   9.911  0.5117  2.1849  1.9029
   26CHL1   C10 1889   6.547   1.948  10.030 -0.1168 -0.0594  0.3228
   26CHL1   C19 1890   6.692   2.005  10.017 -0.2351  1.0104 -0.4270
   26CHL1  H19A 1891   6.766   1.924  10.003 -0.4704  0.6855  0.1683
   26CHL1  H19B 1892   6.717   2.083   9.942 -1.1089  1.0858 -0.6492
   26CHL1  H19C 1893   6.730   2.057  10.107  2.0565 -2.1700  0.6248
   26CHL1    C1 1894   6.457   2.057  10.097  0.2096  0.4117  0.6621
   26CHL1   H1A 1895   6.473   2.152  10.042  0.2377  0.8573  1.4169
   26CHL1   H1B 1896   6.350   2.026  10.094  0.9331 -2.2734 -0.9058
   26CHL1    C2 1897   6.494   2.100  10.243 -0.7103  0.0557 -0.1542
   26CHL1   H2A 1898   6.419   2.168  10.289 -0.4744 -1.7924  3.2387
   26CHL1   H2B 1899   6.596   2.142  10.231 -0.9860  0.4890 -1.0880
   26CHL1   C20 1900   6.462   1.797   9.345 -0.0531 -0.0038  0.3939
   26CHL1   H20 1901   6.564   1.842   9.347  0.1227 -0.3766 -0.0774
   26CHL1   C21 1902   6.365   1.919   9.307  0.7205 -0.3460  0.2736
   26CHL1  H21A 1903   6.369   1.996   9.387 -0.1959 -0.4069  0.3977
   26CHL1  H21B 1904   6.261   1.883   9.321  0.0799  1.0885 -0.5433
   26CHL1  H21C 1905   6.396   1.960   9.208 -0.4851 -1.7783 -0.7358
   26CHL1   C22 1906   6.467   1.673   9.253 -0.5208 -0.2287  0.3516
   26CHL1  H22A 1907   6.559   1.616   9.279 -0.2998 -0.0038  0.0725
   26CHL1  H22B 1908   6.373   1.618   9.273 -0.3595  0.3793  3.3253
   26CHL1   C23 1909   6.473   1.702   9.102  0.2954 -0.1867 -0.3844
   26CHL1  H23A 1910   6.403   1.784   9.076  1.2928  1.1007  0.7965
   26CHL1  H23B 1911   6.566   1.759   9.077 -0.1880  1.3624  1.1892
   26CHL1   C24 1912   6.464   1.579   9.005  0.3930 -0.0380 -0.0135
   26CHL1  H24A 1913   6.552   1.517   9.032  1.2438  2.2672  3.0895
   26CHL1  H24B 1914   6.369   1.526   9.027  0.1878 -0.5858 -2.0193
   26CHL1   C25 1915   6.479   1.606   8.856  0.5010  0.1138 -0.1331
   26CHL1   H25 1916   6.576   1.659   8.843  1.3767 -1.6119 -1.1612
   26CHL1   C26 1917   6.499   1.476   8.775 -0.3537 -0.3999  0.4734
   26CHL1  H26A 1918   6.403   1.420   8.767  0.6044 -2.3596  1.9412
   26CHL1  H26B 1919   6.546   1.491   8.675  1.2594 -1.2320  1.0694
   26CHL1  H26C 1920   6.566   1.413   8.836  2.0052  0.2248 -1.2897
   26CHL1   C27 1921   6.360   1.682   8.800  0.1747 -0.2914  0.8030
   26CHL1  H27A 1922   6.264   1.640   8.835 -2.9146  3.3204 -2.4013
   26CHL1  H27B 1923   6.370   1.781   8.849 -0.1592  0.4096 -0.4986
   26CHL1  H27C 1924   6.355   1.695   8.690  0.8143  1.5434  0.9603
   27CHL1    C3 1925   5.633   5.544  10.471  0.8029  0.6363  0.9035
   27CHL1    H3 1926   5.641   5.435  10.447  2.1771  0.5813  1.5129
   27CHL1    O3 1927   5.698   5.562  10.596 -0.0563  0.3353  0.6288
   27CHL1   H3' 1928   5.658   5.641  10.635  3.6867  2.2120  1.1902
   27CHL1    C4 1929   5.709   5.620  10.358 -0.6192  0.2428 -0.3302
   27CHL1   H4A 1930   5.728   5.725  10.388  0.2615 -0.4682  1.7783
   27CHL1   H4B 1931   5.809   5.573  10.368 -1.2700 -0.8794  1.4687
   27CHL1    C5 1932   5.646   5.599  10.226  0.3858  0.2957 -0.4386
   27CHL1    C6 1933   5.713   5.540  10.129  0.0557 -0.0260 -0.9480
   27CHL1    H6 1934   5.815   5.514  10.159  0.4262  2.0011 -0.3361
   27CHL1    C7 1935   5.666   5.536   9.989  0.0790  0.1119  0.2172
   27CHL1   H7A 1936   5.734   5.595   9.925 -1.8964  0.4048 -1.7104
   27CHL1   H7B 1937   5.664   5.431   9.952  1.2587  0.5234 -1.0692
   27CHL1    C8 1938   5.532   5.614   9.966  0.8557 -0.0536  0.4801
   27CHL1    H8 1939   5.567   5.719   9.958  2.2198 -0.5574 -0.5660
   27CHL1   C14 1940   5.462   5.563   9.834 -0.0018  0.7683  0.0483
   27CHL1   H14 1941   5.427   5.463   9.866 -1.3471  1.4731  0.8913
   27CHL1   C15 1942   5.548   5.545   9.707  0.3083 -0.0218  0.2705
   27CHL1  H15A 1943   5.602   5.642   9.696 -0.6544  0.3773 -1.2264
   27CHL1  H15B 1944   5.615   5.459   9.725  0.0271 -0.5383 -1.0107
   27CHL1   C16 1945   5.444   5.517   9.600  0.4996  0.1894  0.3164
   27CHL1  H16A 1946   5.469   5.569   9.505  2.5356  0.6087  1.0328
   27CHL1  H16B 1947   5.441   5.407   9.590  0.0386  0.1051  1.2378
   27CHL1   C17 1948   5.310   5.559   9.665 -0.2561 -0.4730 -0.0848
   27CHL1   H17 1949   5.269   5.461   9.698  0.7728  0.0112  2.9252
   27CHL1   C13 1950   5.344   5.638   9.790 -0.4410 -0.2837 -0.1054
   27CHL1   C18 1951   5.385   5.788   9.754  0.1334 -0.0442  0.1412
   27CHL1  H18A 1952   5.298   5.856   9.737 -0.5239 -1.6612 -4.6430
   27CHL1  H18B 1953   5.447   5.833   9.834  1.8334 -0.8706 -0.6521
   27CHL1  H18C 1954   5.444   5.784   9.660  0.4942 -0.6600  0.3891
   27CHL1   C12 1955   5.247   5.636   9.911  0.8948 -0.2662 -0.4391
   27CHL1  H12A 1956   5.157   5.695   9.883  1.9449  1.4012 -0.5036
   27CHL1  H12B 1957   5.214   5.531   9.920  0.7288 -0.2391 -0.7319
   27CHL1   C11 1958   5.297   5.674  10.050 -0.0862 -0.0626 -0.1110
   27CHL1  H11A 1959   5.313   5.783  10.042  0.0863  0.0879  1.7301
   27CHL1  H11B 1960   5.231   5.648  10.135 -0.9142 -3.0469 -1.5352
   27CHL1    C9 1961   5.431   5.606  10.085 -0.6238  0.5788  0.6345
   27CHL1    H9 1962   5.404   5.498  10.092 -1.2576  0.7396  0.7664
   27CHL1   C10 1963   5.498   5.644  10.219  0.2541  0.2623  0.0040
   27CHL1   C19 1964   5.489   5.801  10.223 -0.2493 -0.1300 -0.1260
   27CHL1  H19A 1965   5.389   5.850  10.226  0.3878  1.2058  1.9886
   27CHL1  H19B 1966   5.531   5.849  10.314 -0.0109  1.7406 -1.1755
   27CHL1  H19C 1967   5.546   5.841  10.136 -1.6541  0.3704 -0.8529
   27CHL1    C1 1968   5.413   5.586  10.337  0.9032  0.6021 -0.4832
   27CHL1   H1A 1969   5.312   5.634  10.335  0.0257 -1.1967 -1.2300
   27CHL1   H1B 1970   5.395   5.481  10.307  0.1817  0.0682  1.6849
   27CHL1    C2 1971   5.487   5.586  10.481 -0.1077  0.1396 -0.2786
   27CHL1   H2A 1972   5.434   5.526  10.557  0.6485  0.8181  0.8198
   27CHL1   H2B 1973   5.491   5.692  10.516  0.0251  0.2798 -0.7070
   27CHL1   C20 1974   5.205   5.622   9.571 -0.9646 -0.9539 -0.4180
   27CHL1   H20 1975   5.232   5.725   9.541 -0.0073 -1.8305 -2.8638
   27CHL1   C21 1976   5.069   5.618   9.645 -0.2756 -0.0633  0.3929
   27CHL1  H21A 1977   5.072   5.547   9.730 -0.3217 -0.9854 -0.3511
   27CHL1  H21B 1978   4.982   5.595   9.580 -1.0811 -0.4318  1.5866
   27CHL1  H21C 1979   5.055   5.718   9.691  1.0145  1.8523 -2.9662
   27CHL1   C22 1980   5.196   5.553   9.440 -0.1404  0.0472 -0.0391
   27CHL1  H22A 1981   5.294   5.543   9.389 -0.3459 -2.6273 -0.0464
   27CHL1  H22B 1982   5.159   5.450   9.458  0.3641 -0.0422  0.5086
   27CHL1   C23 1983   5.095   5.615   9.336 -0.8255  0.1647 -0.4802
   27CHL1  H23A 1984   4.991   5.610   9.373 -0.3828 -3.0966  0.6261
   27CHL1  H23B 1985   5.116   5.724   9.350  0.3097  0.1871 -2.0627
   27CHL1   C24 1986   5.099   5.587   9.186 -0.0515  0.4633  0.4243
   27CHL1  H24A 1987   5.067   5.680   9.136  0.2676 -0.4266 -1.5380
   27CHL1  H24B 1988   5.205   5.568   9.158 -0.3216  1.3389 -1.3478
   27CHL1   C25 1989   5.000   5.471   9.142 -0.0568  0.5530 -0.2579
   27CHL1   H25 1990   4.994   5.390   9.218 -0.9790 -0.0571 -0.9593
   27CHL1   C26 1991   4.855   5.521   9.134  0.1050 -0.1768  0.2790
   27CHL1  H26A 1992   4.786   5.440   9.100  0.1475 -0.7275  1.4169
   27CHL1  H26B 1993   4.812   5.571   9.224 -2.2807 -0.2932 -0.7085
   27CHL1  H26C 1994   4.843   5.602   9.060  0.0890  0.9915  1.5148
   27CHL1   C27 1995   5.053   5.396   9.011 -0.6103 -0.2661  0.0719
   27CHL1  H27A 1996   5.023   5.463   8.928 -0.6709  0.4536  0.6725
   27CHL1  H27B 1997   5.162   5.380   9.025 -0.6021 -0.1698  0.1157
   27CHL1  H27C 1998   5.004   5.297   8.997 -0.2688 -0.3918 -0.2784
   28CHL1    C3 1999   5.030   3.993  10.148 -0.0531  0.3127 -0.4986
   28CHL1    H3 2000   4.923   4.013  10.128  0.0327  0.1391 -1.1545
   28CHL1    O3 2001   5.027   3.955  10.287  0.5815 -0.0107  0.1814
   28CHL1   H3' 2002   4.968   3.881  10.306  1.0174 -0.1840  0.8971
   28CHL1    C4 2003   5.072   3.867  10.073 -0.3930 -1.2397 -0.2362
   28CHL1   H4A 2004   5.177   3.840  10.098  0.3353  0.8551 -0.7500
   28CHL1   H4B 2005   5.005   3.783  10.099 -0.3592 -1.8584 -2.0106
   28CHL1    C5 2006   5.071   3.885   9.922 -0.2901  0.0805  0.0569
   28CHL1    C6 2007   5.013   3.802   9.834 -0.8198 -0.0507  0.9833
   28CHL1    H6 2008   4.972   3.706   9.870  0.2895 -1.5660 -1.5728
   28CHL1    C7 2009   5.008   3.818   9.686  0.3875 -0.0186  0.6754
   28CHL1   H7A 2010   5.053   3.726   9.642 -0.5583  0.0971 -0.6056
   28CHL1   H7B 2011   4.902   3.827   9.652  0.4196  1.6461  0.9395
   28CHL1    C8 2012   5.096   3.929   9.635 -0.5744 -0.3888 -0.0708
   28CHL1    H8 2013   5.202   3.896   9.625  0.5338  3.0861 -0.9604
   28CHL1   C14 2014   5.050   3.964   9.492 -0.2844 -0.2283 -0.5143
   28CHL1   H14 2015   4.959   4.023   9.515  1.0085  1.6296  0.0334
   28CHL1   C15 2016   5.011   3.861   9.390  0.6477 -0.5895  0.1286
   28CHL1  H15A 2017   5.074   3.770   9.381 -0.3950 -1.4059  0.7763
   28CHL1  H15B 2018   4.909   3.836   9.426 -0.7054  1.1899 -2.1530
   28CHL1   C16 2019   5.016   3.943   9.259 -0.2585  0.3123  0.7048
   28CHL1  H16A 2020   5.089   3.894   9.190 -1.8160 -2.5042  0.9037
   28CHL1  H16B 2021   4.923   3.952   9.199  0.1702  0.8109  0.0976
   28CHL1   C17 2022   5.060   4.085   9.291  0.2845  0.1086  0.8140
   28CHL1   H17 2023   4.971   4.145   9.319  0.4218  1.0233 -0.6084
   28CHL1   C13 2024   5.139   4.072   9.420  0.0845  0.1200 -0.4703
   28CHL1   C18 2025   5.287   4.015   9.391  0.7907  0.0006 -0.5384
   28CHL1  H18A 2026   5.351   4.093   9.345 -1.4412  1.1971 -1.8250
   28CHL1  H18B 2027   5.323   3.965   9.484 -0.3409  0.8667  0.4126
   28CHL1  H18C 2028   5.270   3.933   9.319 -1.0401 -0.3353  0.2043
   28CHL1   C12 2029   5.148   4.199   9.508  0.4244  0.5221  0.1212
   28CHL1  H12A 2030   5.218   4.270   9.459 -0.7391  1.2162 -0.5751
   28CHL1  H12B 2031   5.055   4.259   9.515 -0.0853 -0.4884  4.4842
   28CHL1   C11 2032   5.191   4.166   9.660  0.5075 -0.2621  0.5308
   28CHL1  H11A 2033   5.290   4.116   9.664  0.8740  0.5277  1.5180
   28CHL1  H11B 2034   5.193   4.262   9.715  0.8481  1.3874 -2.1412
   28CHL1    C9 2035   5.102   4.055   9.725 -0.1630 -0.1539  0.2623
   28CHL1    H9 2036   5.002   4.103   9.721  0.5250  1.3408  0.3973
   28CHL1   C10 2037   5.134   4.016   9.874 -0.1368  0.0486  0.4629
   28CHL1   C19 2038   5.282   3.992   9.877 -0.2813  0.2122 -0.1220
   28CHL1  H19A 2039   5.319   3.914   9.807 -1.5861  0.6034 -1.2941
   28CHL1  H19B 2040   5.335   4.088   9.858  0.7435 -0.4319 -0.5779
   28CHL1  H19C 2041   5.314   3.958   9.978 -0.3917  0.9799  0.1817
   28CHL1    C1 2042   5.094   4.138   9.962 -0.4179 -0.1554  0.1637
   28CHL1   H1A 2043   5.150   4.232   9.944 -0.4894 -0.0469  0.4920
   28CHL1   H1B 2044   4.987   4.156   9.937 -0.4094 -2.9006 -2.3536
   28CHL1    C2 2045   5.114   4.113  10.113  0.1290  0.3841 -0.6339
   28CHL1   H2A 2046   5.093   4.207  10.168 -2.9401 -0.4096 -0.2689
   28CHL1   H2B 2047   5.222   4.097  10.134  0.0469  2.7264  2.2959
   28CHL1   C20 2048   5.127   4.159   9.172  0.8143 -0.1317  0.3914
   28CHL1   H20 2049   5.221   4.109   9.143  0.8616  1.0503 -1.7147
   28CHL1   C21 2050   5.160   4.308   9.201 -0.5134 -0.1230  0.1892
   28CHL1  H21A 2051   5.085   4.359   9.266 -0.9486 -2.5930  1.7384
   28CHL1  H21B 2052   5.175   4.362   9.105 -0.4910  1.7097  1.1706
   28CHL1  H21C 2053   5.261   4.309   9.247 -0.6862 -0.7416  0.5958
   28CHL1   C22 2054   5.040   4.149   9.044 -0.0538 -0.0455  0.3596
   28CHL1  H22A 2055   5.098   4.206   8.968 -0.8796 -1.4143 -1.4016
   28CHL1  H22B 2056   5.042   4.040   9.019  3.5290 -0.0174  0.0849
   28CHL1   C23 2057   4.894   4.202   9.062  0.0331 -0.9138 -0.0651
   28CHL1  H23A 2058   4.843   4.133   9.133 -1.0232 -1.9612 -1.7936
   28CHL1  H23B 2059   4.894   4.304   9.107  0.6278 -0.8584 -0.1806
   28CHL1   C24 2060   4.814   4.191   8.935 -0.3917  0.5787 -0.6967
   28CHL1  H24A 2061   4.808   4.086   8.901 -0.1023  0.2013  0.3720
   28CHL1  H24B 2062   4.708   4.224   8.944 -0.4793 -0.1627  1.4482
   28CHL1   C25 2063   4.875   4.262   8.810 -0.1105 -0.1821 -0.0569
   28CHL1   H25 2064   4.978   4.220   8.802  0.0765  0.4184 -0.9624
   28CHL1   C26 2065   4.788   4.230   8.695  0.0662  0.1678  0.1270
   28CHL1  H26A 2066   4.825   4.276   8.601  3.7091  1.0410  1.8405
   28CHL1  H26B 2067   4.781   4.119   8.685  1.2315 -0.2676  3.1945
   28CHL1  H26C 2068   4.685   4.267   8.718 -0.1780  0.5333 -1.4287
   28CHL1   C27 2069   4.891   4.422   8.809  0.0466 -0.1499  0.3217
   28CHL1  H27A 2070   4.943   4.448   8.715  1.8118 -3.3361  0.2913
   28CHL1  H27B 2071   4.793   4.473   8.820  0.3860  0.4638  0.5299
   28CHL1  H27C 2072   4.953   4.454   8.895  0.9633 -1.2194  0.0902
   29CHL1    C3 2073   1.406   5.424   6.871 -0.5582 -0.0187  0.3163
   29CHL1    H3 2074   1.505   5.384   6.899 -0.0667 -1.3059 -2.8705
   29CHL1    O3 2075   1.415   5.429   6.735 -0.0366  0.4007 -0.1976
   29CHL1   H3' 2076   1.322   5.429   6.711 -0.1753  1.1160  0.2832
   29CHL1    C4 2077   1.299   5.322   6.916  0.3361  0.6509 -0.6444
   29CHL1   H4A 2078   1.197   5.349   6.881  0.0314 -0.0037 -0.2941
   29CHL1   H4B 2079   1.326   5.228   6.863  0.5671  0.9556 -1.0683
   29CHL1    C5 2080   1.290   5.313   7.066  0.1769 -0.0442 -0.1389
   29CHL1    C6 2081   1.309   5.197   7.130 -0.0117  0.0871  0.6010
   29CHL1    H6 2082   1.331   5.110   7.066  1.5802  1.2984 -0.5998
   29CHL1    C7 2083   1.294   5.180   7.278  0.5884  0.1117 -1.0968
   29CHL1   H7A 2084   1.234   5.087   7.295  1.4422 -0.0338  1.5846
   29CHL1   H7B 2085   1.391   5.154   7.326  0.0955  2.4279  1.4306
   29CHL1    C8 2086   1.227   5.304   7.334  0.2576  0.0390 -0.0303
   29CHL1    H8 2087   1.123   5.291   7.296 -1.2767 -0.9191  4.0271
   29CHL1   C14 2088   1.226   5.299   7.484  0.2266 -0.0325  0.3325
   29CHL1   H14 2089   1.328   5.305   7.527 -0.9877  1.7564  3.2135
   29CHL1   C15 2090   1.164   5.172   7.549 -0.3998  0.7050 -0.5181
   29CHL1  H15A 2091   1.076   5.147   7.487 -0.3193  0.3778 -0.5021
   29CHL1  H15B 2092   1.236   5.088   7.554 -1.6745 -0.3779  0.1971
   29CHL1   C16 2093   1.119   5.218   7.686 -0.2921 -0.3187  0.0607
   29CHL1  H16A 2094   1.011   5.201   7.705 -0.5591  0.0999 -1.0579
   29CHL1  H16B 2095   1.173   5.158   7.763 -1.7146 -0.7121  0.7781
   29CHL1   C17 2096   1.154   5.371   7.698 -0.6882  0.0583  0.1040
   29CHL1   H17 2097   1.261   5.368   7.729 -0.9800  0.9883  1.2828
   29CHL1   C13 2098   1.162   5.424   7.550 -0.2288  0.0799 -0.4803
   29CHL1   C18 2099   1.014   5.454   7.496  0.3255 -0.5696 -0.4161
   29CHL1  H18A 2100   0.975   5.555   7.524  1.1218  0.2928 -2.2522
   29CHL1  H18B 2101   0.998   5.465   7.387 -1.4654  0.7960 -0.0682
   29CHL1  H18C 2102   0.940   5.379   7.530  2.5132 -3.2446 -1.2070
   29CHL1   C12 2103   1.270   5.537   7.522 -0.0343 -0.2232 -0.2316
   29CHL1  H12A 2104   1.246   5.628   7.582 -0.2757 -0.4290 -0.0125
   29CHL1  H12B 2105   1.365   5.493   7.558 -0.0883 -2.2218 -2.3458
   29CHL1   C11 2106   1.279   5.565   7.371  0.7222 -0.7143  0.0303
   29CHL1  H11A 2107   1.184   5.618   7.350 -0.3743 -2.3294  0.7121
   29CHL1  H11B 2108   1.364   5.636   7.357  0.0617  0.5660  1.9346
   29CHL1    C9 2109   1.296   5.439   7.289 -0.2863 -0.6397 -0.2202
   29CHL1    H9 2110   1.402   5.407   7.301  0.4427  1.6577 -0.0576
   29CHL1   C10 2111   1.274   5.448   7.138 -0.0191 -0.2767  0.1468
   29CHL1   C19 2112   1.138   5.512   7.111  0.4391 -0.2291  0.2047
   29CHL1  H19A 2113   1.064   5.460   7.175  0.3910 -0.9598 -0.4390
   29CHL1  H19B 2114   1.138   5.621   7.132  0.3858  0.2380 -1.9929
   29CHL1  H19C 2115   1.110   5.508   7.004  2.5270  0.6402 -0.4250
   29CHL1    C1 2116   1.375   5.552   7.086 -0.7387 -0.4377  0.2851
   29CHL1   H1A 2117   1.373   5.654   7.130  1.3038 -1.0548  1.9815
   29CHL1   H1B 2118   1.478   5.523   7.114 -1.3133 -0.5608  2.4488
   29CHL1    C2 2119   1.376   5.562   6.930 -0.0610  0.4875  0.0380
   29CHL1   H2A 2120   1.456   5.637   6.912 -1.4799  2.1637  0.4359
   29CHL1   H2B 2121   1.275   5.601   6.904 -0.9908  1.3847  4.2852
   29CHL1   C20 2122   1.079   5.448   7.808 -0.2177 -0.1414 -0.5133
   29CHL1   H20 2123   0.970   5.443   7.784 -1.1438 -2.3125  3.4031
   29CHL1   C21 2124   1.135   5.589   7.822  0.3652  0.5757 -0.2853
   29CHL1  H21A 2125   1.101   5.639   7.915  2.7261  1.0117  0.4002
   29CHL1  H21B 2126   1.107   5.636   7.725  3.0394 -0.1341 -1.4906
   29CHL1  H21C 2127   1.246   5.588   7.815  0.3708 -1.0776 -0.5464
   29CHL1   C22 2128   1.096   5.379   7.946 -0.2116 -0.8070 -0.1744
   29CHL1  H22A 2129   1.077   5.270   7.940 -2.5413 -0.6352  2.2491
   29CHL1  H22B 2130   1.204   5.401   7.961 -0.2672  1.8366 -2.8403
   29CHL1   C23 2131   1.002   5.423   8.060  0.5000 -0.5447  0.4096
   29CHL1  H23A 2132   1.024   5.528   8.088 -1.3539  0.1434 -0.5571
   29CHL1  H23B 2133   0.894   5.416   8.036  0.6601  0.3509 -0.6106
   29CHL1   C24 2134   1.024   5.342   8.190 -0.1367  0.4159 -0.2959
   29CHL1  H24A 2135   1.018   5.236   8.158  1.5746  0.5104 -1.0744
   29CHL1  H24B 2136   1.129   5.369   8.215 -0.4584  1.4810 -0.0200
   29CHL1   C25 2137   0.930   5.392   8.306  1.0151 -0.2991  0.5862
   29CHL1   H25 2138   0.938   5.502   8.310  1.7768 -0.3527  0.9315
   29CHL1   C26 2139   0.785   5.357   8.289  0.4376 -0.3998  0.1356
   29CHL1  H26A 2140   0.783   5.248   8.268  1.2827  0.1318 -3.4557
   29CHL1  H26B 2141   0.718   5.391   8.370 -0.7898 -1.1269 -0.5430
   29CHL1  H26C 2142   0.745   5.397   8.193 -0.4617  0.3951  0.8239
   29CHL1   C27 2143   0.979   5.326   8.436 -0.0603  0.1962 -0.0948
   29CHL1  H27A 2144   1.078   5.365   8.468  0.4890 -0.8484 -0.4822
   29CHL1  H27B 2145   0.906   5.355   8.514  1.5170  3.4106  0.3429
   29CHL1  H27C 2146   0.984   5.216   8.426 -1.5254  0.1776 -0.9589
   30CHL1    C3 2147   1.626   1.932   7.022  0.4859  0.0869  0.1410
   30CHL1    H3 2148   1.731   1.897   7.029  0.4346 -0.3579 -1.0415
   30CHL1    O3 2149   1.595   1.976   6.888 -0.8662  0.5071  0.2593
   30CHL1   H3' 2150   1.646   2.055   6.868  0.1477  0.0492  0.9691
   30CHL1    C4 2151   1.535   1.815   7.053 -0.6706 -0.2516  0.3209
   30CHL1   H4A 2152   1.426   1.828   7.038 -0.6487  1.8256  1.6256
   30CHL1   H4B 2153   1.571   1.736   6.983 -2.3125  0.5492 -1.5095
   30CHL1    C5 2154   1.566   1.768   7.189  0.3834 -0.4235 -0.0321
   30CHL1    C6 2155   1.599   1.636   7.208 -0.5117 -0.1094 -0.4471
   30CHL1    H6 2156   1.609   1.575   7.117 -0.3176 -0.2183 -0.3557
   30CHL1    C7 2157   1.617   1.570   7.347  0.3284 -0.8621 -0.3922
   30CHL1   H7A 2158   1.554   1.478   7.348  0.1796 -0.7642  0.9762
   30CHL1   H7B 2159   1.723   1.545   7.370  0.1432 -1.1433  0.1884
   30CHL1    C8 2160   1.576   1.665   7.461 -0.3013  0.9019 -0.0164
   30CHL1    H8 2161   1.465   1.660   7.469 -0.2301 -0.8040  0.3881
   30CHL1   C14 2162   1.625   1.617   7.601 -0.9005  0.4453 -0.0111
   30CHL1   H14 2163   1.735   1.627   7.593 -0.9423 -0.2698 -2.5693
   30CHL1   C15 2164   1.594   1.467   7.642  0.1374 -0.0509  0.0409
   30CHL1  H15A 2165   1.490   1.456   7.602  0.1929 -1.8559  0.3187
   30CHL1  H15B 2166   1.659   1.397   7.586 -0.4383 -1.0922  0.6362
   30CHL1   C16 2167   1.611   1.463   7.791  0.7208  0.7268  0.3673
   30CHL1  H16A 2168   1.517   1.420   7.833  1.4894 -1.6126 -0.1839
   30CHL1  H16B 2169   1.691   1.393   7.822 -0.1744 -0.6122 -0.2587
   30CHL1   C17 2170   1.643   1.619   7.840 -0.0877 -0.1904 -0.2064
   30CHL1   H17 2171   1.754   1.618   7.853 -0.3613 -1.1218  2.4633
   30CHL1   C13 2172   1.591   1.699   7.723  0.1728 -0.1402 -0.1584
   30CHL1   C18 2173   1.434   1.704   7.738 -0.2344 -0.0773 -0.4333
   30CHL1  H18A 2174   1.389   1.611   7.778  0.3606 -0.2612 -0.1851
   30CHL1  H18B 2175   1.411   1.793   7.801 -1.3938  0.4954 -1.6217
   30CHL1  H18C 2176   1.383   1.732   7.643 -2.1819 -0.3779  0.4689
   30CHL1   C12 2177   1.649   1.842   7.701  0.1442  0.1588  0.2757
   30CHL1  H12A 2178   1.633   1.915   7.783  0.8699 -1.4953  2.0048
   30CHL1  H12B 2179   1.757   1.837   7.673 -0.6035  0.7470 -3.0921
   30CHL1   C11 2180   1.593   1.899   7.563  0.3143 -0.4703  0.0952
   30CHL1  H11A 2181   1.484   1.911   7.580  0.0822 -0.2672 -1.4072
   30CHL1  H11B 2182   1.626   2.005   7.552  0.1467 -0.3857  0.3879
   30CHL1    C9 2183   1.618   1.810   7.438 -0.5607  0.1634 -0.3636
   30CHL1    H9 2184   1.726   1.805   7.413 -0.4193 -1.2291  0.4144
   30CHL1   C10 2185   1.555   1.867   7.306  0.5534 -0.1863 -0.0850
   30CHL1   C19 2186   1.401   1.892   7.328  0.0609  0.2528  0.3769
   30CHL1  H19A 2187   1.349   1.917   7.233  0.7120 -2.0547 -0.6747
   30CHL1  H19B 2188   1.349   1.798   7.355  1.2560 -0.1948  1.1776
   30CHL1  H19C 2189   1.386   1.968   7.407 -0.2716  0.5792  0.0090
   30CHL1    C1 2190   1.624   2.005   7.268  0.3231  0.1231  0.4322
   30CHL1   H1A 2191   1.598   2.094   7.331 -0.0847  0.2956  0.0261
   30CHL1   H1B 2192   1.733   1.989   7.279  0.3371  0.2187  0.4374
   30CHL1    C2 2193   1.601   2.046   7.113  0.3502  0.0023 -0.7974
   30CHL1   H2A 2194   1.675   2.123   7.084  0.1256 -0.0030 -1.4001
   30CHL1   H2B 2195   1.499   2.089   7.111  0.3287 -0.0188 -0.2865
   30CHL1   C20 2196   1.593   1.645   7.990 -0.1244  0.6500  1.0047
   30CHL1   H20 2197   1.486   1.619   7.991 -0.0184  0.2171  1.1781
   30CHL1   C21 2198   1.598   1.790   8.027 -0.1006 -0.8529 -0.4253
   30CHL1  H21A 2199   1.582   1.799   8.136  2.5711 -0.1881 -0.0218
   30CHL1  H21B 2200   1.516   1.846   7.975 -1.1075 -2.2881 -0.4243
   30CHL1  H21C 2201   1.698   1.838   8.019 -0.8073  0.9660  1.0289
   30CHL1   C22 2202   1.678   1.556   8.089  0.1419  0.2427 -0.3793
   30CHL1  H22A 2203   1.693   1.455   8.044  0.3804  1.1640 -2.4875
   30CHL1  H22B 2204   1.784   1.587   8.099  0.5352 -0.8013 -1.1012
   30CHL1   C23 2205   1.616   1.529   8.231 -0.0298 -0.1443 -0.5377
   30CHL1  H23A 2206   1.617   1.625   8.288 -1.1963  0.9749 -2.2974
   30CHL1  H23B 2207   1.516   1.486   8.211 -1.8499  3.1367  0.7115
   30CHL1   C24 2208   1.698   1.425   8.315  0.3631 -0.1283 -0.3679
   30CHL1  H24A 2209   1.704   1.329   8.260  1.5639  0.1828 -0.8124
   30CHL1  H24B 2210   1.797   1.470   8.337 -0.9457  3.2329 -0.7826
   30CHL1   C25 2211   1.636   1.380   8.451  0.9308  0.3867  0.6684
   30CHL1   H25 2212   1.548   1.319   8.418  2.7440 -2.3793  0.6019
   30CHL1   C26 2213   1.720   1.281   8.528 -0.4814 -0.8347  0.3707
   30CHL1  H26A 2214   1.821   1.315   8.559 -1.2409  0.2895  1.7090
   30CHL1  H26B 2215   1.669   1.249   8.622 -0.2854 -2.5466 -0.0655
   30CHL1  H26C 2216   1.743   1.192   8.466  0.2268 -0.8493  0.6429
   30CHL1   C27 2217   1.574   1.499   8.537 -0.4329 -0.3058  0.1410
   30CHL1  H27A 2218   1.478   1.532   8.493 -0.1976  2.1650  1.3033
   30CHL1  H27B 2219   1.561   1.470   8.644  0.3308  2.2963  1.0184
   30CHL1  H27C 2220   1.644   1.585   8.536  0.5237 -1.0176  1.6843
   31CHL1    C3 2221   1.324   4.056   6.872 -1.2600 -0.0901 -0.0104
   31CHL1    H3 2222   1.278   3.955   6.873 -4.6383  1.2971 -0.7470
   31CHL1    O3 2223   1.311   4.103   6.739 -0.1983 -0.5387  0.6610
   31CHL1   H3' 2224   1.399   4.124   6.705 -0.8544  0.2353 -0.6135
   31CHL1    C4 2225   1.241   4.148   6.957  0.1154 -0.1792  0.6310
   31CHL1   H4A 2226   1.274   4.251   6.935  0.0712 -0.2907  0.0079
   31CHL1   H4B 2227   1.140   4.164   6.912  1.1978  2.5696 -1.0371
   31CHL1    C5 2228   1.239   4.104   7.105  0.0847  0.6425  0.7542
   31CHL1    C6 2229   1.121   4.081   7.174  0.2832 -0.1496 -1.0182
   31CHL1    H6 2230   1.026   4.088   7.120 -0.2787 -1.0535 -0.1705
   31CHL1    C7 2231   1.116   4.057   7.322 -0.5153  0.1855  0.1578
   31CHL1   H7A 2232   1.034   4.115   7.371  0.3152  0.3611  1.3592
   31CHL1   H7B 2233   1.108   3.947   7.336  2.3156 -0.6963 -3.5447
   31CHL1    C8 2234   1.255   4.092   7.385 -0.0363  0.0832 -0.5353
   31CHL1    H8 2235   1.266   4.203   7.390 -0.4186  0.1083 -0.2261
   31CHL1   C14 2236   1.270   4.036   7.531 -0.5190 -0.2670  0.7179
   31CHL1   H14 2237   1.273   3.925   7.527  1.9625 -0.2779  0.8608
   31CHL1   C15 2238   1.156   4.064   7.620  0.7825 -0.2248 -0.7312
   31CHL1  H15A 2239   1.129   4.171   7.611 -1.2447 -0.7903 -2.1495
   31CHL1  H15B 2240   1.064   4.003   7.607  0.3523 -0.0651  1.2475
   31CHL1   C16 2241   1.211   4.040   7.761  0.1003 -0.6234  0.4332
   31CHL1  H16A 2242   1.186   4.134   7.815 -1.0188 -1.2572  1.0661
   31CHL1  H16B 2243   1.161   3.957   7.815 -1.1373 -0.5295 -0.5122
   31CHL1   C17 2244   1.366   4.020   7.743  0.5896 -0.1334 -0.0683
   31CHL1   H17 2245   1.385   3.911   7.743  1.8913  0.0696  0.0790
   31CHL1   C13 2246   1.401   4.071   7.602  0.0620 -0.8854 -0.2202
   31CHL1   C18 2247   1.415   4.224   7.618 -0.1169  0.1403  1.0286
   31CHL1  H18A 2248   1.416   4.286   7.526 -1.6674  2.5987  2.5623
   31CHL1  H18B 2249   1.325   4.264   7.670 -1.1965 -0.6555 -0.1612
   31CHL1  H18C 2250   1.514   4.256   7.656  0.1740  2.0346 -1.1176
   31CHL1   C12 2251   1.517   4.008   7.522 -0.8732  0.4028 -0.0873
   31CHL1  H12A 2252   1.612   4.054   7.555  0.6370 -1.1850 -1.9956
   31CHL1  H12B 2253   1.513   3.898   7.535 -0.1250  0.3200 -0.5148
   31CHL1   C11 2254   1.514   4.056   7.379 -0.1819 -0.3317 -0.4711
   31CHL1  H11A 2255   1.529   4.166   7.376 -1.1873 -0.2038 -2.8478
   31CHL1  H11B 2256   1.588   3.994   7.324 -2.8551 -2.9559 -1.3777
   31CHL1    C9 2257   1.378   4.040   7.301 -0.0373 -0.2673 -0.2872
   31CHL1    H9 2258   1.359   3.931   7.286  0.7711 -0.2030 -2.0467
   31CHL1   C10 2259   1.388   4.101   7.159 -0.2888 -1.2278 -0.6003
   31CHL1   C19 2260   1.436   4.253   7.159  0.4919 -0.1106 -0.0766
   31CHL1  H19A 2261   1.369   4.300   7.235 -0.7318 -3.1690  0.9097
   31CHL1  H19B 2262   1.542   4.263   7.192 -0.4612 -0.4838  3.5087
   31CHL1  H19C 2263   1.418   4.311   7.066  1.4039 -1.3319 -1.0475
   31CHL1    C1 2264   1.481   4.024   7.072 -0.0175  0.1334 -0.8346
   31CHL1   H1A 2265   1.585   4.033   7.110 -0.5485  1.7181  0.3262
   31CHL1   H1B 2266   1.449   3.918   7.084 -2.2470  1.0277  2.5226
   31CHL1    C2 2267   1.470   4.054   6.921  0.0207 -0.6686  0.3161
   31CHL1   H2A 2268   1.530   3.982   6.862 -0.9106 -0.3997 -1.0308
   31CHL1   H2B 2269   1.519   4.152   6.905  0.6264 -1.1208 -0.6667
   31CHL1   C20 2270   1.443   4.079   7.866 -0.2993 -0.4812  0.6328
   31CHL1   H20 2271   1.438   4.190   7.867  0.8734 -0.4145 -0.0924
   31CHL1   C21 2272   1.594   4.045   7.846  0.8145  0.2444 -0.0372
   31CHL1  H21A 2273   1.590   3.935   7.862 -1.9801  0.5335  2.2874
   31CHL1  H21B 2274   1.662   4.094   7.919 -0.9692  2.2951  0.3783
   31CHL1  H21C 2275   1.637   4.085   7.752  1.7782 -2.4940 -0.8335
   31CHL1   C22 2276   1.398   4.038   8.010  0.3831 -0.4521  1.0778
   31CHL1  H22A 2277   1.294   4.078   8.016  0.8671  1.0791 -0.0946
   31CHL1  H22B 2278   1.400   3.928   8.002 -1.3088 -0.3795 -2.6119
   31CHL1   C23 2279   1.478   4.097   8.127 -0.0425  0.1224 -0.0029
   31CHL1  H23A 2280   1.588   4.083   8.121 -0.0152  0.5111 -0.4682
   31CHL1  H23B 2281   1.463   4.206   8.113 -4.5034 -0.1415  1.2275
   31CHL1   C24 2282   1.420   4.059   8.264  0.1798  0.2622  0.0829
   31CHL1  H24A 2283   1.327   4.116   8.284  0.1714 -0.4062  2.2467
   31CHL1  H24B 2284   1.384   3.954   8.268 -0.5225  0.4873 -0.1415
   31CHL1   C25 2285   1.493   4.093   8.392 -0.1796 -0.2467 -1.3429
   31CHL1   H25 2286   1.599   4.068   8.369  0.5247  1.5674 -0.2954
   31CHL1   C26 2287   1.507   4.245   8.436  0.8469  0.2624  0.0546
   31CHL1  H26A 2288   1.557   4.256   8.535 -0.7493 -1.7050  1.1571
   31CHL1  H26B 2289   1.569   4.304   8.365  1.2444  2.2894  1.9719
   31CHL1  H26C 2290   1.402   4.278   8.453  0.2562 -0.4938 -1.8542
   31CHL1   C27 2291   1.451   4.009   8.521 -0.2006 -0.6421 -0.3215
   31CHL1  H27A 2292   1.531   4.041   8.592  0.0388 -0.6827 -0.5736
   31CHL1  H27B 2293   1.458   3.899   8.507 -2.9004 -0.7425 -1.4172
   31CHL1  H27C 2294   1.356   4.055   8.558 -0.7847 -0.8037 -1.5746
   32CHL1    C3 2295   2.563   1.264   7.064 -0.5604 -0.0747 -0.0974
   32CHL1    H3 2296   2.482   1.191   7.083 -1.6869  1.8084  2.9281
   32CHL1    O3 2297   2.582   1.287   6.923  0.5568 -0.1139  0.1154
   32CHL1   H3' 2298   2.669   1.327   6.919  0.8555 -0.5433  1.6690
   32CHL1    C4 2299   2.553   1.402   7.135 -0.2923 -0.1007 -0.3644
   32CHL1   H4A 2300   2.651   1.446   7.105 -0.3854 -0.9207 -1.9569
   32CHL1   H4B 2301   2.468   1.463   7.099 -0.6691  0.1644  0.9117
   32CHL1    C5 2302   2.540   1.376   7.289 -0.8956  0.0260 -0.3344
   32CHL1    C6 2303   2.446   1.426   7.368 -0.7926 -0.6053  0.1876
   32CHL1    H6 2304   2.362   1.478   7.320 -0.3079 -1.4732 -1.7036
   32CHL1    C7 2305   2.456   1.412   7.518  0.1338  0.0932 -0.0270
   32CHL1   H7A 2306   2.425   1.510   7.560 -0.5324 -0.4004  0.6699
   32CHL1   H7B 2307   2.389   1.331   7.556  2.0940 -2.6123 -1.9652
   32CHL1    C8 2308   2.601   1.376   7.577 -0.2557  0.2679  0.0872
   32CHL1    H8 2309   2.661   1.469   7.569 -0.8310  0.6320 -0.0968
   32CHL1   C14 2310   2.586   1.330   7.718 -0.2535 -0.0612 -0.3040
   32CHL1   H14 2311   2.512   1.247   7.723 -0.1507 -0.1887 -0.8727
   32CHL1   C15 2312   2.528   1.430   7.819  0.6715 -0.5688 -0.0760
   32CHL1  H15A 2313   2.563   1.533   7.798 -1.4930 -0.1718 -2.1852
   32CHL1  H15B 2314   2.418   1.440   7.815  0.8775  2.0561 -0.8170
   32CHL1   C16 2315   2.570   1.379   7.963 -0.0307  0.1445  1.1830
   32CHL1  H16A 2316   2.627   1.464   8.006  2.3504  1.2711 -3.5397
   32CHL1  H16B 2317   2.473   1.360   8.013 -1.0034  0.6831 -0.4145
   32CHL1   C17 2318   2.667   1.258   7.939 -0.7370 -0.1213  0.0284
   32CHL1   H17 2319   2.612   1.161   7.939 -0.0841 -0.5037 -1.0250
   32CHL1   C13 2320   2.716   1.281   7.795  0.3519 -0.2596  0.2896
   32CHL1   C18 2321   2.830   1.392   7.794 -0.2295  0.0489  0.5628
   32CHL1  H18A 2322   2.932   1.354   7.814  1.2785  1.6039 -3.3115
   32CHL1  H18B 2323   2.851   1.424   7.690 -0.8051 -0.9374  0.1386
   32CHL1  H18C 2324   2.802   1.473   7.865 -0.6695  0.9949 -0.6432
   32CHL1   C12 2325   2.770   1.154   7.713  0.3035 -0.2486 -0.0521
   32CHL1  H12A 2326   2.869   1.115   7.745 -0.9994 -1.3141  3.1313
   32CHL1  H12B 2327   2.696   1.071   7.723  0.7714 -0.6953 -0.2161
   32CHL1   C11 2328   2.779   1.186   7.559  0.2686  0.2371  0.0007
   32CHL1  H11A 2329   2.859   1.263   7.560  1.3409 -0.8577  0.9926
   32CHL1  H11B 2330   2.815   1.103   7.494  1.8605  0.0640  1.0689
   32CHL1    C9 2331   2.654   1.259   7.492 -0.2005 -0.2936  0.1904
   32CHL1    H9 2332   2.577   1.179   7.497  0.3828 -0.9679 -1.1082
   32CHL1   C10 2333   2.673   1.297   7.340  0.3785 -0.4954  0.1325
   32CHL1   C19 2334   2.798   1.391   7.326  0.3469 -0.2496  0.3050
   32CHL1  H19A 2335   2.795   1.474   7.400 -0.6069 -1.8746  2.1843
   32CHL1  H19B 2336   2.880   1.329   7.369  0.6599  0.4607  0.7595
   32CHL1  H19C 2337   2.831   1.419   7.224 -0.1259  0.8908  0.4490
   32CHL1    C1 2338   2.688   1.167   7.260  0.0386 -0.1669  0.0885
   32CHL1   H1A 2339   2.783   1.115   7.286 -0.1033 -1.1282 -1.2047
   32CHL1   H1B 2340   2.614   1.090   7.289  1.9813 -1.2172  2.6588
   32CHL1    C2 2341   2.691   1.187   7.113  0.4626 -0.8254 -0.2546
   32CHL1   H2A 2342   2.705   1.094   7.055  0.3029  0.0271 -1.7179
   32CHL1   H2B 2343   2.775   1.253   7.083 -0.2720 -0.1901 -1.0029
   32CHL1   C20 2344   2.767   1.257   8.057 -0.0675 -0.4454  0.8982
   32CHL1   H20 2345   2.811   1.359   8.064 -1.4675  0.2894 -0.4000
   32CHL1   C21 2346   2.879   1.152   8.030  0.3336 -0.6870 -0.7439
   32CHL1  H21A 2347   2.841   1.048   8.020  0.2258 -0.8299  0.8393
   32CHL1  H21B 2348   2.951   1.158   8.115  0.1271  1.0311 -0.6563
   32CHL1  H21C 2349   2.940   1.182   7.942  0.3935  0.4396 -0.3243
   32CHL1   C22 2350   2.708   1.236   8.198  0.7285  0.1484  0.4291
   32CHL1  H22A 2351   2.617   1.298   8.216 -0.5775 -2.0784  1.8231
   32CHL1  H22B 2352   2.669   1.133   8.211 -3.0560  1.5326  1.1986
   32CHL1   C23 2353   2.807   1.270   8.312 -0.5015  0.2288 -0.5334
   32CHL1  H23A 2354   2.894   1.202   8.325 -0.5092  0.4654  1.0238
   32CHL1  H23B 2355   2.839   1.376   8.303 -0.9812  0.4294  0.0294
   32CHL1   C24 2356   2.729   1.258   8.446 -0.5199  0.0626 -0.1938
   32CHL1  H24A 2357   2.636   1.319   8.436 -0.0943  0.8019  0.2959
   32CHL1  H24B 2358   2.691   1.155   8.468 -0.1739  0.0596  0.3831
   32CHL1   C25 2359   2.793   1.332   8.573  0.4775  0.3445  0.3496
   32CHL1   H25 2360   2.844   1.421   8.532  2.3373 -1.1733 -0.8089
   32CHL1   C26 2361   2.685   1.378   8.677 -0.6046 -0.0741  0.8590
   32CHL1  H26A 2362   2.602   1.438   8.632 -1.2134  0.7669  2.9772
   32CHL1  H26B 2363   2.638   1.289   8.723 -0.4445 -1.7387 -1.9666
   32CHL1  H26C 2364   2.741   1.439   8.751  2.4843 -1.8597  0.1753
   32CHL1   C27 2365   2.897   1.230   8.630  0.0063  0.6862 -0.2909
   32CHL1  H27A 2366   2.981   1.281   8.682 -1.1031  1.0410  1.2517
   32CHL1  H27B 2367   2.864   1.153   8.703 -0.9678  2.3753  1.1413
   32CHL1  H27C 2368   2.943   1.174   8.546 -0.8343 -0.4018 -0.0449
   33CHL1    C3 2369   2.750   1.883   6.882  0.1534  0.1355  0.0860
   33CHL1    H3 2370   2.843   1.944   6.875 -0.5342  1.1472 -0.5095
   33CHL1    O3 2371   2.717   1.840   6.750 -0.4794 -0.9209 -0.1230
   33CHL1   H3' 2372   2.634   1.792   6.756 -0.0641 -1.5328  1.1003
   33CHL1    C4 2373   2.763   1.756   6.960  0.3259  0.4087 -0.7677
   33CHL1   H4A 2374   2.677   1.686   6.967  1.1308 -0.4502  1.4717
   33CHL1   H4B 2375   2.847   1.698   6.916  0.0398  0.9068 -2.0110
   33CHL1    C5 2376   2.802   1.782   7.104  0.0565  0.5008  0.6318
   33CHL1    C6 2377   2.905   1.717   7.163  0.3526  0.0606 -1.0833
   33CHL1    H6 2378   2.961   1.648   7.098  0.3554  0.3411 -1.3827
   33CHL1    C7 2379   2.929   1.734   7.308 -0.1870 -0.0385 -0.1913
   33CHL1   H7A 2380   2.955   1.635   7.351 -0.8695  0.3978  1.3060
   33CHL1   H7B 2381   3.025   1.786   7.327 -0.0792 -0.2628 -0.1176
   33CHL1    C8 2382   2.816   1.796   7.389 -0.3129  0.1432 -0.9031
   33CHL1    H8 2383   2.742   1.714   7.404  0.5007 -0.3174  0.8618
   33CHL1   C14 2384   2.871   1.847   7.525  0.2750  0.3624  0.0819
   33CHL1   H14 2385   2.934   1.938   7.514 -1.4282  1.7701  1.3146
   33CHL1   C15 2386   2.947   1.753   7.614 -0.3583 -0.9508  1.0913
   33CHL1  H15A 2387   2.902   1.653   7.597 -0.1214 -0.6735 -1.4667
   33CHL1  H15B 2388   3.056   1.756   7.592 -0.4972 -3.3508 -0.2313
   33CHL1   C16 2389   2.919   1.791   7.753  0.3069 -0.0919 -0.3779
   33CHL1  H16A 2390   2.869   1.700   7.793 -1.0740 -0.0592 -1.9099
   33CHL1  H16B 2391   3.012   1.814   7.808  0.8589  2.3437 -2.1796
   33CHL1   C17 2392   2.817   1.912   7.751 -0.4204 -0.3693 -0.4595
   33CHL1   H17 2393   2.881   2.003   7.741  0.5830 -1.1092 -1.0094
   33CHL1   C13 2394   2.753   1.897   7.611 -0.6982  0.0845  0.3817
   33CHL1   C18 2395   2.640   1.787   7.614 -0.6060 -0.7430 -0.0293
   33CHL1  H18A 2396   2.577   1.790   7.523  0.7652  1.1777 -0.9873
   33CHL1  H18B 2397   2.685   1.690   7.644  1.5079  1.0045  3.0400
   33CHL1  H18C 2398   2.566   1.818   7.691  1.1747 -0.0819  1.5047
   33CHL1   C12 2399   2.700   2.026   7.543  0.9072  0.3250  0.2919
   33CHL1  H12A 2400   2.618   2.074   7.600  1.4414 -0.7092  2.0204
   33CHL1  H12B 2401   2.785   2.097   7.539  1.8904 -0.7616  1.1118
   33CHL1   C11 2402   2.652   1.999   7.399  0.3969  0.3709  0.6088
   33CHL1  H11A 2403   2.553   1.947   7.400  0.1807  0.7028 -0.9911
   33CHL1  H11B 2404   2.647   2.098   7.350  0.7252  0.0524 -0.0804
   33CHL1    C9 2405   2.756   1.917   7.313  0.2970  0.3498 -0.2274
   33CHL1    H9 2406   2.840   1.987   7.296 -0.2005  1.2311  0.8295
   33CHL1   C10 2407   2.697   1.870   7.175  0.4675  0.2860 -0.0899
   33CHL1   C19 2408   2.565   1.784   7.193 -0.2191 -0.7290 -0.3458
   33CHL1  H19A 2409   2.586   1.694   7.253 -1.0099 -0.0069  1.0677
   33CHL1  H19B 2410   2.483   1.833   7.250 -1.4287 -3.1647  0.1414
   33CHL1  H19C 2411   2.525   1.763   7.091 -2.4004 -0.8688  0.4903
   33CHL1    C1 2412   2.668   1.995   7.094 -0.0088  0.1829  0.7919
   33CHL1   H1A 2413   2.580   2.051   7.131 -1.5430 -0.3271 -1.8533
   33CHL1   H1B 2414   2.746   2.075   7.100 -0.5513  0.7233  0.6796
   33CHL1    C2 2415   2.638   1.964   6.948  0.0490  0.5060  0.5240
   33CHL1   H2A 2416   2.627   2.055   6.886  3.6602 -1.0706 -2.8657
   33CHL1   H2B 2417   2.540   1.912   6.939 -0.0324  0.3203  2.0934
   33CHL1   C20 2418   2.728   1.930   7.874 -0.2159 -0.8825 -0.3856
   33CHL1   H20 2419   2.648   1.852   7.875 -1.6498  0.4994  1.8241
   33CHL1   C21 2420   2.661   2.070   7.870 -0.2508  0.2963 -0.3477
   33CHL1  H21A 2421   2.590   2.078   7.785 -0.6648 -1.7730 -0.2414
   33CHL1  H21B 2422   2.746   2.141   7.865  0.5213 -0.5486  0.3155
   33CHL1  H21C 2423   2.604   2.091   7.963 -0.1968  1.9945 -0.6667
   33CHL1   C22 2424   2.816   1.919   8.001  0.3547 -0.0677  0.1499
   33CHL1  H22A 2425   2.882   1.830   8.008  0.4814 -0.0830 -1.0180
   33CHL1  H22B 2426   2.893   1.998   7.986  0.8139 -0.6104 -0.4341
   33CHL1   C23 2427   2.746   1.917   8.135  0.2895 -0.4030 -0.1700
   33CHL1  H23A 2428   2.700   2.017   8.151 -0.2690 -0.6980  0.1046
   33CHL1  H23B 2429   2.654   1.855   8.123 -1.4284  2.1445 -0.9481
   33CHL1   C24 2430   2.836   1.882   8.249 -0.1235  0.3014 -0.6818
   33CHL1  H24A 2431   2.868   1.776   8.243 -1.4282 -0.2445  1.1888
   33CHL1  H24B 2432   2.923   1.950   8.233 -0.5695  1.1983  0.5678
   33CHL1   C25 2433   2.769   1.898   8.391  0.0868  0.3478 -0.0304
   33CHL1   H25 2434   2.731   2.002   8.399  1.6679  0.8944  0.8381
   33CHL1   C26 2435   2.658   1.792   8.415 -0.1612  0.0506  0.5556
   33CHL1  H26A 2436   2.697   1.690   8.392  0.2853  0.7066 -1.8314
   33CHL1  H26B 2437   2.616   1.798   8.518  0.0838  1.4862  0.5952
   33CHL1  H26C 2438   2.581   1.822   8.342  3.8167  1.4441 -3.5085
   33CHL1   C27 2439   2.871   1.890   8.504 -0.3459  0.1294 -0.4732
   33CHL1  H27A 2440   2.823   1.924   8.598 -0.4415 -1.3584  0.0496
   33CHL1  H27B 2441   2.900   1.786   8.533 -1.1106 -0.6937 -2.4655
   33CHL1  H27C 2442   2.954   1.960   8.482 -2.9950  4.2281  1.4708
   34CHL1    C3 2443   4.501   2.471   7.085 -0.6052  0.3056  0.0717
   34CHL1    H3 2444   4.542   2.570   7.114 -1.6508  0.9676 -0.6624
   34CHL1    O3 2445   4.462   2.466   6.946  0.5430 -0.2857  0.1086
   34CHL1   H3' 2446   4.372   2.499   6.947  0.9404  0.8082  0.4123
   34CHL1    C4 2447   4.609   2.363   7.108 -0.1070 -0.8712 -0.0467
   34CHL1   H4A 2448   4.564   2.266   7.078  0.2965 -0.8299 -0.8059
   34CHL1   H4B 2449   4.701   2.391   7.053  0.0129 -0.1019  0.5393
   34CHL1    C5 2450   4.646   2.360   7.261  0.5957  0.3260  0.9391
   34CHL1    C6 2451   4.772   2.377   7.303  1.0690 -0.5731  0.0553
   34CHL1    H6 2452   4.862   2.386   7.241  2.1075 -2.9123  1.1058
   34CHL1    C7 2453   4.806   2.365   7.448 -0.4530 -0.2040  0.5107
   34CHL1   H7A 2454   4.891   2.296   7.466  0.8123  1.2573  0.3032
   34CHL1   H7B 2455   4.823   2.469   7.484 -1.1435  0.5517 -1.1817
   34CHL1    C8 2456   4.697   2.300   7.534 -0.4908  0.0779 -0.2912
   34CHL1    H8 2457   4.676   2.193   7.513 -5.1933  1.1071 -1.8803
   34CHL1   C14 2458   4.734   2.322   7.688 -0.0004  0.0070 -0.5715
   34CHL1   H14 2459   4.731   2.432   7.699  0.2676 -0.0409  0.0162
   34CHL1   C15 2460   4.882   2.281   7.727  0.4716  0.3762  0.4947
   34CHL1  H15A 2461   4.909   2.186   7.677  0.0968 -0.6022  2.0691
   34CHL1  H15B 2462   4.949   2.365   7.698 -0.6932  1.1535 -0.0132
   34CHL1   C16 2463   4.870   2.267   7.879 -0.0611 -0.2202 -0.5038
   34CHL1  H16A 2464   4.886   2.158   7.890 -2.3807 -0.9585 -3.2564
   34CHL1  H16B 2465   4.934   2.339   7.935 -0.5042  0.5533 -0.9661
   34CHL1   C17 2466   4.715   2.292   7.914 -0.9558 -0.1095  0.3014
   34CHL1   H17 2467   4.712   2.401   7.932  2.2029  0.5563 -2.1991
   34CHL1   C13 2468   4.630   2.260   7.785 -0.4969  0.1281 -0.8963
   34CHL1   C18 2469   4.629   2.106   7.776  0.0156 -0.4673 -0.0166
   34CHL1  H18A 2470   4.558   2.071   7.854  1.4685 -1.6135  0.8578
   34CHL1  H18B 2471   4.590   2.071   7.678 -0.3814 -0.2676  0.0657
   34CHL1  H18C 2472   4.726   2.055   7.796  1.3210  1.0272 -2.1244
   34CHL1   C12 2473   4.500   2.327   7.764  0.1197 -0.1662  0.5449
   34CHL1  H12A 2474   4.412   2.291   7.822 -1.1157  2.0417  0.1613
   34CHL1  H12B 2475   4.517   2.436   7.774 -0.2020  0.0657 -1.1523
   34CHL1   C11 2476   4.458   2.308   7.616 -0.3861 -0.3539  0.4967
   34CHL1  H11A 2477   4.437   2.199   7.607  0.4404 -0.4106 -1.0235
   34CHL1  H11B 2478   4.367   2.372   7.608 -0.3651 -0.1097  1.9381
   34CHL1    C9 2479   4.560   2.358   7.508  0.2529  0.3569  0.6080
   34CHL1    H9 2480   4.564   2.469   7.517  1.1654  0.3400  0.4862
   34CHL1   C10 2481   4.519   2.339   7.359 -0.2310 -0.0460  0.6362
   34CHL1   C19 2482   4.462   2.189   7.338 -0.2748 -0.7153 -0.5099
   34CHL1  H19A 2483   4.528   2.118   7.394 -1.2207  0.3910  2.1825
   34CHL1  H19B 2484   4.366   2.170   7.391 -0.2824  0.0293 -0.2526
   34CHL1  H19C 2485   4.451   2.154   7.233  0.3032  0.6095 -1.0365
   34CHL1    C1 2486   4.420   2.455   7.320 -0.2667 -0.0904  0.2989
   34CHL1   H1A 2487   4.325   2.445   7.377 -1.4644 -0.7401 -1.7361
   34CHL1   H1B 2488   4.465   2.553   7.349  1.2551 -0.4100 -0.8461
   34CHL1    C2 2489   4.381   2.457   7.175  0.4487 -0.1305  0.4532
   34CHL1   H2A 2490   4.314   2.542   7.151  1.1138  0.1908 -0.2857
   34CHL1   H2B 2491   4.329   2.361   7.156  1.4112 -0.0463 -3.5141
   34CHL1   C20 2492   4.661   2.232   8.048  0.2252  0.4189  1.1209
   34CHL1   H20 2493   4.612   2.133   8.057 -0.9804  1.2130  5.7878
   34CHL1   C21 2494   4.558   2.335   8.094  0.1473 -0.2701 -0.5115
   34CHL1  H21A 2495   4.479   2.358   8.019 -1.7688 -2.5425  0.6855
   34CHL1  H21B 2496   4.617   2.427   8.113  1.8146 -1.5142  0.6148
   34CHL1  H21C 2497   4.503   2.310   8.188  0.2561 -1.6947 -0.8132
   34CHL1   C22 2498   4.775   2.212   8.147  0.1958  0.3149  0.2565
   34CHL1  H22A 2499   4.844   2.128   8.124  1.0824  0.5471  1.8857
   34CHL1  H22B 2500   4.834   2.306   8.155  1.3325 -0.0984 -2.2385
   34CHL1   C23 2501   4.722   2.179   8.291 -0.6485 -0.3116  0.1085
   34CHL1  H23A 2502   4.642   2.248   8.324 -0.4474 -0.6399  1.3376
   34CHL1  H23B 2503   4.680   2.077   8.304 -2.6487  0.4866  0.2715
   34CHL1   C24 2504   4.831   2.175   8.394  0.2979 -0.5311  0.3383
   34CHL1  H24A 2505   4.888   2.271   8.394 -1.4896  0.5817 -1.2614
   34CHL1  H24B 2506   4.788   2.171   8.496  1.8198 -2.0349  0.9810
   34CHL1   C25 2507   4.952   2.076   8.376  0.0638 -0.3972 -0.0476
   34CHL1   H25 2508   4.983   2.070   8.269  0.5594  1.3437 -0.0405
   34CHL1   C26 2509   5.080   2.130   8.454 -0.0754 -0.0796 -0.3001
   34CHL1  H26A 2510   5.161   2.055   8.445  0.7477  0.4063  2.1813
   34CHL1  H26B 2511   5.114   2.227   8.413 -0.0995  1.4434  2.9840
   34CHL1  H26C 2512   5.054   2.149   8.560 -2.7595 -0.6483 -0.7921
   34CHL1   C27 2513   4.921   1.940   8.414  0.4724  0.5853  0.5443
   34CHL1  H27A 2514   4.835   1.886   8.370  0.9787 -0.0355  0.3107
   34CHL1  H27B 2515   5.005   1.869   8.401 -1.5045 -1.9086  0.4052
   34CHL1  H27C 2516   4.921   1.934   8.525 -0.5420  0.2726  0.5365
   35CHL1    C3 2517   1.969   3.862   7.095 -0.0221 -0.1499 -1.1612
   35CHL1    H3 2518   1.945   3.963   7.133  0.5620 -0.4948  0.2070
   35CHL1    O3 2519   1.971   3.872   6.957  0.0892  0.0295  0.1670
   35CHL1   H3' 2520   2.035   3.941   6.940  2.2494 -2.2624 -1.9065
   35CHL1    C4 2521   2.101   3.812   7.154 -0.4387 -0.0369 -0.3930
   35CHL1   H4A 2522   2.119   3.719   7.095  0.3080 -0.1214 -0.0447
   35CHL1   H4B 2523   2.181   3.884   7.129  0.1685 -0.5916 -0.0843
   35CHL1    C5 2524   2.102   3.803   7.309  0.6118  0.9416  0.0721
   35CHL1    C6 2525   2.187   3.868   7.390 -0.5677  0.1731 -0.3677
   35CHL1    H6 2526   2.269   3.924   7.342  1.8004 -0.6691  2.4060
   35CHL1    C7 2527   2.190   3.862   7.542  0.3729  0.8204 -0.0404
   35CHL1   H7A 2528   2.289   3.837   7.585 -0.4768 -0.4822  1.2582
   35CHL1   H7B 2529   2.144   3.953   7.587 -2.0866 -1.1115  1.6644
   35CHL1    C8 2530   2.086   3.758   7.599  0.0580  0.6803 -0.2354
   35CHL1    H8 2531   2.129   3.656   7.599 -0.4990  0.4049  1.3716
   35CHL1   C14 2532   2.065   3.784   7.750  0.0502 -0.5425 -0.8122
   35CHL1   H14 2533   2.016   3.884   7.757 -0.6602 -0.9620  0.4797
   35CHL1   C15 2534   2.184   3.786   7.846  0.2367  0.1576  0.1397
   35CHL1  H15A 2535   2.233   3.686   7.834 -0.0870  0.0840 -0.6060
   35CHL1  H15B 2536   2.263   3.862   7.831  1.2761 -1.0422 -0.7084
   35CHL1   C16 2537   2.122   3.778   7.983 -0.3260 -0.4143  0.0355
   35CHL1  H16A 2538   2.175   3.707   8.049  0.2084  0.8363  0.9987
   35CHL1  H16B 2539   2.124   3.870   8.045  1.4465 -0.9789  0.8757
   35CHL1   C17 2540   1.971   3.750   7.960 -0.1631  0.3000 -0.2258
   35CHL1   H17 2541   1.925   3.851   7.946 -0.7924 -0.0632 -0.8884
   35CHL1   C13 2542   1.964   3.701   7.817  0.1385 -0.3276  0.9944
   35CHL1   C18 2543   2.001   3.546   7.809 -0.3985  0.3547  0.3019
   35CHL1  H18A 2544   2.023   3.529   7.702 -0.7278  0.5447  0.2016
   35CHL1  H18B 2545   2.090   3.527   7.872 -0.2786  1.7029  0.5683
   35CHL1  H18C 2546   1.914   3.481   7.833  1.1921 -0.9281  2.9966
   35CHL1   C12 2547   1.825   3.715   7.740  0.6994  0.4660  0.3412
   35CHL1  H12A 2548   1.756   3.640   7.784 -0.1538 -0.9563 -3.0805
   35CHL1  H12B 2549   1.777   3.814   7.756 -0.7787 -0.1802  0.0987
   35CHL1   C11 2550   1.834   3.688   7.589 -0.2720  0.4012  0.3219
   35CHL1  H11A 2551   1.851   3.578   7.581  1.9969  0.7102  0.2041
   35CHL1  H11B 2552   1.740   3.710   7.536  1.0071 -0.3374 -2.4300
   35CHL1    C9 2553   1.956   3.758   7.518  0.2312  0.3630 -0.5054
   35CHL1    H9 2554   1.918   3.862   7.526  1.8522  1.0734 -1.6110
   35CHL1   C10 2555   1.979   3.725   7.371 -0.3579 -0.0648 -0.0657
   35CHL1   C19 2556   1.993   3.564   7.363 -0.5499  0.0280  0.0830
   35CHL1  H19A 2557   2.070   3.523   7.432  0.5133 -1.7016 -2.0141
   35CHL1  H19B 2558   1.893   3.520   7.382 -0.5556  0.9779  2.7379
   35CHL1  H19C 2559   2.023   3.543   7.259 -0.7091  0.5634 -0.0755
   35CHL1    C1 2560   1.841   3.755   7.296 -0.6501  0.2266 -0.6274
   35CHL1   H1A 2561   1.768   3.678   7.329 -1.1376  0.6537 -0.6867
   35CHL1   H1B 2562   1.810   3.850   7.345  2.1972 -0.5966  3.3151
   35CHL1    C2 2563   1.854   3.768   7.140  0.0494 -0.7331 -0.3430
   35CHL1   H2A 2564   1.759   3.806   7.099  0.4494 -1.0699 -1.6321
   35CHL1   H2B 2565   1.872   3.669   7.092  2.0475  0.2731 -1.8674
   35CHL1   C20 2566   1.881   3.685   8.073 -0.4183  0.8902  0.3223
   35CHL1   H20 2567   1.874   3.580   8.039  0.8633  0.6020  0.9236
   35CHL1   C21 2568   1.735   3.737   8.072 -0.2936 -0.7872 -0.2714
   35CHL1  H21A 2569   1.688   3.698   8.165  1.8853  1.1470  1.7693
   35CHL1  H21B 2570   1.661   3.710   7.994  0.7012  1.0078 -1.9316
   35CHL1  H21C 2571   1.728   3.846   8.091 -1.3908 -1.0839  1.2449
   35CHL1   C22 2572   1.937   3.676   8.222  0.6868 -0.2835 -0.6707
   35CHL1  H22A 2573   2.044   3.647   8.213  1.4486  1.8786  0.5779
   35CHL1  H22B 2574   1.931   3.779   8.265 -2.2198 -0.9729  0.8861
   35CHL1   C23 2575   1.873   3.567   8.314  0.7737 -0.2815 -0.9477
   35CHL1  H23A 2576   1.768   3.602   8.328  1.2200  1.3538 -1.4761
   35CHL1  H23B 2577   1.867   3.470   8.260  0.1990 -0.7634 -0.0417
   35CHL1   C24 2578   1.941   3.547   8.450  0.5608  0.1811 -0.7660
   35CHL1  H24A 2579   1.890   3.490   8.530  0.8563  3.5516  2.0699
   35CHL1  H24B 2580   2.041   3.502   8.430 -0.2815 -1.4934 -1.4073
   35CHL1   C25 2581   1.973   3.677   8.524 -0.6167 -0.2260 -0.0682
   35CHL1   H25 2582   2.044   3.741   8.467 -1.8373  0.8325 -0.4466
   35CHL1   C26 2583   1.845   3.769   8.546  0.2012  0.1996 -0.4861
   35CHL1  H26A 2584   1.768   3.715   8.605  0.0788  0.0283 -0.8023
   35CHL1  H26B 2585   1.866   3.862   8.603 -6.0465 -0.2424  3.4794
   35CHL1  H26C 2586   1.802   3.797   8.448  0.6830 -0.6154 -0.9360
   35CHL1   C27 2587   2.035   3.636   8.661 -0.8534  0.2615  0.2661
   35CHL1  H27A 2588   1.953   3.585   8.716 -0.0662 -2.3115 -0.7845
   35CHL1  H27B 2589   2.060   3.729   8.717 -0.7409 -0.3148  1.2034
   35CHL1  H27C 2590   2.125   3.571   8.651 -0.6211  0.3296  1.6359
   36CHL1    C3 2591   2.032   1.758   6.908  0.2245 -0.4971  0.0420
   36CHL1    H3 2592   1.960   1.842   6.922  1.9164  0.8813  0.8414
   36CHL1    O3 2593   2.033   1.705   6.775  0.2436 -0.7017 -0.0555
   36CHL1   H3' 2594   2.032   1.609   6.784 -0.7141 -0.6419  0.7320
   36CHL1    C4 2595   2.177   1.807   6.932  0.2206  0.1280 -0.5055
   36CHL1   H4A 2596   2.250   1.723   6.926 -0.3623 -0.4283  0.0293
   36CHL1   H4B 2597   2.205   1.885   6.857  0.0892  0.4271 -0.2449
   36CHL1    C5 2598   2.185   1.870   7.071 -0.4180  0.3875 -0.0845
   36CHL1    C6 2599   2.236   1.992   7.096  0.0357  0.6006 -0.1292
   36CHL1    H6 2600   2.294   2.047   7.020 -0.0834  1.9565  0.7149
   36CHL1    C7 2601   2.240   2.057   7.231 -0.1515 -0.1850  0.6432
   36CHL1   H7A 2602   2.336   2.110   7.248  0.6631 -2.0048  2.0060
   36CHL1   H7B 2603   2.156   2.128   7.244  0.7392  0.8565  0.9159
   36CHL1    C8 2604   2.222   1.959   7.349  0.0087 -0.0992  0.0686
   36CHL1    H8 2605   2.318   1.906   7.363  0.4965  1.2676  2.2466
   36CHL1   C14 2606   2.201   2.029   7.484 -0.5824 -0.1524 -0.8564
   36CHL1   H14 2607   2.111   2.093   7.485 -0.9390 -0.6617  0.4298
   36CHL1   C15 2608   2.294   2.138   7.531 -0.5219  0.8022  0.1393
   36CHL1  H15A 2609   2.403   2.117   7.524 -0.6128  0.7065 -1.6137
   36CHL1  H15B 2610   2.277   2.240   7.493  0.4632  0.7753 -0.4250
   36CHL1   C16 2611   2.272   2.148   7.682 -0.1997 -0.2715 -0.9872
   36CHL1  H16A 2612   2.374   2.131   7.722 -0.5908  1.1451  0.7224
   36CHL1  H16B 2613   2.232   2.247   7.712  0.6155 -0.2390  0.0405
   36CHL1   C17 2614   2.172   2.031   7.726 -0.1775  0.5189  0.6571
   36CHL1   H17 2615   2.072   2.080   7.725 -0.1583  0.7649  3.2053
   36CHL1   C13 2616   2.175   1.932   7.608  0.1078  0.4186 -0.1948
   36CHL1   C18 2617   2.287   1.834   7.623 -0.3782  0.1585  0.4432
   36CHL1  H18A 2618   2.315   1.771   7.536  0.5255 -0.0949  0.8999
   36CHL1  H18B 2619   2.381   1.887   7.650  1.0337 -1.8897 -0.1337
   36CHL1  H18C 2620   2.268   1.769   7.711 -0.6831 -0.1149  0.1801
   36CHL1   C12 2621   2.043   1.861   7.578 -0.4860  0.8167  0.3558
   36CHL1  H12A 2622   2.003   1.783   7.646 -0.2571  1.6411  1.4692
   36CHL1  H12B 2623   1.961   1.934   7.569 -0.1737  1.2296  0.7901
   36CHL1   C11 2624   2.049   1.790   7.439  0.1659  0.6440  0.9230
   36CHL1  H11A 2625   2.109   1.698   7.456 -0.5871 -0.3217 -1.3284
   36CHL1  H11B 2626   1.944   1.762   7.415 -0.0260  0.2163  2.1579
   36CHL1    C9 2627   2.102   1.872   7.316  0.8927  0.2097 -0.1561
   36CHL1    H9 2628   2.026   1.950   7.294  0.2171 -0.8160 -1.5998
   36CHL1   C10 2629   2.118   1.790   7.182  0.4048  0.4643 -1.1014
   36CHL1   C19 2630   2.218   1.673   7.215  0.4108 -0.8585 -0.2894
   36CHL1  H19A 2631   2.168   1.598   7.279  0.7464  0.0506  1.1032
   36CHL1  H19B 2632   2.246   1.625   7.119 -1.7224 -0.4652 -1.1490
   36CHL1  H19C 2633   2.299   1.718   7.277 -1.6275  1.8082  0.6552
   36CHL1    C1 2634   1.982   1.720   7.140 -0.7034  0.1361 -0.2156
   36CHL1   H1A 2635   1.966   1.636   7.211  0.1210  0.2754  0.1486
   36CHL1   H1B 2636   1.895   1.789   7.140  1.3476  2.9517 -1.5791
   36CHL1    C2 2637   1.992   1.646   7.003 -0.8251 -0.3997 -0.0450
   36CHL1   H2A 2638   1.893   1.610   6.966 -1.2006 -1.1278  1.5869
   36CHL1   H2B 2639   2.062   1.560   6.996  0.7620  0.6863  1.5446
   36CHL1   C20 2640   2.204   1.981   7.868  0.3797  0.0680 -0.1725
   36CHL1   H20 2641   2.300   1.925   7.872  0.6510  0.5414  0.0710
   36CHL1   C21 2642   2.089   1.886   7.909 -0.3012  0.1134 -0.6883
   36CHL1  H21A 2643   2.109   1.845   8.010  0.5713  2.9150  0.3955
   36CHL1  H21B 2644   2.083   1.794   7.847  1.4250 -1.0179  0.7243
   36CHL1  H21C 2645   1.990   1.936   7.902 -0.2867  0.0478 -1.4094
   36CHL1   C22 2646   2.225   2.096   7.977 -0.4061  0.3776  0.6537
   36CHL1  H22A 2647   2.304   2.164   7.941  0.1234  1.3918  3.5033
   36CHL1  H22B 2648   2.130   2.151   7.994 -0.8878  0.3690 -1.6641
   36CHL1   C23 2649   2.286   2.039   8.106 -0.4978  0.2515  0.0111
   36CHL1  H23A 2650   2.215   1.971   8.157  0.3989 -0.7748 -0.0857
   36CHL1  H23B 2651   2.378   1.982   8.081 -0.3998 -0.2154  1.3753
   36CHL1   C24 2652   2.324   2.164   8.197 -0.3533 -0.3817 -0.0497
   36CHL1  H24A 2653   2.392   2.224   8.133 -1.2956  0.7846  0.0100
   36CHL1  H24B 2654   2.233   2.221   8.226  0.9387  0.2080  3.3105
   36CHL1   C25 2655   2.411   2.116   8.319  0.7770  0.6716  0.0583
   36CHL1   H25 2656   2.487   2.046   8.278 -0.3914 -0.4055 -0.3244
   36CHL1   C26 2657   2.476   2.236   8.391 -0.1993 -0.3812 -0.0107
   36CHL1  H26A 2658   2.557   2.211   8.463 -1.4841  1.9130  2.3724
   36CHL1  H26B 2659   2.523   2.305   8.317 -1.4673 -0.1780 -0.6518
   36CHL1  H26C 2660   2.408   2.285   8.464  0.8915  2.6707 -0.8819
   36CHL1   C27 2661   2.321   2.043   8.413 -0.0244  0.1550 -0.0214
   36CHL1  H27A 2662   2.237   2.107   8.447  0.3977  0.0009  1.3564
   36CHL1  H27B 2663   2.273   1.959   8.358 -0.5858  1.3079 -1.3648
   36CHL1  H27C 2664   2.372   2.003   8.503  0.8255 -0.4971 -0.7693
   37CHL1    C3 2665   5.361   0.972   7.171 -0.6005 -0.2909  0.6344
   37CHL1    H3 2666   5.354   1.078   7.203  3.1204 -0.2713  1.9330
   37CHL1    O3 2667   5.354   0.969   7.031  0.3615 -0.1217 -0.3537
   37CHL1   H3' 2668   5.358   0.877   7.004 -1.0928  0.2232 -1.8971
   37CHL1    C4 2669   5.500   0.933   7.225 -0.3712 -0.0192 -0.1560
   37CHL1   H4A 2670   5.520   0.832   7.184 -1.3557 -1.2821  2.2458
   37CHL1   H4B 2671   5.571   1.004   7.178  0.9898 -1.5430 -0.5074
   37CHL1    C5 2672   5.516   0.931   7.378 -0.5182  0.5340 -0.3380
   37CHL1    C6 2673   5.614   0.995   7.442  0.1380 -0.2835  0.4021
   37CHL1    H6 2674   5.663   1.075   7.385 -0.4823  1.8121  2.6165
   37CHL1    C7 2675   5.627   1.000   7.593  0.2905  0.0473 -0.0173
   37CHL1   H7A 2676   5.736   0.987   7.610  0.4689  1.1200 -0.2360
   37CHL1   H7B 2677   5.603   1.102   7.630  1.1346 -0.8570  3.3004
   37CHL1    C8 2678   5.544   0.888   7.662  0.3082  0.2256 -0.5405
   37CHL1    H8 2679   5.605   0.797   7.642  1.6726  0.0663  3.4669
   37CHL1   C14 2680   5.532   0.918   7.807  0.5478  0.5619 -0.3958
   37CHL1   H14 2681   5.465   1.006   7.818  1.2064  1.4438 -2.8352
   37CHL1   C15 2682   5.659   0.954   7.888 -0.0022  0.5806 -0.3476
   37CHL1  H15A 2683   5.740   0.891   7.845  1.3693  1.7800  0.3847
   37CHL1  H15B 2684   5.683   1.062   7.874  0.7521  0.6238  1.1397
   37CHL1   C16 2685   5.630   0.907   8.034 -0.3210 -0.2903 -0.4890
   37CHL1  H16A 2686   5.711   0.841   8.070  0.1709  0.6238  0.1419
   37CHL1  H16B 2687   5.633   0.999   8.097  0.7531  0.7207 -1.9493
   37CHL1   C17 2688   5.484   0.848   8.031  0.2243  0.6044  1.3246
   37CHL1   H17 2689   5.415   0.934   8.040  2.2925  2.4545  0.4513
   37CHL1   C13 2690   5.458   0.805   7.881  0.2830  0.3570  0.4938
   37CHL1   C18 2691   5.536   0.673   7.852  0.2807  0.1593 -0.2553
   37CHL1  H18A 2692   5.643   0.678   7.882  0.3476  1.0693 -0.6005
   37CHL1  H18B 2693   5.484   0.601   7.919 -0.7686 -1.2701 -2.4927
   37CHL1  H18C 2694   5.513   0.647   7.747 -1.2672  2.7506 -0.6407
   37CHL1   C12 2695   5.308   0.805   7.833  0.2624 -0.5041 -0.3184
   37CHL1  H12A 2696   5.250   0.726   7.887  3.0182 -0.0402  3.7783
   37CHL1  H12B 2697   5.264   0.905   7.848 -1.5294 -1.2383 -0.4330
   37CHL1   C11 2698   5.303   0.784   7.681  0.3297  0.2879 -0.0592
   37CHL1  H11A 2699   5.324   0.678   7.657  2.3884  0.7345 -0.4814
   37CHL1  H11B 2700   5.199   0.807   7.651  0.5249  1.1422 -0.1118
   37CHL1    C9 2701   5.403   0.876   7.600 -0.2663  0.2699  0.3600
   37CHL1    H9 2702   5.367   0.981   7.612  0.0150  0.5916 -1.3308
   37CHL1   C10 2703   5.405   0.849   7.444 -0.0133 -0.0962 -0.0651
   37CHL1   C19 2704   5.421   0.695   7.419  0.0244  0.3705 -0.2197
   37CHL1  H19A 2705   5.438   0.667   7.313 -0.3382 -0.0273 -0.1760
   37CHL1  H19B 2706   5.507   0.657   7.478 -0.1704  1.4562  0.7977
   37CHL1  H19C 2707   5.325   0.642   7.438 -0.0723  0.3089 -0.8491
   37CHL1    C1 2708   5.266   0.903   7.385  0.2891  0.2080 -0.1698
   37CHL1   H1A 2709   5.183   0.847   7.435 -1.5968  2.8035 -0.2080
   37CHL1   H1B 2710   5.256   1.009   7.414  0.6729  0.2462 -0.1683
   37CHL1    C2 2711   5.251   0.895   7.239  0.0018  0.5331  0.8554
   37CHL1   H2A 2712   5.154   0.936   7.205  0.3812  0.8529  0.1435
   37CHL1   H2B 2713   5.249   0.787   7.213 -0.3982  0.6892  0.2248
   37CHL1   C20 2714   5.458   0.738   8.138 -0.5277  0.1116  0.2237
   37CHL1   H20 2715   5.518   0.646   8.121  1.0920  0.8842  1.4884
   37CHL1   C21 2716   5.310   0.692   8.140  1.0141  0.2274  0.0575
   37CHL1  H21A 2717   5.282   0.632   8.051  4.2157  1.0415 -1.6479
   37CHL1  H21B 2718   5.252   0.786   8.131 -0.8733 -1.0262 -1.6275
   37CHL1  H21C 2719   5.279   0.633   8.229 -1.9726  1.5581  0.0140
   37CHL1   C22 2720   5.513   0.776   8.288  0.2844  0.9830 -0.1201
   37CHL1  H22A 2721   5.622   0.793   8.276  0.1183  1.5876 -0.8323
   37CHL1  H22B 2722   5.458   0.868   8.317 -1.8613 -0.0743 -0.6333
   37CHL1   C23 2723   5.484   0.669   8.393 -0.4983 -0.1087 -0.8251
   37CHL1  H23A 2724   5.377   0.646   8.413 -0.1094 -0.8664  0.5837
   37CHL1  H23B 2725   5.519   0.570   8.356 -2.9107 -0.9706 -0.9512
   37CHL1   C24 2726   5.570   0.689   8.521  0.2935 -0.0938  0.2237
   37CHL1  H24A 2727   5.670   0.660   8.483 -0.2458  1.2399 -2.4177
   37CHL1  H24B 2728   5.589   0.792   8.558  2.8716  0.4880 -2.3286
   37CHL1   C25 2729   5.533   0.596   8.639 -0.4028 -0.4702  0.8342
   37CHL1   H25 2730   5.423   0.604   8.650 -0.3434  0.0729  1.0963
   37CHL1   C26 2731   5.557   0.441   8.613 -0.2996 -1.0060  0.1271
   37CHL1  H26A 2732   5.534   0.375   8.699 -0.8810 -0.9178  0.0446
   37CHL1  H26B 2733   5.496   0.404   8.528  0.3477 -2.5829  0.3346
   37CHL1  H26C 2734   5.663   0.422   8.588  0.1040 -1.7191  2.2069
   37CHL1   C27 2735   5.611   0.630   8.766  0.1341  0.3856  0.2930
   37CHL1  H27A 2736   5.588   0.553   8.843  1.7527 -0.9699 -0.5158
   37CHL1  H27B 2737   5.720   0.649   8.763  0.2616  0.0253  1.8730
   37CHL1  H27C 2738   5.566   0.717   8.819  0.4349  0.7454 -0.0303
   38CHL1    C3 2739   0.889   4.504   6.696  0.5566  0.3474  1.2336
   38CHL1    H3 2740   0.798   4.441   6.706  2.1092 -2.2784 -0.2460
   38CHL1    O3 2741   0.920   4.506   6.557 -0.4953 -0.1005  0.1945
   38CHL1   H3' 2742   0.957   4.592   6.539  1.5734 -0.6439  1.4776
   38CHL1    C4 2743   0.860   4.646   6.763 -0.1590  0.3335  0.5790
   38CHL1   H4A 2744   0.937   4.721   6.735 -0.0151  0.2646  0.7840
   38CHL1   H4B 2745   0.771   4.673   6.703  0.7695  0.3866 -0.8168
   38CHL1    C5 2746   0.840   4.630   6.914 -0.7189 -0.4432 -0.3071
   38CHL1    C6 2747   0.723   4.678   6.963  0.9797  0.2589  0.2160
   38CHL1    H6 2748   0.640   4.716   6.902  1.7546  2.4260  0.4301
   38CHL1    C7 2749   0.687   4.674   7.114 -0.9440 -0.4973  0.1607
   38CHL1   H7A 2750   0.662   4.778   7.145  4.3151  0.9348  0.6121
   38CHL1   H7B 2751   0.596   4.614   7.132 -1.0763 -0.2338  0.3865
   38CHL1    C8 2752   0.805   4.629   7.205  0.5319  0.9584 -0.7589
   38CHL1    H8 2753   0.868   4.719   7.224 -1.5198  2.2750  0.2238
   38CHL1   C14 2754   0.751   4.569   7.337 -0.1579 -0.1007 -0.1432
   38CHL1   H14 2755   0.694   4.480   7.302 -1.7163  0.7802  0.0527
   38CHL1   C15 2756   0.653   4.655   7.412 -0.5487  0.4185 -0.3903
   38CHL1  H15A 2757   0.685   4.761   7.407 -1.5771  0.7048 -1.1025
   38CHL1  H15B 2758   0.550   4.652   7.371 -0.8923  0.4769  0.4478
   38CHL1   C16 2759   0.658   4.600   7.551  0.5904 -0.3465 -0.9625
   38CHL1  H16A 2760   0.664   4.688   7.618 -0.7324  0.4341 -1.8268
   38CHL1  H16B 2761   0.568   4.540   7.579  0.8394 -1.1372 -1.7957
   38CHL1   C17 2762   0.773   4.495   7.562  0.3325  0.1832 -0.2454
   38CHL1   H17 2763   0.730   4.395   7.540 -1.0192  0.6952  0.0149
   38CHL1   C13 2764   0.862   4.519   7.435 -0.4595 -0.1680 -0.0687
   38CHL1   C18 2765   0.974   4.626   7.471  0.2505 -0.2608  0.9134
   38CHL1  H18A 2766   1.057   4.583   7.531 -0.8490 -0.7088  2.1643
   38CHL1  H18B 2767   1.019   4.680   7.385  1.1997  1.9874  2.7281
   38CHL1  H18C 2768   0.929   4.713   7.523 -1.0230  0.3630 -1.1110
   38CHL1   C12 2769   0.930   4.406   7.365  0.4702 -0.1949  0.3920
   38CHL1  H12A 2770   1.025   4.388   7.421  0.9052  0.7166 -0.0399
   38CHL1  H12B 2771   0.867   4.315   7.372 -3.6046  2.4547  1.2564
   38CHL1   C11 2772   0.983   4.449   7.223 -1.0178  0.0896  0.7110
   38CHL1  H11A 2773   1.065   4.521   7.243 -0.9427 -0.3336  1.9812
   38CHL1  H11B 2774   1.030   4.362   7.172  0.5479  0.2517  1.8254
   38CHL1    C9 2775   0.882   4.514   7.130  0.4192  0.7877  0.7021
   38CHL1    H9 2776   0.806   4.439   7.101 -0.9787  2.5438 -0.4342
   38CHL1   C10 2777   0.945   4.551   6.990  0.8282 -0.1809 -1.1172
   38CHL1   C19 2778   1.072   4.635   7.009 -0.4114  0.5444  0.3862
   38CHL1  H19A 2779   1.105   4.670   6.909  2.9125 -0.3034  1.0419
   38CHL1  H19B 2780   1.063   4.717   7.083 -0.0473 -0.2528  1.3333
   38CHL1  H19C 2781   1.153   4.567   7.044 -0.4932 -0.3007 -0.9930
   38CHL1    C1 2782   0.970   4.422   6.916 -0.4276 -0.2133 -0.9890
   38CHL1   H1A 2783   1.043   4.356   6.968 -1.0053 -0.0079  0.1286
   38CHL1   H1B 2784   0.877   4.363   6.918  0.3538 -1.4785  0.0904
   38CHL1    C2 2785   1.005   4.439   6.767 -0.4878 -0.1564  0.1518
   38CHL1   H2A 2786   1.053   4.351   6.720 -0.3915  0.3170 -0.6606
   38CHL1   H2B 2787   1.086   4.510   6.740 -0.4525 -0.6140 -0.9808
   38CHL1   C20 2788   0.844   4.480   7.701 -0.9179  0.5184  0.2793
   38CHL1   H20 2789   0.894   4.575   7.731 -2.0039  0.5986  1.9547
   38CHL1   C21 2790   0.938   4.357   7.717 -0.1305  0.0384  0.4901
   38CHL1  H21A 2791   1.032   4.358   7.658 -0.6466 -2.4996 -0.4910
   38CHL1  H21B 2792   0.896   4.255   7.700  1.7799 -0.7539  0.3027
   38CHL1  H21C 2793   0.978   4.363   7.820 -1.7520  0.6129  1.1165
   38CHL1   C22 2794   0.732   4.473   7.811  0.2854  1.0172 -0.3873
   38CHL1  H22A 2795   0.684   4.572   7.826 -1.3027  0.0239  1.5765
   38CHL1  H22B 2796   0.648   4.404   7.790  1.1556 -0.5436  1.0752
   38CHL1   C23 2797   0.775   4.431   7.948  0.0009 -0.3308  0.0560
   38CHL1  H23A 2798   0.817   4.328   7.949  1.2883  0.1086  3.5072
   38CHL1  H23B 2799   0.855   4.497   7.988 -1.1810  0.3490  1.3655
   38CHL1   C24 2800   0.659   4.432   8.044 -0.0028  0.2990 -0.1117
   38CHL1  H24A 2801   0.583   4.368   7.994 -0.3172 -1.7560  2.7780
   38CHL1  H24B 2802   0.695   4.375   8.131 -0.6508  0.4735  0.2807
   38CHL1   C25 2803   0.606   4.569   8.088  0.3597 -0.0901 -0.0398
   38CHL1   H25 2804   0.591   4.632   7.998  1.9379  0.8826  0.3460
   38CHL1   C26 2805   0.468   4.539   8.150 -0.4141 -0.0285 -0.0342
   38CHL1  H26A 2806   0.399   4.474   8.092 -0.3163 -2.2996  2.1929
   38CHL1  H26B 2807   0.491   4.475   8.238  2.1757 -0.3460 -0.8732
   38CHL1  H26C 2808   0.407   4.627   8.180 -2.8501 -0.9843 -1.8391
   38CHL1   C27 2809   0.698   4.642   8.194  0.2677  0.4754  0.5871
   38CHL1  H27A 2810   0.663   4.744   8.221  0.8669  1.4449 -2.0024
   38CHL1  H27B 2811   0.719   4.581   8.285  0.0140  0.6285  0.7491
   38CHL1  H27C 2812   0.797   4.652   8.145  0.5477 -3.7073 -0.0341
   39CHL1    C3 2813   1.060   3.763   6.871 -0.9570  0.7880  0.4097
   39CHL1    H3 2814   1.086   3.865   6.905  0.0160  0.7747 -0.2686
   39CHL1    O3 2815   1.022   3.755   6.737 -0.2738 -0.0633  0.2208
   39CHL1   H3' 2816   1.083   3.813   6.691 -0.5722  0.2970  0.2752
   39CHL1    C4 2817   1.187   3.675   6.894 -0.3815 -0.4200 -0.5263
   39CHL1   H4A 2818   1.152   3.579   6.852  2.5483 -2.3156  1.0619
   39CHL1   H4B 2819   1.278   3.703   6.836  0.1590  1.2576  1.0427
   39CHL1    C5 2820   1.231   3.652   7.038  0.2202  0.5729  0.2691
   39CHL1    C6 2821   1.358   3.669   7.076 -0.5243 -0.4685 -0.8186
   39CHL1    H6 2822   1.434   3.696   7.002 -0.7529  0.4190 -0.7450
   39CHL1    C7 2823   1.405   3.649   7.222  0.0836 -0.4983  0.5705
   39CHL1   H7A 2824   1.499   3.591   7.234 -0.4057 -1.2421  0.8606
   39CHL1   H7B 2825   1.422   3.751   7.262 -0.3606  0.1904 -0.9316
   39CHL1    C8 2826   1.301   3.581   7.314 -0.5364 -0.4392 -0.3609
   39CHL1    H8 2827   1.301   3.473   7.290 -0.8251  0.0430 -2.8524
   39CHL1   C14 2828   1.337   3.606   7.459 -0.3772  0.1914 -0.6278
   39CHL1   H14 2829   1.320   3.715   7.472  2.1472  0.7424 -1.4026
   39CHL1   C15 2830   1.474   3.570   7.509  0.0759 -0.4946  0.8655
   39CHL1  H15A 2831   1.496   3.470   7.466 -1.1410  0.0161 -1.1184
   39CHL1  H15B 2832   1.546   3.649   7.477 -2.1677  1.9502  1.5500
   39CHL1   C16 2833   1.459   3.567   7.663 -0.0089  0.9178  0.1936
   39CHL1  H16A 2834   1.502   3.473   7.705 -1.1687  0.1934 -0.2085
   39CHL1  H16B 2835   1.520   3.650   7.705 -0.9034  0.0662  3.4490
   39CHL1   C17 2836   1.311   3.585   7.694 -0.1857  0.1951  0.1648
   39CHL1   H17 2837   1.292   3.693   7.716  0.6585  0.1853  1.0117
   39CHL1   C13 2838   1.237   3.539   7.561  0.1053  0.2136  0.1167
   39CHL1   C18 2839   1.236   3.380   7.540  0.1094 -0.1359 -0.4841
   39CHL1  H18A 2840   1.336   3.338   7.565  1.4688  1.9939 -1.9889
   39CHL1  H18B 2841   1.166   3.337   7.614  1.4522 -1.0940  0.2745
   39CHL1  H18C 2842   1.206   3.356   7.436  2.1387  3.5117 -2.1175
   39CHL1   C12 2843   1.091   3.600   7.525  0.5064  0.6318  0.2220
   39CHL1  H12A 2844   1.010   3.546   7.577  1.9396 -1.9705 -0.0452
   39CHL1  H12B 2845   1.092   3.709   7.547  0.1799  1.1174 -1.9099
   39CHL1   C11 2846   1.053   3.577   7.378  0.2336 -0.2991 -0.4691
   39CHL1  H11A 2847   1.048   3.469   7.355  2.3542 -0.1724 -1.8413
   39CHL1  H11B 2848   0.952   3.618   7.354  1.0211  1.1907 -1.4537
   39CHL1    C9 2849   1.161   3.636   7.283 -0.0288  0.7926  0.7611
   39CHL1    H9 2850   1.165   3.746   7.301  0.5386  0.6989  1.2206
   39CHL1   C10 2851   1.114   3.615   7.131 -0.2442 -0.4694 -0.6297
   39CHL1   C19 2852   1.064   3.461   7.105 -0.0814 -0.4883  0.1239
   39CHL1  H19A 2853   0.969   3.435   7.156  0.5081 -1.0793  0.9490
   39CHL1  H19B 2854   1.056   3.444   6.995  1.7539 -1.1807  0.0543
   39CHL1  H19C 2855   1.147   3.398   7.142  2.7589  1.7255 -2.0107
   39CHL1    C1 2856   1.001   3.715   7.099  0.2201  0.7452 -0.2186
   39CHL1   H1A 2857   0.920   3.686   7.170  1.4480  1.1628  1.3898
   39CHL1   H1B 2858   1.014   3.823   7.122 -3.7352  1.4416 -0.4123
   39CHL1    C2 2859   0.946   3.707   6.958  0.1740 -0.5832  0.0963
   39CHL1   H2A 2860   0.858   3.775   6.951  1.3909  1.0504  0.3248
   39CHL1   H2B 2861   0.922   3.604   6.923  1.1597 -0.4224 -1.1415
   39CHL1   C20 2862   1.271   3.515   7.823  0.3459  0.0395 -0.0776
   39CHL1   H20 2863   1.256   3.409   7.794 -2.9173  0.5038 -0.4059
   39CHL1   C21 2864   1.129   3.568   7.869 -0.3861 -0.0814  0.2652
   39CHL1  H21A 2865   1.063   3.556   7.780 -0.0177  1.5055 -0.2412
   39CHL1  H21B 2866   1.122   3.675   7.897  3.1037  1.0617 -2.4459
   39CHL1  H21C 2867   1.098   3.497   7.949  0.0202  1.2975  1.6720
   39CHL1   C22 2868   1.375   3.528   7.940  0.3278 -0.2707  0.4312
   39CHL1  H22A 2869   1.459   3.458   7.920  3.1123  3.1033 -0.6840
   39CHL1  H22B 2870   1.426   3.627   7.931  0.2108 -0.0042  2.2843
   39CHL1   C23 2871   1.321   3.525   8.082 -1.0004 -0.2966 -0.2293
   39CHL1  H23A 2872   1.259   3.617   8.087 -1.6707 -0.7018 -0.8768
   39CHL1  H23B 2873   1.263   3.432   8.099 -0.6463 -0.8252 -1.7527
   39CHL1   C24 2874   1.435   3.534   8.187  0.0293 -0.6712 -0.2996
   39CHL1  H24A 2875   1.505   3.448   8.183 -1.9710 -2.3689 -0.7248
   39CHL1  H24B 2876   1.501   3.617   8.154 -1.0189 -0.1277 -1.1016
   39CHL1   C25 2877   1.391   3.557   8.329  0.3349  0.4020  0.1452
   39CHL1   H25 2878   1.325   3.647   8.331  0.2278  0.3284 -0.0355
   39CHL1   C26 2879   1.309   3.441   8.376 -0.2397  0.5478 -0.5090
   39CHL1  H26A 2880   1.219   3.446   8.311 -0.5596 -0.1792 -0.1352
   39CHL1  H26B 2881   1.362   3.345   8.358  1.0373  0.9938  0.7710
   39CHL1  H26C 2882   1.278   3.458   8.481  3.0900  0.5549  0.5815
   39CHL1   C27 2883   1.506   3.586   8.430  0.0019  0.0544  0.6256
   39CHL1  H27A 2884   1.559   3.681   8.406  0.2942 -0.5939 -1.5924
   39CHL1  H27B 2885   1.468   3.600   8.533 -1.2136 -0.4866  0.2694
   39CHL1  H27C 2886   1.581   3.505   8.424  1.0246  1.0286 -0.5042
   40CHL1    C3 2887   2.583   2.470   6.952 -0.1274 -0.5464  0.6206
   40CHL1    H3 2888   2.497   2.539   6.949 -0.5022 -1.0382 -0.2215
   40CHL1    O3 2889   2.614   2.432   6.819  0.5183  0.2260  0.2802
   40CHL1   H3' 2890   2.699   2.388   6.823  0.8673  0.8855  0.2432
   40CHL1    C4 2891   2.694   2.548   7.012 -0.3334  0.5543  0.5930
   40CHL1   H4A 2892   2.788   2.489   7.024  0.0391  1.6950  4.4959
   40CHL1   H4B 2893   2.716   2.638   6.950 -0.7787  0.5723  0.4590
   40CHL1    C5 2894   2.657   2.582   7.158 -0.5401  0.3442  0.4829
   40CHL1    C6 2895   2.654   2.709   7.206 -0.3657 -0.3874  1.0630
   40CHL1    H6 2896   2.673   2.789   7.133  1.2882 -3.2168 -1.8586
   40CHL1    C7 2897   2.608   2.743   7.343  0.5605  0.8548  0.3353
   40CHL1   H7A 2898   2.651   2.839   7.378 -1.4629  1.9465 -0.0214
   40CHL1   H7B 2899   2.500   2.769   7.338  0.4751  0.4515 -0.0068
   40CHL1    C8 2900   2.625   2.633   7.445 -0.0187  0.8078 -0.6951
   40CHL1    H8 2901   2.734   2.624   7.462 -0.3865 -1.9366  0.7253
   40CHL1   C14 2902   2.556   2.657   7.587 -0.0642 -0.5217  0.4090
   40CHL1   H14 2903   2.448   2.662   7.563  0.4181 -1.2004 -2.1601
   40CHL1   C15 2904   2.581   2.786   7.656  0.4371 -0.5597 -0.8378
   40CHL1  H15A 2905   2.691   2.802   7.663  0.1462  2.2113 -1.2107
   40CHL1  H15B 2906   2.545   2.877   7.602 -0.8330 -0.7049 -0.2601
   40CHL1   C16 2907   2.524   2.759   7.796  0.0251 -0.1763 -0.0765
   40CHL1  H16A 2908   2.611   2.773   7.865 -0.5188  0.0320  0.5747
   40CHL1  H16B 2909   2.441   2.827   7.822  0.3328  0.1691  0.0206
   40CHL1   C17 2910   2.489   2.605   7.814 -0.2030  0.2766  0.2344
   40CHL1   H17 2911   2.383   2.592   7.781 -0.1224  0.0973  0.0369
   40CHL1   C13 2912   2.569   2.546   7.692  0.0472  0.2180 -0.2230
   40CHL1   C18 2913   2.715   2.522   7.731  0.2577 -0.0086  0.4439
   40CHL1  H18A 2914   2.756   2.608   7.787  1.5366  0.2703 -0.8761
   40CHL1  H18B 2915   2.727   2.435   7.799  2.1484  0.0617  0.2335
   40CHL1  H18C 2916   2.777   2.508   7.640 -0.1977  1.9380 -0.2098
   40CHL1   C12 2917   2.510   2.421   7.631  0.6872  0.0799  0.0190
   40CHL1  H12A 2918   2.512   2.349   7.716 -1.5657  0.4627  0.4508
   40CHL1  H12B 2919   2.402   2.441   7.616  0.7139  2.3442  2.1887
   40CHL1   C11 2920   2.565   2.391   7.489 -0.1604 -0.4172 -0.7116
   40CHL1  H11A 2921   2.667   2.354   7.513 -0.6847 -1.1857  0.4163
   40CHL1  H11B 2922   2.519   2.299   7.447 -0.1549 -0.8203  0.1343
   40CHL1    C9 2923   2.563   2.502   7.385 -0.0420 -0.0353  0.2919
   40CHL1    H9 2924   2.462   2.538   7.357  1.1049  1.6684 -2.0554
   40CHL1   C10 2925   2.626   2.464   7.248 -0.8780  0.2833  0.4580
   40CHL1   C19 2926   2.768   2.400   7.273  0.5919 -0.1409  0.1085
   40CHL1  H19A 2927   2.823   2.466   7.343  0.2748  1.4150 -1.0595
   40CHL1  H19B 2928   2.758   2.300   7.321  0.1334  0.1353  0.5961
   40CHL1  H19C 2929   2.823   2.382   7.178  0.5717  0.2686  0.0185
   40CHL1    C1 2930   2.528   2.361   7.179 -0.1638  0.1978  0.7070
   40CHL1   H1A 2931   2.543   2.267   7.237 -0.3235 -1.2591 -1.4830
   40CHL1   H1B 2932   2.427   2.406   7.192 -1.2927 -1.6279 -1.1159
   40CHL1    C2 2933   2.554   2.345   7.030 -0.2328 -0.3515  0.0702
   40CHL1   H2A 2934   2.460   2.301   6.990 -1.2392  0.0741  1.8387
   40CHL1   H2B 2935   2.634   2.269   7.017  1.3705  1.3752 -0.5691
   40CHL1   C20 2936   2.509   2.562   7.956 -0.2191 -0.0800  0.1817
   40CHL1   H20 2937   2.614   2.586   7.983 -0.1970 -1.2215  1.1547
   40CHL1   C21 2938   2.482   2.415   7.975  0.2646  0.6999  0.6654
   40CHL1  H21A 2939   2.540   2.362   7.897 -0.5897  0.2685  0.3195
   40CHL1  H21B 2940   2.373   2.409   7.955  0.9384 -0.1373 -3.5434
   40CHL1  H21C 2941   2.494   2.382   8.081  0.4528  1.8718  1.0252
   40CHL1   C22 2942   2.415   2.642   8.050 -0.1331 -0.4026 -0.5858
   40CHL1  H22A 2943   2.438   2.750   8.044  1.3589 -0.5982  0.7596
   40CHL1  H22B 2944   2.313   2.620   8.013 -0.7600 -0.7358  1.2409
   40CHL1   C23 2945   2.435   2.618   8.195 -0.1979  0.2757  0.0623
   40CHL1  H23A 2946   2.356   2.672   8.252  1.1225  0.6841  1.5904
   40CHL1  H23B 2947   2.419   2.509   8.213 -0.2503  0.3112  0.2317
   40CHL1   C24 2948   2.563   2.667   8.262  0.0168  0.1144  0.2775
   40CHL1  H24A 2949   2.655   2.643   8.205  0.0820  0.3764  0.2714
   40CHL1  H24B 2950   2.559   2.778   8.267  0.1472  0.1175  0.3142
   40CHL1   C25 2951   2.589   2.606   8.395 -0.2783 -0.8732  0.1404
   40CHL1   H25 2952   2.567   2.497   8.387 -1.0348 -0.7642  0.5853
   40CHL1   C26 2953   2.730   2.638   8.447 -0.9960 -0.2003  0.4666
   40CHL1  H26A 2954   2.746   2.746   8.468  0.4169 -0.6169  1.6961
   40CHL1  H26B 2955   2.756   2.591   8.544  1.9702  2.8400  1.3690
   40CHL1  H26C 2956   2.812   2.618   8.374  1.2528  0.5072  2.6444
   40CHL1   C27 2957   2.481   2.639   8.498  0.6639 -0.2846 -0.6302
   40CHL1  H27A 2958   2.517   2.626   8.602 -0.6572 -0.0676 -0.1350
   40CHL1  H27B 2959   2.433   2.738   8.486 -2.5410 -1.7032 -0.5282
   40CHL1  H27C 2960   2.395   2.571   8.480  1.4901 -1.4035 -0.5131
   41CHL1    C3 2961   3.595   6.736   7.126 -0.3212 -0.0598  0.0655
   41CHL1    H3 2962   3.511   6.809   7.122  0.8448  1.3151  0.0904
   41CHL1    O3 2963   3.632   6.690   6.998 -0.1840  0.3300  0.6151
   41CHL1   H3' 2964   3.727   6.674   7.006 -0.0392  0.3597 -0.7831
   41CHL1    C4 2965   3.722   6.796   7.181  0.0761  0.3252 -0.4002
   41CHL1   H4A 2966   3.808   6.726   7.181  0.5731  0.6323  4.1095
   41CHL1   H4B 2967   3.754   6.873   7.108  1.0540 -1.4866 -1.9519
   41CHL1    C5 2968   3.709   6.835   7.331 -0.0145  0.1366  0.0365
   41CHL1    C6 2969   3.755   6.955   7.370  0.1607 -0.0592 -0.4507
   41CHL1    H6 2970   3.802   7.020   7.295 -0.6797  1.8411  0.5943
   41CHL1    C7 2971   3.752   6.998   7.518  0.3142  0.0644  0.0867
   41CHL1   H7A 2972   3.852   7.033   7.551  1.1725  0.5315 -2.7204
   41CHL1   H7B 2973   3.682   7.084   7.529  1.3910  1.0251 -0.3856
   41CHL1    C8 2974   3.719   6.882   7.616  0.5344  0.6226 -0.3858
   41CHL1    H8 2975   3.813   6.824   7.626 -0.0768 -0.5759 -1.2955
   41CHL1   C14 2976   3.672   6.935   7.758 -0.6775  0.5995 -0.0843
   41CHL1   H14 2977   3.581   6.998   7.745  0.4985  2.6877  1.1306
   41CHL1   C15 2978   3.766   7.029   7.837  0.5329 -0.0621 -0.3411
   41CHL1  H15A 2979   3.863   6.977   7.822  0.6744 -0.9306  2.8049
   41CHL1  H15B 2980   3.781   7.132   7.799  0.3188  0.4704  0.9678
   41CHL1   C16 2981   3.713   7.022   7.979  0.0177  0.1079  0.0317
   41CHL1  H16A 2982   3.798   6.991   8.043  0.9263 -1.0052 -1.6584
   41CHL1  H16B 2983   3.662   7.115   8.012  1.3422  1.3142 -1.2056
   41CHL1   C17 2984   3.606   6.900   7.981 -0.0277  0.1347 -0.0024
   41CHL1   H17 2985   3.503   6.939   7.978 -0.3393 -0.3704  2.1337
   41CHL1   C13 2986   3.637   6.817   7.850 -0.0181  0.0089  0.1437
   41CHL1   C18 2987   3.751   6.715   7.886  0.4724 -0.1655  0.3748
   41CHL1  H18A 2988   3.700   6.617   7.897 -1.8763  0.8606 -0.5388
   41CHL1  H18B 2989   3.821   6.698   7.802  0.8031 -2.6503  1.0854
   41CHL1  H18C 2990   3.812   6.739   7.975  2.3428  1.6607 -1.2948
   41CHL1   C12 2991   3.521   6.732   7.788 -0.6132 -0.5063  0.2833
   41CHL1  H12A 2992   3.492   6.654   7.862  3.1210 -1.4888  0.8842
   41CHL1  H12B 2993   3.429   6.794   7.784 -0.6353 -0.5055  0.7469
   41CHL1   C11 2994   3.562   6.675   7.657  0.3811  0.2970  0.1944
   41CHL1  H11A 2995   3.648   6.606   7.673  0.6060  0.8533  1.5305
   41CHL1  H11B 2996   3.477   6.618   7.614  0.1706 -0.3143  1.3674
   41CHL1    C9 2997   3.611   6.787   7.562 -0.4985  0.1854  0.3086
   41CHL1    H9 2998   3.516   6.844   7.552 -0.7348  0.0243  1.5516
   41CHL1   C10 2999   3.650   6.729   7.423 -0.0838  0.4940 -0.2178
   41CHL1   C19 3000   3.774   6.633   7.441  0.3536 -0.3062 -0.5917
   41CHL1  H19A 3001   3.749   6.539   7.497  0.6407  0.1400  0.3085
   41CHL1  H19B 3002   3.816   6.591   7.347  2.8938 -3.1669  1.5952
   41CHL1  H19C 3003   3.855   6.682   7.500 -2.4164 -0.3922  3.7749
   41CHL1    C1 3004   3.526   6.653   7.363 -0.5805 -0.4777  0.3541
   41CHL1   H1A 3005   3.517   6.556   7.416  3.0348 -0.3259  1.5748
   41CHL1   H1B 3006   3.442   6.725   7.370 -1.5290 -1.1919 -2.6527
   41CHL1    C2 3007   3.550   6.615   7.212  0.3194 -0.1224  0.3217
   41CHL1   H2A 3008   3.453   6.594   7.163  1.0223  0.1960 -1.2616
   41CHL1   H2B 3009   3.622   6.532   7.198  0.4695  0.1781 -0.7785
   41CHL1   C20 3010   3.600   6.834   8.123  0.4301 -0.2630 -0.1477
   41CHL1   H20 3011   3.700   6.807   8.162  0.2677 -1.9464 -0.8166
   41CHL1   C21 3012   3.505   6.715   8.117  0.5194  0.4152  0.2923
   41CHL1  H21A 3013   3.473   6.690   8.221  0.8336  0.6455  0.4458
   41CHL1  H21B 3014   3.550   6.621   8.079 -0.6378 -0.3546  0.7602
   41CHL1  H21C 3015   3.411   6.743   8.064  0.1911 -0.5077  0.3703
   41CHL1   C22 3016   3.554   6.938   8.226  0.1800  1.0043 -0.6752
   41CHL1  H22A 3017   3.608   7.035   8.228  2.2524 -0.1065 -0.9445
   41CHL1  H22B 3018   3.448   6.950   8.192 -0.1640 -2.7227 -1.2666
   41CHL1   C23 3019   3.545   6.880   8.371 -0.1250 -0.4578 -0.6540
   41CHL1  H23A 3020   3.488   6.785   8.374 -0.4764 -0.2718  2.5640
   41CHL1  H23B 3021   3.651   6.866   8.403 -0.5160  0.8868  1.4467
   41CHL1   C24 3022   3.477   6.979   8.464 -0.1952 -0.0040  0.6239
   41CHL1  H24A 3023   3.525   7.079   8.456 -0.1011 -0.0583  0.5050
   41CHL1  H24B 3024   3.378   6.993   8.415  0.2999 -0.6035 -0.6041
   41CHL1   C25 3025   3.472   6.931   8.604 -0.0072  0.5899  0.3934
   41CHL1   H25 3026   3.451   6.822   8.605 -0.1898  0.6083  2.9064
   41CHL1   C26 3027   3.605   6.964   8.669 -0.4811  0.4982 -0.6651
   41CHL1  H26A 3028   3.633   7.071   8.656  2.4135  0.1215  1.3494
   41CHL1  H26B 3029   3.601   6.936   8.777  1.9822 -2.1550 -1.1519
   41CHL1  H26C 3030   3.691   6.907   8.628  0.3236  0.7608  0.5931
   41CHL1   C27 3031   3.351   6.978   8.684  0.6870  0.2450 -0.6563
   41CHL1  H27A 3032   3.252   6.974   8.634  0.7753 -1.8999 -0.7403
   41CHL1  H27B 3033   3.349   6.924   8.781  0.0958 -1.7311 -1.7039
   41CHL1  H27C 3034   3.373   7.085   8.703  0.9832  0.0997 -0.1709
   42CHL1    C3 3035   0.400   6.064   7.190  0.1561  0.4848 -0.2332
   42CHL1    H3 3036   0.295   6.032   7.180  0.5862 -0.3549 -2.9805
   42CHL1    O3 3037   0.455   6.059   7.057 -0.0005 -0.6244  0.3771
   42CHL1   H3' 3038   0.543   6.096   7.068 -0.6029  0.6841  0.9358
   42CHL1    C4 3039   0.415   6.215   7.246  0.6577  0.1147  0.0315
   42CHL1   H4A 3040   0.518   6.252   7.230  0.7376  0.0357  0.3542
   42CHL1   H4B 3041   0.356   6.286   7.184 -0.3379 -0.4693  0.2718
   42CHL1    C5 3042   0.381   6.231   7.393 -0.0097  0.2762 -0.2222
   42CHL1    C6 3043   0.300   6.328   7.440  0.5265  0.9218  0.1613
   42CHL1    H6 3044   0.259   6.395   7.363  0.7774 -0.6414 -1.4051
   42CHL1    C7 3045   0.274   6.359   7.585  0.2789 -0.3923 -0.1785
   42CHL1   H7A 3046   0.288   6.466   7.609 -0.5147 -0.0190 -1.3012
   42CHL1   H7B 3047   0.168   6.336   7.608  0.3384 -0.9644 -0.4468
   42CHL1    C8 3048   0.363   6.264   7.677  0.6746 -0.4818 -0.1885
   42CHL1    H8 3049   0.466   6.305   7.678 -0.4530  2.6428  0.2493
   42CHL1   C14 3050   0.301   6.264   7.815 -0.4133 -0.3725 -0.5474
   42CHL1   H14 3051   0.201   6.218   7.806 -0.2783 -0.3926 -2.3296
   42CHL1   C15 3052   0.275   6.402   7.887 -0.5729 -0.2665  0.0762
   42CHL1  H15A 3053   0.359   6.472   7.872 -0.3935 -0.6220 -0.6128
   42CHL1  H15B 3054   0.173   6.434   7.854 -1.9722 -3.5369  0.8295
   42CHL1   C16 3055   0.262   6.357   8.032  0.0961 -0.3650 -1.0937
   42CHL1  H16A 3056   0.311   6.420   8.109  1.6190 -2.1149 -0.5522
   42CHL1  H16B 3057   0.157   6.364   8.068  0.7489 -0.3397  0.9157
   42CHL1   C17 3058   0.312   6.209   8.050 -0.6454 -0.3802  0.0527
   42CHL1   H17 3059   0.220   6.148   8.061 -1.5236  0.7776 -0.6323
   42CHL1   C13 3060   0.379   6.174   7.914 -0.0284 -0.0530  0.5871
   42CHL1   C18 3061   0.524   6.225   7.929  0.5933 -0.2277  0.4173
   42CHL1  H18A 3062   0.565   6.222   7.826  0.6314 -0.0246  0.4266
   42CHL1  H18B 3063   0.527   6.331   7.960  0.6616  0.3702 -1.5096
   42CHL1  H18C 3064   0.594   6.152   7.977  1.0449 -0.7636 -1.0066
   42CHL1   C12 3065   0.369   6.025   7.858 -0.0254 -0.3474 -0.9003
   42CHL1  H12A 3066   0.422   5.961   7.932  0.8352  1.2487 -0.0953
   42CHL1  H12B 3067   0.263   5.991   7.860 -0.2457  0.2482 -1.7313
   42CHL1   C11 3068   0.435   6.012   7.723 -0.7870 -0.2813  0.0977
   42CHL1  H11A 3069   0.542   6.027   7.749 -0.6815 -1.3285  0.2850
   42CHL1  H11B 3070   0.408   5.915   7.676 -0.2423  0.5722 -2.1040
   42CHL1    C9 3071   0.379   6.121   7.622 -0.5418 -0.3523  0.5473
   42CHL1    H9 3072   0.275   6.087   7.606  0.5027 -4.0066  0.6003
   42CHL1   C10 3073   0.452   6.124   7.484  0.8706 -0.3328 -0.6508
   42CHL1   C19 3074   0.605   6.154   7.502  0.0296  0.0351  0.2857
   42CHL1  H19A 3075   0.652   6.165   7.401 -1.0210 -2.8297 -0.6110
   42CHL1  H19B 3076   0.614   6.251   7.555 -2.6990  1.2397 -1.2200
   42CHL1  H19C 3077   0.656   6.069   7.552  1.7709  1.9873  2.0235
   42CHL1    C1 3078   0.453   5.981   7.422  0.0818  0.1714  0.1838
   42CHL1   H1A 3079   0.528   5.917   7.473  0.7220  2.0560  1.7283
   42CHL1   H1B 3080   0.355   5.932   7.443  0.3104 -0.3675  0.0125
   42CHL1    C2 3081   0.486   5.963   7.273  0.4867  0.0998  0.2101
   42CHL1   H2A 3082   0.459   5.857   7.249 -0.0144  0.4088 -0.6360
   42CHL1   H2B 3083   0.596   5.977   7.264  0.6395 -1.2919 -0.3829
   42CHL1   C20 3084   0.384   6.185   8.177 -0.0709 -0.2037 -0.0298
   42CHL1   H20 3085   0.481   6.238   8.185  0.5510 -1.3549  0.2536
   42CHL1   C21 3086   0.430   6.037   8.195  0.6111  0.2167 -0.6976
   42CHL1  H21A 3087   0.351   5.962   8.215  0.7249 -0.1325 -1.5211
   42CHL1  H21B 3088   0.493   6.026   8.285 -1.0028  0.7701  0.5474
   42CHL1  H21C 3089   0.495   5.998   8.113  0.2090  0.4293 -1.1259
   42CHL1   C22 3090   0.298   6.217   8.303  0.2050 -0.0628 -0.6311
   42CHL1  H22A 3091   0.224   6.299   8.289 -0.9561 -1.1854 -1.2450
   42CHL1  H22B 3092   0.244   6.126   8.334  0.7310 -0.0250  0.4221
   42CHL1   C23 3093   0.387   6.272   8.423  0.6454 -0.3096  0.0796
   42CHL1  H23A 3094   0.457   6.196   8.464  2.4882  1.4461  0.3292
   42CHL1  H23B 3095   0.452   6.357   8.394  0.2256  0.2944  0.8985
   42CHL1   C24 3096   0.303   6.327   8.539  0.0225  0.3226  0.7817
   42CHL1  H24A 3097   0.255   6.423   8.511 -1.8699 -1.0554 -1.0355
   42CHL1  H24B 3098   0.224   6.250   8.551  2.3272 -2.2601  0.5492
   42CHL1   C25 3099   0.365   6.348   8.673 -0.2362  0.2932  0.3220
   42CHL1   H25 3100   0.416   6.257   8.711 -1.9278  0.3172  2.9317
   42CHL1   C26 3101   0.458   6.474   8.667 -1.0416  0.3299 -0.2547
   42CHL1  H26A 3102   0.527   6.477   8.754 -0.3969  0.3093 -0.7605
   42CHL1  H26B 3103   0.524   6.468   8.578 -0.3450  2.6439  0.0601
   42CHL1  H26C 3104   0.392   6.563   8.658 -1.8069 -0.0213  1.3982
   42CHL1   C27 3105   0.258   6.371   8.781 -0.1823 -0.0410 -0.2549
   42CHL1  H27A 3106   0.199   6.464   8.771  1.3146  0.9822  0.0929
   42CHL1  H27B 3107   0.305   6.375   8.882 -2.7921  1.9951  0.9851
   42CHL1  H27C 3108   0.182   6.291   8.775  1.1894 -1.4396  0.1946
   43CHL1    C3 3109   4.983   2.037   7.035 -0.4928  0.3345  0.5450
   43CHL1    H3 3110   5.042   2.131   7.041  0.9936 -0.6080  1.2265
   43CHL1    O3 3111   4.953   2.035   6.896 -0.1904 -0.3085  0.2480
   43CHL1   H3' 3112   5.038   2.019   6.853 -1.4118 -1.7870 -1.8576
   43CHL1    C4 3113   5.070   1.911   7.073  0.1897  0.0641 -0.1216
   43CHL1   H4A 3114   5.012   1.823   7.038  0.8788 -0.4186 -0.0658
   43CHL1   H4B 3115   5.159   1.903   7.007  0.9441  0.1315  0.8559
   43CHL1    C5 3116   5.099   1.894   7.224 -0.2299 -0.0794 -0.1584
   43CHL1    C6 3117   5.226   1.882   7.267 -0.3413 -0.8074 -0.1878
   43CHL1    H6 3118   5.308   1.875   7.194 -0.6518  0.1307 -0.6447
   43CHL1    C7 3119   5.254   1.880   7.420 -1.5825 -0.5078  0.0852
   43CHL1   H7A 3120   5.340   1.811   7.434 -0.7450  0.3199 -0.8142
   43CHL1   H7B 3121   5.296   1.977   7.452  1.1157 -1.4345 -0.4047
   43CHL1    C8 3122   5.142   1.835   7.514 -0.3222 -0.0317  0.2741
   43CHL1    H8 3123   5.137   1.728   7.486 -1.3079  0.8766 -3.7637
   43CHL1   C14 3124   5.169   1.864   7.657 -0.4950  0.1442  0.1300
   43CHL1   H14 3125   5.166   1.974   7.669 -1.6807  0.0260  1.0789
   43CHL1   C15 3126   5.303   1.822   7.715  0.3753 -0.8805  0.5974
   43CHL1  H15A 3127   5.338   1.727   7.669  1.1407 -0.2285 -0.1989
   43CHL1  H15B 3128   5.388   1.892   7.705 -0.8017  0.4851 -0.3675
   43CHL1   C16 3129   5.271   1.786   7.857  0.4124 -0.2553  0.2526
   43CHL1  H16A 3130   5.303   1.683   7.884 -0.2804 -0.4160  0.4888
   43CHL1  H16B 3131   5.336   1.841   7.929 -0.6374 -0.0928  1.0958
   43CHL1   C17 3132   5.123   1.834   7.883 -0.2100 -0.0469 -0.3573
   43CHL1   H17 3133   5.129   1.945   7.894  1.8498  0.0857 -2.1123
   43CHL1   C13 3134   5.057   1.807   7.748 -0.0888 -0.5747 -0.1768
   43CHL1   C18 3135   5.039   1.659   7.720 -0.1412  0.0754  0.1577
   43CHL1  H18A 3136   4.965   1.615   7.790  0.2566 -1.2443 -0.2261
   43CHL1  H18B 3137   4.996   1.639   7.620  1.1043  0.5646 -0.5011
   43CHL1  H18C 3138   5.134   1.600   7.717  0.4465  0.9050  1.3270
   43CHL1   C12 3139   4.928   1.880   7.712 -0.3484 -0.3785 -0.3736
   43CHL1  H12A 3140   4.838   1.833   7.758  0.6008 -0.8764  1.0382
   43CHL1  H12B 3141   4.942   1.980   7.758 -0.5531 -0.8895  0.8385
   43CHL1   C11 3142   4.891   1.900   7.561 -0.5645  0.4929 -0.1062
   43CHL1  H11A 3143   4.839   1.810   7.523 -1.0252  0.6794  0.0790
   43CHL1  H11B 3144   4.818   1.979   7.536 -0.8532  0.7762  1.4957
   43CHL1    C9 3145   5.017   1.913   7.464  0.2613 -0.6974 -0.0135
   43CHL1    H9 3146   5.031   2.022   7.483  1.4569 -0.5705 -1.4858
   43CHL1   C10 3147   4.973   1.901   7.310 -0.5176  0.5592 -0.3541
   43CHL1   C19 3148   4.891   1.768   7.279 -0.7902 -1.1005  0.0341
   43CHL1  H19A 3149   4.786   1.784   7.313 -0.1243 -3.2707  3.6101
   43CHL1  H19B 3150   4.872   1.739   7.173 -2.5882 -0.5004  0.1575
   43CHL1  H19C 3151   4.939   1.678   7.323 -0.8068 -0.3440  1.6406
   43CHL1    C1 3152   4.894   2.032   7.271  0.8824 -0.4592  0.1892
   43CHL1   H1A 3153   4.793   2.033   7.316  0.8632 -0.0629  0.1370
   43CHL1   H1B 3154   4.938   2.128   7.304  0.5194 -0.1251 -0.2957
   43CHL1    C2 3155   4.858   2.036   7.124  0.1547 -0.2906  0.1119
   43CHL1   H2A 3156   4.789   2.118   7.098  0.8221  0.6957  1.3469
   43CHL1   H2B 3157   4.794   1.953   7.086 -1.5854  1.6311 -1.3733
   43CHL1   C20 3158   5.054   1.770   8.009 -0.8029 -0.0893 -0.7310
   43CHL1   H20 3159   5.018   1.666   7.989 -1.9430 -0.0336  0.8112
   43CHL1   C21 3160   4.927   1.847   8.047 -0.0985 -0.3029  0.0391
   43CHL1  H21A 3161   4.895   1.818   8.150 -0.6566 -0.8680 -0.2910
   43CHL1  H21B 3162   4.854   1.806   7.975  1.0177 -1.1662 -0.6269
   43CHL1  H21C 3163   4.938   1.957   8.065 -2.1400 -0.5116  3.6102
   43CHL1   C22 3164   5.142   1.753   8.137  0.2768  0.5263  0.2552
   43CHL1  H22A 3165   5.247   1.738   8.104 -0.6749 -0.2804 -2.7673
   43CHL1  H22B 3166   5.137   1.844   8.201 -0.7367 -0.1864  1.2299
   43CHL1   C23 3167   5.094   1.645   8.231  0.0684 -0.1589  0.6234
   43CHL1  H23A 3168   4.991   1.669   8.263  0.4003  0.0398  1.5858
   43CHL1  H23B 3169   5.102   1.558   8.162 -0.4469  0.1366  0.1807
   43CHL1   C24 3170   5.194   1.628   8.342 -0.6363  0.0727  0.0767
   43CHL1  H24A 3171   5.296   1.607   8.301 -0.2206  0.8385  0.6860
   43CHL1  H24B 3172   5.205   1.727   8.391  0.5135 -0.5443  1.1439
   43CHL1   C25 3173   5.168   1.525   8.453 -0.5291  0.4776  0.1801
   43CHL1   H25 3174   5.249   1.530   8.529  0.9391  1.0575 -1.3689
   43CHL1   C26 3175   5.034   1.558   8.517 -0.3669 -0.3220 -0.2777
   43CHL1  H26A 3176   5.036   1.657   8.566 -0.3071 -1.0256  1.1986
   43CHL1  H26B 3177   4.956   1.548   8.438  0.8718  1.0653 -1.7622
   43CHL1  H26C 3178   5.010   1.471   8.582 -2.3079  0.8284  0.6338
   43CHL1   C27 3179   5.174   1.382   8.387  0.7398  0.7310  0.7150
   43CHL1  H27A 3180   5.131   1.307   8.457  0.6538 -0.8356 -0.9464
   43CHL1  H27B 3181   5.115   1.378   8.294  1.2006 -3.5114  0.3974
   43CHL1  H27C 3182   5.282   1.360   8.372  0.5318  1.6697 -3.2433
   44CHL1    C3 3183   6.006   0.624   6.853 -0.0352 -0.6706 -0.0694
   44CHL1    H3 3184   5.919   0.556   6.847 -0.3552 -0.1967 -0.8805
   44CHL1    O3 3185   6.024   0.675   6.724  0.1322  0.1136 -0.1263
   44CHL1   H3' 3186   6.092   0.743   6.734  0.2796  0.4507 -2.7576
   44CHL1    C4 3187   5.967   0.748   6.940 -0.3623 -0.3002 -0.0551
   44CHL1   H4A 3188   6.044   0.826   6.917  0.2768 -1.1590 -0.9209
   44CHL1   H4B 3189   5.879   0.795   6.891  1.4602 -0.6010 -4.1026
   44CHL1    C5 3190   5.963   0.722   7.090 -0.2240  0.1411  1.0999
   44CHL1    C6 3191   5.856   0.744   7.160  0.2326  0.8773  0.1666
   44CHL1    H6 3192   5.768   0.795   7.117  1.8615  1.8556 -2.2669
   44CHL1    C7 3193   5.842   0.695   7.298 -0.1628 -0.8821  0.1510
   44CHL1   H7A 3194   5.773   0.759   7.357 -0.6012 -0.7701 -0.4728
   44CHL1   H7B 3195   5.786   0.599   7.298 -1.6430 -0.0930  2.0462
   44CHL1    C8 3196   5.976   0.684   7.369 -0.1734 -0.1315  0.2452
   44CHL1    H8 3197   6.027   0.783   7.378 -0.0944 -0.3424  3.2890
   44CHL1   C14 3198   5.964   0.624   7.509 -0.5727 -0.1982  0.3036
   44CHL1   H14 3199   5.908   0.528   7.503 -2.0976  0.7059 -0.5529
   44CHL1   C15 3200   5.867   0.687   7.608 -0.3714 -0.7068 -0.0459
   44CHL1  H15A 3201   5.880   0.797   7.614 -1.2315 -0.5936 -0.0524
   44CHL1  H15B 3202   5.760   0.668   7.581 -0.0458 -2.5468 -0.2070
   44CHL1   C16 3203   5.913   0.638   7.753  0.1111 -0.0082 -0.7022
   44CHL1  H16A 3204   5.948   0.729   7.806 -2.3537  0.1908  0.7337
   44CHL1  H16B 3205   5.831   0.598   7.816  0.9943  0.9779  1.1654
   44CHL1   C17 3206   6.035   0.545   7.727 -0.3268  1.1024  0.5749
   44CHL1   H17 3207   5.988   0.445   7.713  1.8833 -0.1248  1.4305
   44CHL1   C13 3208   6.091   0.592   7.591 -0.1294 -0.0292  0.2382
   44CHL1   C18 3209   6.178   0.715   7.607 -0.1346  0.7919  0.0822
   44CHL1  H18A 3210   6.273   0.696   7.661 -0.7054 -1.1876  0.4530
   44CHL1  H18B 3211   6.211   0.766   7.514 -1.8909  0.0350 -1.0149
   44CHL1  H18C 3212   6.132   0.793   7.672 -0.2900  1.9360 -1.3466
   44CHL1   C12 3213   6.155   0.482   7.503 -0.2430 -0.1098  0.4694
   44CHL1  H12A 3214   6.235   0.435   7.563  1.8453  3.5511  0.8725
   44CHL1  H12B 3215   6.080   0.402   7.491  1.3110 -1.7268  1.0277
   44CHL1   C11 3216   6.188   0.536   7.361  0.7480  0.5345 -0.7674
   44CHL1  H11A 3217   6.265   0.616   7.357  1.3062 -0.0174 -3.7208
   44CHL1  H11B 3218   6.226   0.456   7.294  1.1833  0.3151 -0.2584
   44CHL1    C9 3219   6.058   0.587   7.287  1.0620  0.2765  0.0937
   44CHL1    H9 3220   6.002   0.493   7.269  0.7442  0.1537  1.5892
   44CHL1   C10 3221   6.079   0.645   7.145 -0.0201 -0.4433  0.4677
   44CHL1   C19 3222   6.208   0.737   7.146 -0.0432 -0.2085 -0.6107
   44CHL1  H19A 3223   6.294   0.673   7.175  0.3559  0.4460 -0.3462
   44CHL1  H19B 3224   6.223   0.789   7.049  1.0936 -0.1701 -0.4289
   44CHL1  H19C 3225   6.200   0.811   7.227 -1.1357  0.2953 -1.1557
   44CHL1    C1 3226   6.111   0.524   7.058  0.4652 -0.6411  0.2271
   44CHL1   H1A 3227   6.213   0.485   7.076  0.9661 -0.5834 -2.1967
   44CHL1   H1B 3228   6.045   0.434   7.063 -1.6328  0.7386 -0.8963
   44CHL1    C2 3229   6.132   0.566   6.911  0.5710  0.2034 -0.4716
   44CHL1   H2A 3230   6.161   0.482   6.844  1.8506 -0.8134  1.2839
   44CHL1   H2B 3231   6.207   0.648   6.906 -0.5449  1.6643  3.2266
   44CHL1   C20 3232   6.129   0.543   7.847 -0.0167  0.0965 -0.1579
   44CHL1   H20 3233   6.170   0.646   7.857 -0.5099  0.1191  2.1833
   44CHL1   C21 3234   6.251   0.446   7.832  1.0413  0.1307 -0.2913
   44CHL1  H21A 3235   6.321   0.441   7.918  0.9566  2.0875 -0.0470
   44CHL1  H21B 3236   6.313   0.466   7.742  1.1148 -0.4321 -0.3686
   44CHL1  H21C 3237   6.206   0.345   7.824  1.5108  0.0256 -1.9987
   44CHL1   C22 3238   6.047   0.512   7.975 -0.4092  0.7254 -0.1614
   44CHL1  H22A 3239   5.944   0.555   7.978 -0.9649 -0.5924  0.7887
   44CHL1  H22B 3240   6.037   0.402   7.976 -0.9661  0.7716  1.1100
   44CHL1   C23 3241   6.126   0.552   8.104  0.5166 -0.3872  0.3244
   44CHL1  H23A 3242   6.213   0.483   8.109  0.8244 -0.6405 -4.4710
   44CHL1  H23B 3243   6.161   0.656   8.091  3.4661 -1.5329 -2.2060
   44CHL1   C24 3244   6.038   0.546   8.229 -0.0055 -0.5308 -0.6326
   44CHL1  H24A 3245   6.110   0.576   8.308 -1.7484 -3.0553  2.1721
   44CHL1  H24B 3246   5.962   0.627   8.223 -0.8292 -1.1506  0.8398
   44CHL1   C25 3247   5.967   0.414   8.267 -0.1209 -0.6384  0.5425
   44CHL1   H25 3248   5.950   0.354   8.175  1.1632  0.9101 -0.7753
   44CHL1   C26 3249   6.058   0.324   8.351  0.2638 -0.3043 -0.4037
   44CHL1  H26A 3250   6.152   0.313   8.292 -0.3780 -0.5153 -1.4035
   44CHL1  H26B 3251   6.078   0.363   8.453 -0.7412 -2.8202  0.8531
   44CHL1  H26C 3252   6.011   0.226   8.375  0.7726  0.0852  2.5669
   44CHL1   C27 3253   5.834   0.446   8.334  0.3074 -0.3741  0.3615
   44CHL1  H27A 3254   5.785   0.355   8.375 -3.5244  1.1274 -0.5297
   44CHL1  H27B 3255   5.838   0.525   8.411 -0.7790 -0.9146  0.9978
   44CHL1  H27C 3256   5.766   0.486   8.256 -0.1445 -1.9488 -0.1026
   45CHL1    C3 3257   0.313   2.266   6.936  0.1472 -0.0052 -0.1619
   45CHL1    H3 3258   0.203   2.278   6.941 -0.0751 -1.3480 -1.2091
   45CHL1    O3 3259   0.350   2.269   6.801  0.3267 -0.0082 -0.5837
   45CHL1   H3' 3260   0.436   2.309   6.785  0.3309  0.1495 -0.1636
   45CHL1    C4 3261   0.403   2.371   7.002  0.6500  0.7181  0.0774
   45CHL1   H4A 3262   0.508   2.350   6.971 -0.3180 -2.2056 -1.6909
   45CHL1   H4B 3263   0.384   2.467   6.951 -1.2084  0.5570  0.4159
   45CHL1    C5 3264   0.382   2.378   7.147 -1.3475  0.2653 -0.2277
   45CHL1    C6 3265   0.332   2.478   7.210  0.2324 -0.2481 -0.0391
   45CHL1    H6 3266   0.321   2.576   7.161 -1.2509 -0.5957 -0.4519
   45CHL1    C7 3267   0.313   2.474   7.359  0.0747  0.1100  0.5995
   45CHL1   H7A 3268   0.335   2.574   7.401 -2.0134  1.7358 -1.8684
   45CHL1   H7B 3269   0.203   2.457   7.370 -0.0462 -1.0270 -1.6471
   45CHL1    C8 3270   0.394   2.365   7.436  0.4256  0.1355  0.4292
   45CHL1    H8 3271   0.502   2.388   7.424  0.3285 -0.3370 -1.8277
   45CHL1   C14 3272   0.340   2.360   7.576 -0.0814  0.7934 -0.5624
   45CHL1   H14 3273   0.233   2.336   7.561 -0.1732  1.8860 -1.8004
   45CHL1   C15 3274   0.332   2.490   7.661  0.0571 -0.0586  0.2724
   45CHL1  H15A 3275   0.431   2.533   7.688 -1.0014  0.7788  3.2102
   45CHL1  H15B 3276   0.261   2.560   7.614  1.4481  0.4335 -1.1994
   45CHL1   C16 3277   0.285   2.430   7.792 -0.2074 -0.1288 -1.2589
   45CHL1  H16A 3278   0.324   2.485   7.881 -1.0155 -2.6378  0.7674
   45CHL1  H16B 3279   0.175   2.444   7.778 -0.0586  0.9088 -1.4754
   45CHL1   C17 3280   0.315   2.276   7.796  0.3582 -0.4970  0.5239
   45CHL1   H17 3281   0.218   2.223   7.780 -1.2842  1.9988  1.5509
   45CHL1   C13 3282   0.397   2.252   7.667  0.8347 -0.4714 -0.3130
   45CHL1   C18 3283   0.543   2.275   7.710 -0.2266  0.3174  0.4718
   45CHL1  H18A 3284   0.584   2.183   7.756  1.4826  0.5454 -0.5181
   45CHL1  H18B 3285   0.613   2.299   7.627  0.5304  1.0508  1.3148
   45CHL1  H18C 3286   0.560   2.357   7.783  0.7155  0.3349  0.2413
   45CHL1   C12 3287   0.374   2.117   7.598 -0.2029 -0.2255  0.3188
   45CHL1  H12A 3288   0.424   2.033   7.651 -2.6390 -2.3365 -0.5179
   45CHL1  H12B 3289   0.264   2.100   7.598 -0.1305 -0.8131  1.7668
   45CHL1   C11 3290   0.431   2.116   7.456 -0.9222 -0.2399  0.0984
   45CHL1  H11A 3291   0.541   2.132   7.454 -1.1999  2.0652  0.3560
   45CHL1  H11B 3292   0.398   2.027   7.398 -1.3543  1.0710 -1.7634
   45CHL1    C9 3293   0.375   2.232   7.367 -0.0640  0.3013  0.0181
   45CHL1    H9 3294   0.265   2.216   7.367 -0.0836  0.4218  0.3404
   45CHL1   C10 3295   0.423   2.237   7.216  0.4787 -0.4029 -0.0305
   45CHL1   C19 3296   0.576   2.202   7.195  0.1729  0.4969 -0.5564
   45CHL1  H19A 3297   0.640   2.274   7.249  0.3770 -1.2239  1.6677
   45CHL1  H19B 3298   0.595   2.103   7.242  0.3882  0.0467 -1.5602
   45CHL1  H19C 3299   0.602   2.184   7.089 -0.1258 -6.1750  0.0335
   45CHL1    C1 3300   0.341   2.127   7.138  0.1325  0.4527  0.0088
   45CHL1   H1A 3301   0.367   2.027   7.179  2.2325  0.8872 -0.1581
   45CHL1   H1B 3302   0.237   2.137   7.177  0.5544 -0.6329  1.5390
   45CHL1    C2 3303   0.347   2.124   6.987 -0.4318  0.3506 -0.2458
   45CHL1   H2A 3304   0.279   2.042   6.954 -0.3817  0.6567 -1.1317
   45CHL1   H2B 3305   0.448   2.088   6.960 -0.1320 -0.8496  2.1863
   45CHL1   C20 3306   0.366   2.227   7.935 -0.4217  0.3482  0.3802
   45CHL1   H20 3307   0.461   2.278   7.961 -1.2077  1.3018  1.4860
   45CHL1   C21 3308   0.407   2.076   7.931  0.1844  0.0794  0.0635
   45CHL1  H21A 3309   0.505   2.055   7.883 -0.8653 -1.9556 -1.3206
   45CHL1  H21B 3310   0.327   2.026   7.872 -0.4804  1.0031  0.1442
   45CHL1  H21C 3311   0.428   2.040   8.034  0.4519  1.9786  0.7152
   45CHL1   C22 3312   0.261   2.259   8.045 -0.3336 -0.2848  0.9819
   45CHL1  H22A 3313   0.246   2.368   8.033  0.9143 -0.2452 -0.6099
   45CHL1  H22B 3314   0.163   2.206   8.041  0.3531 -1.5733  0.3879
   45CHL1   C23 3315   0.322   2.253   8.187 -0.1937 -0.4802  0.9300
   45CHL1  H23A 3316   0.402   2.179   8.207  1.1062  0.4968 -0.4783
   45CHL1  H23B 3317   0.381   2.346   8.200  0.2877 -0.8369  1.3332
   45CHL1   C24 3318   0.209   2.249   8.296  0.2767 -0.4827 -0.3772
   45CHL1  H24A 3319   0.144   2.339   8.288 -1.2514 -1.2321  2.4944
   45CHL1  H24B 3320   0.151   2.160   8.262 -0.4442  0.0018 -0.4494
   45CHL1   C25 3321   0.252   2.247   8.445  0.2202 -0.1248  0.8294
   45CHL1   H25 3322   0.324   2.162   8.448 -0.0751 -0.5665 -2.0453
   45CHL1   C26 3323   0.327   2.381   8.486 -0.4204 -0.4536 -0.5056
   45CHL1  H26A 3324   0.435   2.371   8.465 -0.0700  0.9790  0.5000
   45CHL1  H26B 3325   0.284   2.475   8.444  0.1777  0.4899  0.9310
   45CHL1  H26C 3326   0.314   2.386   8.596  0.7872  0.0537 -0.3811
   45CHL1   C27 3327   0.129   2.217   8.534 -0.1993  0.1074  0.5204
   45CHL1  H27A 3328   0.077   2.130   8.490 -0.3438  0.9713 -1.0605
   45CHL1  H27B 3329   0.145   2.199   8.643  0.5731 -0.9327  0.2502
   45CHL1  H27C 3330   0.067   2.310   8.540  0.7468  0.7578  0.3969
   46CHL1    C3 3331   0.631   3.465   7.026 -0.4782  0.3017 -0.3139
   46CHL1    H3 3332   0.740   3.479   7.018 -0.0016 -2.5839  0.0693
   46CHL1    O3 3333   0.571   3.490   6.897 -0.8118  0.5330 -0.0739
   46CHL1   H3' 3334   0.596   3.581   6.880  0.5463 -0.3600 -4.2564
   46CHL1    C4 3335   0.594   3.328   7.075 -0.2046 -0.0814  0.5126
   46CHL1   H4A 3336   0.483   3.323   7.067 -0.1298 -0.2942 -0.4385
   46CHL1   H4B 3337   0.635   3.247   7.012 -1.0667  0.4072 -0.7160
   46CHL1    C5 3338   0.644   3.316   7.219 -0.2455 -0.5535  0.2748
   46CHL1    C6 3339   0.716   3.205   7.251  0.2520  0.1410  0.3230
   46CHL1    H6 3340   0.740   3.130   7.174 -1.1893  0.1001 -0.1275
   46CHL1    C7 3341   0.769   3.177   7.389 -0.5170  0.0055  0.8857
   46CHL1   H7A 3342   0.758   3.070   7.415  1.0493 -0.4265 -0.1058
   46CHL1   H7B 3343   0.876   3.203   7.400 -0.4669 -1.1294  4.6996
   46CHL1    C8 3344   0.694   3.267   7.505  0.1494 -0.8315  0.0427
   46CHL1    H8 3345   0.591   3.225   7.506 -0.4299  0.5697  0.4320
   46CHL1   C14 3346   0.769   3.248   7.635 -0.3448 -0.5562  0.0986
   46CHL1   H14 3347   0.866   3.294   7.607 -0.2160 -1.9265 -1.8966
   46CHL1   C15 3348   0.807   3.109   7.693 -0.4527  0.2070  0.3988
   46CHL1  H15A 3349   0.729   3.030   7.693 -0.0982 -0.2391 -2.2335
   46CHL1  H15B 3350   0.909   3.084   7.656 -0.9886  1.0409 -1.8087
   46CHL1   C16 3351   0.824   3.139   7.849  0.3117 -0.0421  0.2104
   46CHL1  H16A 3352   0.750   3.073   7.898 -2.1623  2.3231 -0.0699
   46CHL1  H16B 3353   0.925   3.111   7.884  0.4737 -3.6525 -2.5465
   46CHL1   C17 3354   0.804   3.288   7.869  0.6017 -0.7874 -0.1344
   46CHL1   H17 3355   0.907   3.320   7.843  2.2761 -3.2223  2.9062
   46CHL1   C13 3356   0.718   3.331   7.745 -0.0356  0.7390 -0.0532
   46CHL1   C18 3357   0.567   3.293   7.782 -0.7032  0.9742  0.4594
   46CHL1  H18A 3358   0.501   3.312   7.695 -0.3075  1.0053  0.1628
   46CHL1  H18B 3359   0.543   3.190   7.814  0.6793  0.1244 -1.0959
   46CHL1  H18C 3360   0.531   3.360   7.863 -2.3744  1.7190 -0.8581
   46CHL1   C12 3361   0.733   3.476   7.704 -0.5440 -0.4460 -0.3455
   46CHL1  H12A 3362   0.712   3.550   7.785 -0.2008 -0.2322 -0.4475
   46CHL1  H12B 3363   0.841   3.495   7.684 -0.6954  0.8363 -0.0651
   46CHL1   C11 3364   0.654   3.509   7.577 -0.4005 -0.1604 -0.3160
   46CHL1  H11A 3365   0.546   3.510   7.602 -0.2561  2.0158  0.4719
   46CHL1  H11B 3366   0.682   3.609   7.536 -2.5109  0.0353 -1.4580
   46CHL1    C9 3367   0.689   3.414   7.466  0.0385 -0.1253  0.2723
   46CHL1    H9 3368   0.795   3.440   7.442 -1.0015  2.2400 -2.2381
   46CHL1   C10 3369   0.614   3.427   7.329 -0.4175  0.1595 -0.2402
   46CHL1   C19 3370   0.467   3.436   7.358  0.4664 -0.1712 -0.0508
   46CHL1  H19A 3371   0.439   3.522   7.423  0.0317 -0.0459 -0.4002
   46CHL1  H19B 3372   0.402   3.431   7.268  1.0809 -0.0370 -0.5017
   46CHL1  H19C 3373   0.432   3.347   7.415  1.1145 -0.2862  0.1789
   46CHL1    C1 3374   0.643   3.561   7.259  0.1625 -0.4385  0.1852
   46CHL1   H1A 3375   0.612   3.646   7.324  1.9057  2.2850 -2.2678
   46CHL1   H1B 3376   0.750   3.586   7.239  0.4431 -2.4063 -0.9461
   46CHL1    C2 3377   0.583   3.577   7.117  0.4322  0.0898  0.2007
   46CHL1   H2A 3378   0.606   3.677   7.074  1.4837 -0.4709 -0.5909
   46CHL1   H2B 3379   0.472   3.581   7.118  0.4579  1.5368 -0.4737
   46CHL1   C20 3380   0.766   3.327   8.013 -0.4359  0.0418 -0.2294
   46CHL1   H20 3381   0.655   3.327   8.023 -0.6402  1.0437 -2.1297
   46CHL1   C21 3382   0.799   3.481   8.032  0.4979  0.2847  0.0217
   46CHL1  H21A 3383   0.907   3.504   8.017  0.3392  0.2661 -1.2312
   46CHL1  H21B 3384   0.778   3.512   8.136 -1.5232  2.4709 -0.9503
   46CHL1  H21C 3385   0.733   3.545   7.970  0.4749  0.3366  0.0998
   46CHL1   C22 3386   0.832   3.237   8.120 -0.1823  0.2178  0.7109
   46CHL1  H22A 3387   0.792   3.133   8.126 -0.4817  0.1760 -1.3183
   46CHL1  H22B 3388   0.940   3.238   8.093 -0.3559  1.2760  0.0319
   46CHL1   C23 3389   0.824   3.291   8.264  0.7000 -0.0732  0.0436
   46CHL1  H23A 3390   0.868   3.393   8.274  2.1862 -0.7357  0.4970
   46CHL1  H23B 3391   0.722   3.319   8.296  0.9947 -0.3322  1.2582
   46CHL1   C24 3392   0.895   3.189   8.358  0.0169 -0.3364  0.2837
   46CHL1  H24A 3393   0.860   3.089   8.324 -0.2696 -0.1240 -0.0635
   46CHL1  H24B 3394   1.005   3.189   8.344  0.2043  1.2432  1.5095
   46CHL1   C25 3395   0.879   3.212   8.515  0.3336 -0.2957 -0.6347
   46CHL1   H25 3396   0.776   3.243   8.545  1.2812 -0.1468  2.8644
   46CHL1   C26 3397   0.911   3.084   8.594  0.1356  0.1643  0.6417
   46CHL1  H26A 3398   1.011   3.044   8.565 -1.4731 -2.2892 -2.1687
   46CHL1  H26B 3399   0.892   3.107   8.701 -1.2149 -0.0209  0.4589
   46CHL1  H26C 3400   0.840   3.008   8.553 -1.7000  1.0362  2.0446
   46CHL1   C27 3401   0.972   3.336   8.562 -1.0708  0.0713  0.2725
   46CHL1  H27A 3402   0.942   3.426   8.503  0.2959  0.5594  0.2905
   46CHL1  H27B 3403   0.963   3.354   8.671 -0.9384  0.5063  0.2101
   46CHL1  H27C 3404   1.079   3.312   8.544 -1.2795 -0.6403 -0.0996
   47CHL1    C3 3405   6.626   1.915   6.850  0.9347  0.3591 -0.3275
   47CHL1    H3 3406   6.519   1.946   6.852  0.3969 -1.1839 -2.0636
   47CHL1    O3 3407   6.645   1.916   6.712  0.2398  0.7093 -0.3355
   47CHL1   H3' 3408   6.738   1.896   6.698  0.4581  2.3797 -1.6574
   47CHL1    C4 3409   6.709   2.025   6.917  0.1528 -1.2521 -0.5906
   47CHL1   H4A 3410   6.814   2.000   6.888  0.1290 -0.0547 -1.7902
   47CHL1   H4B 3411   6.693   2.125   6.873  1.1727 -1.1442 -0.7575
   47CHL1    C5 3412   6.704   2.022   7.070 -0.3519 -0.2188  0.1121
   47CHL1    C6 3413   6.686   2.132   7.138  0.0034 -0.5899  0.2821
   47CHL1    H6 3414   6.679   2.230   7.087  1.0188  0.1158  1.4251
   47CHL1    C7 3415   6.682   2.137   7.287  0.5384  0.4417 -0.2893
   47CHL1   H7A 3416   6.749   2.218   7.323  2.2345 -1.6566  1.5803
   47CHL1   H7B 3417   6.577   2.157   7.318  0.6233 -1.7293  1.6649
   47CHL1    C8 3418   6.719   2.001   7.363 -0.5565 -0.3631  0.2591
   47CHL1    H8 3419   6.830   1.995   7.366 -0.4913  0.5238 -0.1032
   47CHL1   C14 3420   6.674   1.998   7.505  0.0991  0.3131 -0.1663
   47CHL1   H14 3421   6.563   2.001   7.498 -0.0011  0.8534  1.3578
   47CHL1   C15 3422   6.704   2.112   7.598  0.0032 -0.3786 -0.0723
   47CHL1  H15A 3423   6.800   2.165   7.582  0.0569 -0.9839 -1.8884
   47CHL1  H15B 3424   6.618   2.183   7.603 -0.3289 -0.8140  0.6802
   47CHL1   C16 3425   6.714   2.053   7.737 -0.5757 -0.0013  0.2216
   47CHL1  H16A 3426   6.812   2.027   7.781 -1.5625 -0.7248  2.1272
   47CHL1  H16B 3427   6.643   2.106   7.805 -1.7367  0.0551 -0.9999
   47CHL1   C17 3428   6.670   1.900   7.729  0.1592  0.0235 -0.1711
   47CHL1   H17 3429   6.559   1.907   7.727  0.1490  0.0736  0.4029
   47CHL1   C13 3430   6.714   1.871   7.582  0.1927 -0.3105  0.3530
   47CHL1   C18 3431   6.873   1.843   7.579 -0.2131  0.2234 -0.0324
   47CHL1  H18A 3432   6.924   1.851   7.481 -1.7844 -1.1752 -1.0233
   47CHL1  H18B 3433   6.923   1.911   7.650  0.9764  1.0715 -1.6148
   47CHL1  H18C 3434   6.893   1.739   7.615 -0.6905  0.7765  1.9446
   47CHL1   C12 3435   6.645   1.754   7.501  0.5346 -0.0185 -0.3306
   47CHL1  H12A 3436   6.684   1.661   7.547 -1.5102 -0.7408  0.0350
   47CHL1  H12B 3437   6.534   1.757   7.500  0.4941  0.0956  1.1868
   47CHL1   C11 3438   6.694   1.750   7.357 -0.0174 -0.1124  0.5902
   47CHL1  H11A 3439   6.805   1.745   7.366  0.0333 -0.8244 -0.2834
   47CHL1  H11B 3440   6.671   1.657   7.302 -0.1344 -1.0608  2.1656
   47CHL1    C9 3441   6.661   1.884   7.284 -0.0321  0.8555 -0.5948
   47CHL1    H9 3442   6.550   1.890   7.287 -0.4026 -2.9068  2.6363
   47CHL1   C10 3443   6.713   1.877   7.138 -0.2426 -0.6293 -0.3084
   47CHL1   C19 3444   6.852   1.818   7.130 -0.1481  0.5518  0.0697
   47CHL1  H19A 3445   6.892   1.837   7.028  1.3295 -1.0444  0.3061
   47CHL1  H19B 3446   6.912   1.870   7.207 -0.1008 -0.6938  0.8942
   47CHL1  H19C 3447   6.852   1.711   7.161 -1.3549  0.9575  1.5998
   47CHL1    C1 3448   6.620   1.788   7.057  0.2291  1.2192 -0.2126
   47CHL1   H1A 3449   6.639   1.688   7.101  2.8469  2.7550  2.5617
   47CHL1   H1B 3450   6.513   1.810   7.079  0.4731  1.2383  1.0496
   47CHL1    C2 3451   6.647   1.778   6.911 -0.0748  1.0913  0.6854
   47CHL1   H2A 3452   6.584   1.704   6.858  1.9587  0.9214 -1.6737
   47CHL1   H2B 3453   6.745   1.729   6.892 -0.4180  1.0356 -1.1144
   47CHL1   C20 3454   6.717   1.796   7.832 -0.2060 -0.0767 -0.3116
   47CHL1   H20 3455   6.819   1.761   7.809  0.7062  1.2527  1.4562
   47CHL1   C21 3456   6.642   1.663   7.834 -0.5354  0.4691  0.0672
   47CHL1  H21A 3457   6.669   1.589   7.912  1.5087  1.4722  0.3785
   47CHL1  H21B 3458   6.644   1.608   7.738 -0.7423 -0.9246  0.8462
   47CHL1  H21C 3459   6.539   1.702   7.853  0.5736  4.1318 -0.5857
   47CHL1   C22 3460   6.726   1.859   7.976  0.0590 -0.0344  0.1792
   47CHL1  H22A 3461   6.794   1.945   7.964 -0.0090 -0.0846 -0.6134
   47CHL1  H22B 3462   6.628   1.896   8.013  0.5205  0.3804  0.9907
   47CHL1   C23 3463   6.788   1.777   8.088  0.2393  0.0901  0.0556
   47CHL1  H23A 3464   6.712   1.711   8.136  0.0433  0.7216  0.6401
   47CHL1  H23B 3465   6.863   1.710   8.041  1.9423 -0.2713  3.0477
   47CHL1   C24 3466   6.840   1.858   8.205 -0.0580  0.0114 -0.1532
   47CHL1  H24A 3467   6.936   1.894   8.160 -3.2985  3.4245 -5.3932
   47CHL1  H24B 3468   6.765   1.936   8.231  1.5084  0.2722  4.5741
   47CHL1   C25 3469   6.862   1.771   8.324  0.2064 -0.5361  0.3413
   47CHL1   H25 3470   6.853   1.667   8.284 -0.1314 -0.1268 -0.6952
   47CHL1   C26 3471   7.005   1.797   8.382  0.9307  0.2717 -0.4329
   47CHL1  H26A 3472   7.077   1.768   8.303 -0.4746  1.5822 -2.2796
   47CHL1  H26B 3473   7.019   1.902   8.415  2.6641  0.7909 -2.6296
   47CHL1  H26C 3474   7.016   1.739   8.476 -0.9524 -0.6519 -0.7177
   47CHL1   C27 3475   6.747   1.778   8.425 -0.2173 -0.2364  0.6678
   47CHL1  H27A 3476   6.728   1.884   8.453  2.5681  0.7050 -0.6443
   47CHL1  H27B 3477   6.662   1.732   8.371  0.1730  0.1519 -0.3058
   47CHL1  H27C 3478   6.771   1.722   8.518 -0.3054  0.0314  0.8531
   48CHL1    C3 3479   1.626   4.999   6.668  0.1795 -0.0842 -0.2495
   48CHL1    H3 3480   1.654   5.096   6.714 -1.4801  0.6508 -0.7100
   48CHL1    O3 3481   1.638   5.007   6.523  0.4151  0.3933 -0.3148
   48CHL1   H3' 3482   1.627   4.917   6.489  0.4748  0.8691 -1.6541
   48CHL1    C4 3483   1.709   4.876   6.719  0.0619  0.2273  0.0816
   48CHL1   H4A 3484   1.682   4.790   6.655 -3.5483 -1.6314  3.6250
   48CHL1   H4B 3485   1.817   4.894   6.699  0.4795 -2.6899 -0.7208
   48CHL1    C5 3486   1.684   4.838   6.862 -0.1539  0.6366  0.0256
   48CHL1    C6 3487   1.788   4.832   6.949 -0.1008  0.6613  0.0365
   48CHL1    H6 3488   1.891   4.860   6.923  0.8284  0.3189  2.9767
   48CHL1    C7 3489   1.783   4.787   7.089  0.6578  0.3875 -0.6384
   48CHL1   H7A 3490   1.844   4.694   7.098  0.8908  0.5584 -0.4346
   48CHL1   H7B 3491   1.831   4.870   7.145 -1.0824 -0.0902  1.7270
   48CHL1    C8 3492   1.638   4.745   7.130  0.0169 -0.3533  0.1067
   48CHL1    H8 3493   1.607   4.646   7.092 -1.1250  0.7608 -2.0403
   48CHL1   C14 3494   1.630   4.756   7.278  0.1331  0.0384  0.3004
   48CHL1   H14 3495   1.646   4.863   7.303  1.2744 -0.2234  0.7480
   48CHL1   C15 3496   1.734   4.688   7.361  0.0304 -0.0669  0.4215
   48CHL1  H15A 3497   1.751   4.582   7.332 -0.4025  0.1207 -0.5833
   48CHL1  H15B 3498   1.832   4.741   7.369 -1.1989  2.6116 -1.0000
   48CHL1   C16 3499   1.674   4.681   7.503  0.2914  0.6724  0.4668
   48CHL1  H16A 3500   1.673   4.576   7.538 -2.1240  0.1731 -0.8482
   48CHL1  H16B 3501   1.728   4.747   7.574 -1.7116  1.6686  1.1373
   48CHL1   C17 3502   1.522   4.729   7.487 -0.0685  0.3236 -0.5893
   48CHL1   H17 3503   1.528   4.838   7.509  1.8390  0.3667 -1.1665
   48CHL1   C13 3504   1.495   4.715   7.341  0.6305  0.4824  0.4013
   48CHL1   C18 3505   1.475   4.565   7.305  0.0670  0.7176  0.3880
   48CHL1  H18A 3506   1.447   4.556   7.198 -1.1539  0.0250  0.7522
   48CHL1  H18B 3507   1.560   4.496   7.322 -0.2838  0.2461  0.2333
   48CHL1  H18C 3508   1.389   4.516   7.356 -0.3854  1.6383  0.5398
   48CHL1   C12 3509   1.377   4.798   7.274  0.3047 -0.6736 -0.4062
   48CHL1  H12A 3510   1.283   4.748   7.306  1.0229 -2.7102 -1.3188
   48CHL1  H12B 3511   1.385   4.904   7.307 -1.0367 -0.6452 -0.1284
   48CHL1   C11 3512   1.386   4.797   7.119 -0.2836 -0.0694  0.2062
   48CHL1  H11A 3513   1.351   4.704   7.069 -1.9983  0.4951  0.2877
   48CHL1  H11B 3514   1.311   4.870   7.083 -2.0976 -1.1325  1.6445
   48CHL1    C9 3515   1.530   4.836   7.062 -0.0641 -0.3096 -0.7414
   48CHL1    H9 3516   1.560   4.937   7.098 -0.8870 -0.0125 -0.8528
   48CHL1   C10 3517   1.541   4.833   6.908  0.0044 -0.0171  0.2997
   48CHL1   C19 3518   1.467   4.711   6.843  0.1854  0.7748 -0.1393
   48CHL1  H19A 3519   1.363   4.749   6.835  0.5373  1.5501 -1.2578
   48CHL1  H19B 3520   1.507   4.679   6.744  0.4637  1.1081 -0.1373
   48CHL1  H19C 3521   1.462   4.612   6.894  0.3253  0.2874 -1.0377
   48CHL1    C1 3522   1.475   4.959   6.861  0.5302 -0.5072  0.9498
   48CHL1   H1A 3523   1.368   4.961   6.890 -0.0305  1.0285 -0.9896
   48CHL1   H1B 3524   1.528   5.042   6.912  0.4990 -1.4352  2.5490
   48CHL1    C2 3525   1.478   4.987   6.708  0.5830 -0.3510 -0.3423
   48CHL1   H2A 3526   1.429   5.084   6.683  0.1725  0.0469  1.8598
   48CHL1   H2B 3527   1.439   4.902   6.648  1.0074  0.9085 -2.5411
   48CHL1   C20 3528   1.433   4.661   7.600 -0.3998 -0.0384  0.0032
   48CHL1   H20 3529   1.390   4.568   7.555 -2.5639  0.9584 -0.1291
   48CHL1   C21 3530   1.318   4.769   7.609 -0.0771 -0.2783 -0.3572
   48CHL1  H21A 3531   1.237   4.726   7.672  0.4181  1.2048  1.3740
   48CHL1  H21B 3532   1.281   4.796   7.508  0.2811 -2.9912 -1.2752
   48CHL1  H21C 3533   1.355   4.853   7.672 -0.0955 -0.0881 -0.5943
   48CHL1   C22 3534   1.499   4.642   7.741  0.6838  0.1192 -0.1246
   48CHL1  H22A 3535   1.591   4.579   7.741 -0.3781 -1.5431  1.9437
   48CHL1  H22B 3536   1.532   4.740   7.782 -0.2606  1.4258 -2.3488
   48CHL1   C23 3537   1.402   4.568   7.832  0.0520  0.2022  0.0090
   48CHL1  H23A 3538   1.331   4.646   7.867 -1.0259 -0.7192 -0.0644
   48CHL1  H23B 3539   1.338   4.499   7.773 -0.9442  0.6320  0.5605
   48CHL1   C24 3540   1.472   4.490   7.953  0.0207  0.2408  0.6342
   48CHL1  H24A 3541   1.382   4.448   8.004 -1.3898 -0.4374 -2.1575
   48CHL1  H24B 3542   1.542   4.412   7.917  1.7920  1.9394  0.2525
   48CHL1   C25 3543   1.529   4.591   8.055  0.8092 -0.5116  0.1547
   48CHL1   H25 3544   1.456   4.675   8.058  1.4488  0.0344  0.8701
   48CHL1   C26 3545   1.545   4.532   8.199 -0.6708  0.3759  0.4836
   48CHL1  H26A 3546   1.622   4.453   8.192 -1.3584 -0.1325 -2.2758
   48CHL1  H26B 3547   1.583   4.611   8.267  0.8372  0.4305 -0.3670
   48CHL1  H26C 3548   1.452   4.481   8.233  0.4853 -0.5511  2.4418
   48CHL1   C27 3549   1.669   4.636   8.019  0.4002 -0.4238 -0.3635
   48CHL1  H27A 3550   1.722   4.567   7.949  1.4939  0.7295 -0.7038
   48CHL1  H27B 3551   1.664   4.729   7.958 -0.9208 -0.6239 -0.5865
   48CHL1  H27C 3552   1.739   4.663   8.101  1.8457  0.7837 -1.9246
   49CHL1    C3 3553   1.913   6.088   7.040  0.3307 -0.5747  0.0741
   49CHL1    H3 3554   1.844   6.000   7.040 -0.4009 -0.0488 -1.7228
   49CHL1    O3 3555   1.944   6.119   6.905  0.2974  0.0798 -0.6310
   49CHL1   H3' 3556   1.862   6.155   6.869 -0.6310 -0.9675  0.3918
   49CHL1    C4 3557   1.846   6.216   7.095 -0.1816  0.1340 -0.2903
   49CHL1   H4A 3558   1.914   6.302   7.078  0.5720 -0.8818 -2.9219
   49CHL1   H4B 3559   1.755   6.231   7.032  0.2436 -2.0738 -1.5388
   49CHL1    C5 3560   1.822   6.199   7.247 -0.3939  0.1975  0.4806
   49CHL1    C6 3561   1.706   6.234   7.296 -0.4039  0.3232  0.6156
   49CHL1    H6 3562   1.635   6.274   7.222  0.0056  0.2706  0.1939
   49CHL1    C7 3563   1.674   6.229   7.445  0.3158  0.6294  0.5220
   49CHL1   H7A 3564   1.627   6.322   7.484 -0.8223 -0.3795  1.6653
   49CHL1   H7B 3565   1.597   6.154   7.474 -1.0397  1.8995  0.3505
   49CHL1    C8 3566   1.812   6.208   7.535  0.3543 -0.2560  0.5588
   49CHL1    H8 3567   1.862   6.307   7.537  1.7326 -0.9055 -0.2947
   49CHL1   C14 3568   1.777   6.167   7.677 -0.0408  0.5042  0.6372
   49CHL1   H14 3569   1.730   6.067   7.693 -0.4661  0.6669  0.4272
   49CHL1   C15 3570   1.678   6.265   7.758 -1.0728 -0.6589  0.9973
   49CHL1  H15A 3571   1.692   6.369   7.721  0.7112 -1.1828  0.1244
   49CHL1  H15B 3572   1.571   6.241   7.741 -1.9757  3.3226 -0.1774
   49CHL1   C16 3573   1.719   6.240   7.902  0.1118 -0.6392  0.7565
   49CHL1  H16A 3574   1.764   6.337   7.932 -0.4268  0.6718 -2.2572
   49CHL1  H16B 3575   1.642   6.198   7.971  0.5084 -2.3549  0.2074
   49CHL1   C17 3576   1.836   6.136   7.908 -0.6757  1.3026  0.1016
   49CHL1   H17 3577   1.787   6.037   7.910 -1.3497  1.6280  0.0809
   49CHL1   C13 3578   1.905   6.158   7.773  0.2218  0.5735  0.3009
   49CHL1   C18 3579   1.981   6.292   7.771  0.1485 -0.1004  0.2737
   49CHL1  H18A 3580   1.918   6.381   7.788  1.5273  0.7628  1.0775
   49CHL1  H18B 3581   2.059   6.296   7.850  0.3354 -0.0283  0.0870
   49CHL1  H18C 3582   2.036   6.313   7.676  1.4510 -1.9599  0.5428
   49CHL1   C12 3583   1.988   6.043   7.713 -0.6143 -0.1046 -0.5939
   49CHL1  H12A 3584   2.087   6.025   7.761 -0.3861 -0.5112 -1.1867
   49CHL1  H12B 3585   1.934   5.946   7.716 -0.5073 -0.1624 -0.5326
   49CHL1   C11 3586   2.026   6.067   7.566  0.0465 -0.7345  0.0400
   49CHL1  H11A 3587   2.104   6.146   7.555 -2.8162  1.9231 -3.0939
   49CHL1  H11B 3588   2.070   5.970   7.533  1.3071 -0.7952  1.7065
   49CHL1    C9 3589   1.901   6.097   7.474  0.1659 -0.4589  0.4835
   49CHL1    H9 3590   1.841   6.004   7.465  0.6709 -0.6258 -1.5941
   49CHL1   C10 3591   1.941   6.141   7.329  0.6108 -0.3597  0.7901
   49CHL1   C19 3592   2.036   6.263   7.338  0.2516 -0.5800 -0.5502
   49CHL1  H19A 3593   2.057   6.301   7.236  0.1501 -0.4511 -0.5236
   49CHL1  H19B 3594   1.988   6.353   7.384  0.3361 -0.8266  0.0226
   49CHL1  H19C 3595   2.133   6.230   7.380 -0.2234 -2.4407 -0.8297
   49CHL1    C1 3596   2.016   6.028   7.258 -0.3150 -0.9536  0.4993
   49CHL1   H1A 3597   2.109   6.005   7.314 -0.8301 -2.3527  0.8086
   49CHL1   H1B 3598   1.942   5.946   7.264  1.0314 -2.2500 -0.1736
   49CHL1    C2 3599   2.047   6.051   7.114 -0.4383  0.6301  1.4054
   49CHL1   H2A 3600   2.086   5.957   7.069 -1.2393  0.0973  1.7833
   49CHL1   H2B 3601   2.136   6.118   7.110  0.6442 -0.6759  2.4060
   49CHL1   C20 3602   1.920   6.145   8.033 -0.0415 -0.0310  0.0364
   49CHL1   H20 3603   2.007   6.214   8.029 -1.7292  2.1742  0.0685
   49CHL1   C21 3604   1.975   6.002   8.065 -1.0769  0.5067  0.0754
   49CHL1  H21A 3605   2.043   6.003   8.153 -3.2723  0.0910  1.8581
   49CHL1  H21B 3606   2.029   5.957   7.979 -0.9058  0.5329  0.1687
   49CHL1  H21C 3607   1.889   5.937   8.093 -1.0139  0.8999  1.2466
   49CHL1   C22 3608   1.845   6.186   8.171 -0.0795  0.5778 -0.5301
   49CHL1  H22A 3609   1.736   6.171   8.159 -0.2733 -1.0314  2.2529
   49CHL1  H22B 3610   1.890   6.124   8.251 -1.1249 -3.0358 -2.5343
   49CHL1   C23 3611   1.872   6.337   8.210  1.1959 -0.1400  0.2532
   49CHL1  H23A 3612   1.852   6.408   8.127  0.5120  1.4693  1.7317
   49CHL1  H23B 3613   1.784   6.357   8.275 -1.0452 -2.5057 -1.8322
   49CHL1   C24 3614   1.998   6.344   8.286 -0.2478 -0.9501 -0.2149
   49CHL1  H24A 3615   2.000   6.277   8.374  0.6521 -2.3755 -1.2796
   49CHL1  H24B 3616   2.090   6.329   8.226  1.1937 -0.2931  1.7314
   49CHL1   C25 3617   2.016   6.484   8.354 -0.5534 -0.3188  0.4918
   49CHL1   H25 3618   1.926   6.499   8.417  0.4648  0.5850  1.7949
   49CHL1   C26 3619   2.149   6.475   8.428  0.7443 -0.2132  1.5332
   49CHL1  H26A 3620   2.165   6.559   8.500 -1.2014  1.6365 -0.0739
   49CHL1  H26B 3621   2.149   6.380   8.486 -1.0465 -2.3578 -1.7364
   49CHL1  H26C 3622   2.240   6.478   8.365 -0.1237 -0.5729  0.2409
   49CHL1   C27 3623   2.019   6.598   8.246  0.1587 -0.4745  0.4406
   49CHL1  H27A 3624   2.006   6.694   8.301  2.7681 -0.7960  1.7747
   49CHL1  H27B 3625   2.112   6.590   8.186 -0.4334 -0.4778 -0.5011
   49CHL1  H27C 3626   1.931   6.586   8.180 -0.2277  0.7883  0.6975
   50CHL1    C3 3627   2.366   0.943   6.970  0.0288 -0.8477 -0.2882
   50CHL1    H3 3628   2.459   1.002   6.983 -0.0273 -0.2537 -2.2549
   50CHL1    O3 3629   2.342   0.915   6.833 -0.7716  0.4799  0.0849
   50CHL1   H3' 3630   2.275   0.846   6.840  0.3508 -0.5273  1.3818
   50CHL1    C4 3631   2.383   0.811   7.046 -0.7583  0.7452  0.3703
   50CHL1   H4A 3632   2.292   0.753   7.023  0.9471 -1.3586 -1.4814
   50CHL1   H4B 3633   2.466   0.755   6.998  0.0378  3.2066 -1.3647
   50CHL1    C5 3634   2.400   0.838   7.194 -0.6035  0.5271  0.1305
   50CHL1    C6 3635   2.512   0.802   7.259 -0.5262 -0.1084  0.0648
   50CHL1    H6 3636   2.594   0.747   7.210  0.2085 -0.1041  1.2396
   50CHL1    C7 3637   2.532   0.814   7.408 -0.5208  0.1304  0.6048
   50CHL1   H7A 3638   2.574   0.723   7.458  0.3862  0.7024  0.9076
   50CHL1   H7B 3639   2.613   0.886   7.431  1.3440 -1.7522  0.2072
   50CHL1    C8 3640   2.402   0.851   7.489 -0.1578  0.6845 -0.6076
   50CHL1    H8 3641   2.348   0.754   7.498  0.3789  0.4640  0.3748
   50CHL1   C14 3642   2.433   0.897   7.634 -0.4827 -0.6048 -0.2985
   50CHL1   H14 3643   2.495   0.987   7.616 -0.4708 -0.2597  1.2967
   50CHL1   C15 3644   2.500   0.795   7.719  0.0685 -0.1460 -0.2191
   50CHL1  H15A 3645   2.451   0.696   7.723  1.8740 -1.0626  0.5959
   50CHL1  H15B 3646   2.610   0.787   7.702 -0.1240 -2.7811 -0.7050
   50CHL1   C16 3647   2.467   0.864   7.859 -0.0861 -0.2586  0.7516
   50CHL1  H16A 3648   2.435   0.780   7.925  0.9837 -2.7639 -1.7223
   50CHL1  H16B 3649   2.558   0.912   7.902 -0.5145 -1.2037  2.8688
   50CHL1   C17 3650   2.368   0.971   7.837 -0.4750 -0.0372 -0.9403
   50CHL1   H17 3651   2.430   1.062   7.821  1.1817 -0.8862  0.3679
   50CHL1   C13 3652   2.305   0.943   7.702 -0.6245 -0.0778 -0.4749
   50CHL1   C18 3653   2.201   0.829   7.721 -0.3323  0.2591 -0.1096
   50CHL1  H18A 3654   2.101   0.855   7.760 -0.0410  1.7606 -0.2794
   50CHL1  H18B 3655   2.164   0.801   7.620  0.0963  2.0986 -0.8202
   50CHL1  H18C 3656   2.246   0.734   7.756  2.1015  1.0817 -0.7837
   50CHL1   C12 3657   2.242   1.063   7.625  0.0799  0.1337 -0.0004
   50CHL1  H12A 3658   2.158   1.096   7.689  2.0291  1.2313  2.1370
   50CHL1  H12B 3659   2.323   1.140   7.627 -2.3412  2.8648 -0.0131
   50CHL1   C11 3660   2.208   1.029   7.480 -0.5729 -0.2737 -0.3361
   50CHL1  H11A 3661   2.115   0.969   7.482 -0.6379 -0.1648  0.3685
   50CHL1  H11B 3662   2.175   1.115   7.419 -0.4788  0.7542  1.0031
   50CHL1    C9 3663   2.318   0.956   7.405 -0.0496  0.2477  0.6649
   50CHL1    H9 3664   2.395   1.036   7.395 -0.2818  0.5754  1.4060
   50CHL1   C10 3665   2.280   0.910   7.260 -0.3426  0.1407 -0.3337
   50CHL1   C19 3666   2.178   0.805   7.269  0.6266 -0.9589 -0.1860
   50CHL1  H19A 3667   2.137   0.770   7.172  1.9962 -1.9389 -0.4324
   50CHL1  H19B 3668   2.197   0.717   7.334 -0.4503 -0.7752  0.4028
   50CHL1  H19C 3669   2.091   0.845   7.325  0.8182  1.4712 -1.4817
   50CHL1    C1 3670   2.247   1.037   7.184  0.6515 -0.5805  0.0000
   50CHL1   H1A 3671   2.149   1.080   7.216  2.5880  2.0862  2.9243
   50CHL1   H1B 3672   2.318   1.118   7.210 -0.6725  0.7678 -0.3991
   50CHL1    C2 3673   2.241   1.011   7.029  0.6771  0.0095  0.0093
   50CHL1   H2A 3674   2.234   1.107   6.973  1.8333 -0.1936 -0.5220
   50CHL1   H2B 3675   2.146   0.957   7.011  1.2791 -1.3345  0.7351
   50CHL1   C20 3676   2.284   1.000   7.965  1.0569 -0.6860 -0.0023
   50CHL1   H20 3677   2.202   0.925   7.959 -1.0711  1.4295  0.7274
   50CHL1   C21 3678   2.226   1.155   7.956 -0.1051 -0.5492 -0.2914
   50CHL1  H21A 3679   2.160   1.177   8.042  2.0604  0.4343  1.2170
   50CHL1  H21B 3680   2.161   1.178   7.869 -2.2577 -4.5223  0.0243
   50CHL1  H21C 3681   2.305   1.234   7.960 -3.0970  2.7034 -0.8339
   50CHL1   C22 3682   2.360   0.986   8.095 -0.1034  0.2974 -0.6267
   50CHL1  H22A 3683   2.410   0.887   8.104  1.4607  1.1594  0.7578
   50CHL1  H22B 3684   2.445   1.058   8.092  1.5776 -1.6046 -4.0254
   50CHL1   C23 3685   2.289   1.001   8.235  0.0998  0.3730 -0.2555
   50CHL1  H23A 3686   2.217   1.086   8.226 -1.4128 -0.8940 -0.6215
   50CHL1  H23B 3687   2.219   0.916   8.246  1.1374 -0.2349  2.4056
   50CHL1   C24 3688   2.387   1.012   8.354  0.0706  0.0306 -0.8442
   50CHL1  H24A 3689   2.465   0.935   8.332  0.7751  1.5105 -4.1933
   50CHL1  H24B 3690   2.446   1.106   8.344  1.7025 -0.9707 -0.9935
   50CHL1   C25 3691   2.317   1.000   8.492  0.0945  0.1896 -0.0139
   50CHL1   H25 3692   2.245   1.084   8.496  1.6891  1.6119  0.2567
   50CHL1   C26 3693   2.242   0.865   8.513  0.1671 -0.4705 -0.2760
   50CHL1  H26A 3694   2.317   0.785   8.530  0.2129 -0.3437  0.1394
   50CHL1  H26B 3695   2.183   0.869   8.608 -1.9911 -2.7501 -1.4076
   50CHL1  H26C 3696   2.166   0.841   8.436  0.2256  0.4276 -0.6198
   50CHL1   C27 3697   2.415   1.017   8.602 -0.0346 -0.4199  0.0271
   50CHL1  H27A 3698   2.501   0.949   8.582  0.0166 -0.6651  1.0222
   50CHL1  H27B 3699   2.460   1.118   8.613 -0.2920 -0.3027  0.0150
   50CHL1  H27C 3700   2.378   0.989   8.703 -1.6806  1.5043  0.0139
   51CHL1    C3 3701   3.091   5.041   6.906  0.7329  0.0991 -0.2946
   51CHL1    H3 3702   2.993   5.078   6.871  2.6594  2.6556 -3.6333
   51CHL1    O3 3703   3.160   5.021   6.783  0.1740 -0.2209 -0.0002
   51CHL1   H3' 3704   3.154   5.105   6.737  1.2386  0.9753  1.9151
   51CHL1    C4 3705   3.161   5.150   6.993 -0.2008  0.2162 -0.0537
   51CHL1   H4A 3706   3.268   5.125   7.008  0.7186  2.2885 -2.4484
   51CHL1   H4B 3707   3.161   5.247   6.939 -0.8025 -0.1969 -0.8167
   51CHL1    C5 3708   3.105   5.157   7.134  0.8083 -0.2249  0.2119
   51CHL1    C6 3709   3.076   5.273   7.197 -1.4429  0.3122 -0.2354
   51CHL1    H6 3710   3.098   5.362   7.137  1.0330 -0.8800 -1.2419
   51CHL1    C7 3711   3.042   5.293   7.344  0.2145 -0.4747  0.5229
   51CHL1   H7A 3712   3.104   5.377   7.383 -1.7540  1.5282 -0.5096
   51CHL1   H7B 3713   2.940   5.334   7.360  0.6289  0.7336  0.2151
   51CHL1    C8 3714   3.047   5.159   7.423  0.0931  0.1024 -0.3947
   51CHL1    H8 3715   3.148   5.139   7.466 -1.2994 -0.7706  2.8053
   51CHL1   C14 3716   2.965   5.158   7.554  0.5810  0.3305 -0.2571
   51CHL1   H14 3717   2.857   5.169   7.530  0.3099  3.5978  1.7145
   51CHL1   C15 3718   2.987   5.265   7.656  0.0215 -0.2337  0.7115
   51CHL1  H15A 3719   3.097   5.280   7.666  0.1289 -1.6738  2.1795
   51CHL1  H15B 3720   2.948   5.365   7.629  1.8186  0.2562 -0.2260
   51CHL1   C16 3721   2.942   5.211   7.791 -0.0532  0.0049  0.1935
   51CHL1  H16A 3722   3.020   5.216   7.870  1.4992  0.6351 -1.3134
   51CHL1  H16B 3723   2.851   5.263   7.826  0.1284  0.4806 -0.0304
   51CHL1   C17 3724   2.911   5.060   7.773 -0.4248 -0.0167 -0.9073
   51CHL1   H17 3725   2.803   5.039   7.762 -0.1062 -0.9626 -2.5243
   51CHL1   C13 3726   2.978   5.026   7.635  0.0323  0.3844 -0.2046
   51CHL1   C18 3727   3.128   4.990   7.659  0.2517 -0.3193 -0.1932
   51CHL1  H18A 3728   3.178   5.072   7.716  1.7609 -0.7926 -0.7804
   51CHL1  H18B 3729   3.152   4.893   7.706 -3.5009 -0.2641  2.2075
   51CHL1  H18C 3730   3.181   4.977   7.562 -1.2154 -1.6682 -0.8474
   51CHL1   C12 3731   2.906   4.919   7.560 -0.1283 -0.3007  0.3407
   51CHL1  H12A 3732   2.917   4.824   7.617  0.4147  0.8562  2.2615
   51CHL1  H12B 3733   2.800   4.932   7.528  0.8021 -0.5718 -3.2254
   51CHL1   C11 3734   2.971   4.909   7.419 -0.1490 -0.7120  0.6392
   51CHL1  H11A 3735   3.075   4.876   7.443 -0.0749 -0.7583  0.2552
   51CHL1  H11B 3736   2.920   4.831   7.359 -0.8307  0.5060 -0.4132
   51CHL1    C9 3737   2.996   5.038   7.339  0.4466 -0.5025 -0.3117
   51CHL1    H9 3738   2.893   5.060   7.303  0.3389 -2.0817 -1.0427
   51CHL1   C10 3739   3.080   5.022   7.202 -0.8181  0.7972  0.2776
   51CHL1   C19 3740   3.221   4.977   7.241 -0.5504  0.6852 -0.6684
   51CHL1  H19A 3741   3.268   5.042   7.318 -2.3245  0.3195  0.7995
   51CHL1  H19B 3742   3.214   4.878   7.292 -2.1348 -0.2297 -2.5289
   51CHL1  H19C 3743   3.291   4.949   7.160  2.3523  0.8311  1.6395
   51CHL1    C1 3744   3.012   4.921   7.110  0.4283  0.8244 -0.0576
   51CHL1   H1A 3745   2.992   4.823   7.159  0.6261  0.1233 -1.3309
   51CHL1   H1B 3746   2.909   4.956   7.086 -0.2259 -1.0087 -0.1006
   51CHL1    C2 3747   3.080   4.897   6.977  0.5580  0.4066 -0.1595
   51CHL1   H2A 3748   3.036   4.826   6.904  3.1127  0.9906 -2.3996
   51CHL1   H2B 3749   3.180   4.855   7.001 -0.2080  0.5900  4.1540
   51CHL1   C20 3750   2.948   4.971   7.901 -0.1398 -0.4894  0.1211
   51CHL1   H20 3751   3.057   4.963   7.917 -0.3106 -0.7173  1.2754
   51CHL1   C21 3752   2.910   4.828   7.865 -0.1315 -0.1827 -0.1123
   51CHL1  H21A 3753   2.805   4.816   7.829 -0.6975 -0.1552  1.4194
   51CHL1  H21B 3754   2.913   4.773   7.962 -0.0063  1.9486  1.1616
   51CHL1  H21C 3755   2.963   4.766   7.790 -0.2260 -1.7537  1.0600
   51CHL1   C22 3756   2.876   5.025   8.025  0.6578 -0.0677  0.1126
   51CHL1  H22A 3757   2.890   5.135   8.017 -0.3597 -0.0686 -2.3797
   51CHL1  H22B 3758   2.766   5.012   8.014  0.4401  1.3517  0.4211
   51CHL1   C23 3759   2.930   4.974   8.168  0.5230 -0.1190 -0.0263
   51CHL1  H23A 3760   2.909   4.865   8.171  2.6978 -0.5628  1.0539
   51CHL1  H23B 3761   3.041   4.983   8.174  0.3542  1.8493  0.6776
   51CHL1   C24 3762   2.874   5.050   8.281  0.2430 -0.7344  0.0459
   51CHL1  H24A 3763   2.891   5.157   8.258 -1.0838 -0.0488  2.0042
   51CHL1  H24B 3764   2.763   5.056   8.289  0.3148 -0.3199  0.8444
   51CHL1   C25 3765   2.939   5.021   8.413  0.0562  0.1119 -0.3753
   51CHL1   H25 3766   3.049   5.024   8.398  0.4640 -0.9630  1.9758
   51CHL1   C26 3767   2.897   5.132   8.511  0.7078  0.4928  0.4313
   51CHL1  H26A 3768   2.900   5.107   8.619  3.0201 -0.9187  0.1243
   51CHL1  H26B 3769   2.972   5.213   8.512  0.2884  0.8794  1.7195
   51CHL1  H26C 3770   2.799   5.173   8.478  1.3954  0.6554 -1.6115
   51CHL1   C27 3771   2.916   4.878   8.464 -0.0473 -0.0997 -0.8068
   51CHL1  H27A 3772   2.980   4.863   8.554  0.1381 -0.3829 -0.9858
   51CHL1  H27B 3773   2.809   4.870   8.493 -0.3142  0.4757 -1.6121
   51CHL1  H27C 3774   2.950   4.806   8.388  2.5341  2.4150 -2.2222
   52CHL1    C3 3775   3.388   6.143   7.232 -0.0294  0.4147 -0.4065
   52CHL1    H3 3776   3.280   6.121   7.217 -0.0198  0.9390 -1.3225
   52CHL1    O3 3777   3.452   6.138   7.104 -0.2520 -0.2549 -0.2695
   52CHL1   H3' 3778   3.431   6.051   7.071  0.1309 -1.3900  2.2370
   52CHL1    C4 3779   3.403   6.282   7.297  0.2874 -0.7653  0.2201
   52CHL1   H4A 3780   3.506   6.323   7.293 -0.4343  1.1896  0.6362
   52CHL1   H4B 3781   3.350   6.355   7.232 -0.9187 -2.6519 -1.0183
   52CHL1    C5 3782   3.355   6.298   7.435  0.2466  0.4325 -0.3861
   52CHL1    C6 3783   3.276   6.392   7.469 -0.0097  0.8832 -0.2720
   52CHL1    H6 3784   3.235   6.464   7.396  2.3158  2.3513 -0.2492
   52CHL1    C7 3785   3.223   6.414   7.604  0.2030  0.1160  0.0139
   52CHL1   H7A 3786   3.229   6.523   7.624 -2.4371  0.6213 -1.3847
   52CHL1   H7B 3787   3.115   6.388   7.613  0.9346 -3.5860 -0.2353
   52CHL1    C8 3788   3.304   6.342   7.712  0.7306 -0.1460  1.0790
   52CHL1    H8 3789   3.394   6.406   7.720 -0.5035  1.7258  0.7426
   52CHL1   C14 3790   3.237   6.342   7.852 -0.0078  0.4354 -0.0429
   52CHL1   H14 3791   3.139   6.293   7.836 -0.5417  2.0668 -2.2038
   52CHL1   C15 3792   3.191   6.472   7.910  0.1437  0.4518 -0.0527
   52CHL1  H15A 3793   3.274   6.545   7.896  2.4253 -1.5412  2.1934
   52CHL1  H15B 3794   3.092   6.509   7.875 -0.2995  0.3106  1.0226
   52CHL1   C16 3795   3.195   6.450   8.063 -0.0284  0.1768  0.4115
   52CHL1  H16A 3796   3.255   6.526   8.119 -0.5378  0.5215  0.5001
   52CHL1  H16B 3797   3.097   6.454   8.116 -0.4014 -2.1578  0.0008
   52CHL1   C17 3798   3.248   6.307   8.084 -0.0941  0.0873  0.1745
   52CHL1   H17 3799   3.162   6.236   8.083  0.8539 -1.1553 -1.7148
   52CHL1   C13 3800   3.324   6.271   7.960  0.0048  0.4672  0.1828
   52CHL1   C18 3801   3.466   6.334   7.958 -0.0449  0.0208 -0.2852
   52CHL1  H18A 3802   3.539   6.279   8.022 -1.1180 -2.1911 -0.8623
   52CHL1  H18B 3803   3.508   6.324   7.856  1.4151  3.3075 -0.1359
   52CHL1  H18C 3804   3.457   6.440   7.991  0.1932  0.0758 -0.3946
   52CHL1   C12 3805   3.338   6.118   7.925  0.9290 -0.1337  0.1953
   52CHL1  H12A 3806   3.412   6.080   7.999  0.2585  1.4715  1.7456
   52CHL1  H12B 3807   3.250   6.052   7.938 -0.9285  2.1351 -0.2266
   52CHL1   C11 3808   3.385   6.097   7.780 -0.0505 -0.0190  0.1620
   52CHL1  H11A 3809   3.492   6.123   7.793  0.1777  0.6985 -2.6059
   52CHL1  H11B 3810   3.374   5.995   7.738  2.0323  0.1155 -0.8493
   52CHL1    C9 3811   3.329   6.192   7.668  0.2674 -0.4073  0.4977
   52CHL1    H9 3812   3.229   6.151   7.640  0.4797 -1.1877  0.8422
   52CHL1   C10 3813   3.413   6.188   7.529  0.1306 -0.4608  0.3926
   52CHL1   C19 3814   3.562   6.202   7.558 -0.2774 -0.0069  0.3892
   52CHL1  H19A 3815   3.621   6.218   7.465 -0.3869  1.8634  0.6164
   52CHL1  H19B 3816   3.592   6.288   7.621  1.9267  0.2764 -0.9361
   52CHL1  H19C 3817   3.601   6.109   7.604  1.0210  0.3602  0.0714
   52CHL1    C1 3818   3.395   6.046   7.463  0.4681 -0.3825 -1.3294
   52CHL1   H1A 3819   3.458   5.979   7.525 -1.4973  0.1080  1.3634
   52CHL1   H1B 3820   3.286   6.026   7.473 -0.1204  2.6293 -0.7842
   52CHL1    C2 3821   3.446   6.036   7.328  0.1076  0.6439  0.6833
   52CHL1   H2A 3822   3.430   5.936   7.283  0.0322  0.2698  1.5330
   52CHL1   H2B 3823   3.555   6.056   7.320 -0.0251  0.5149 -2.7011
   52CHL1   C20 3824   3.317   6.292   8.224 -0.1498  1.0068  0.3727
   52CHL1   H20 3825   3.414   6.346   8.214  0.9015 -1.1315 -2.4240
   52CHL1   C21 3826   3.363   6.151   8.252  0.5762 -0.4306  0.6028
   52CHL1  H21A 3827   3.461   6.131   8.203  0.6931 -1.3794  1.1956
   52CHL1  H21B 3828   3.291   6.077   8.210 -0.2524 -0.6601  2.3400
   52CHL1  H21C 3829   3.376   6.147   8.362  1.4715  0.5278  0.5488
   52CHL1   C22 3830   3.244   6.341   8.349 -0.2874 -0.4493  0.6076
   52CHL1  H22A 3831   3.168   6.418   8.322 -0.5238 -0.8193  0.2242
   52CHL1  H22B 3832   3.203   6.255   8.405  0.8154  0.1649  2.4655
   52CHL1   C23 3833   3.337   6.408   8.448 -0.4034  0.3351  0.6012
   52CHL1  H23A 3834   3.429   6.349   8.469  0.5322  1.3890 -0.4475
   52CHL1  H23B 3835   3.383   6.501   8.410 -0.4406  0.2538  0.3582
   52CHL1   C24 3836   3.268   6.443   8.579 -0.3312  0.1811  0.2299
   52CHL1  H24A 3837   3.177   6.500   8.550  0.8723  2.6667  0.9658
   52CHL1  H24B 3838   3.224   6.353   8.624  0.0250 -0.0110  0.2009
   52CHL1   C25 3839   3.361   6.520   8.678 -0.1327  0.1861 -0.2416
   52CHL1   H25 3840   3.434   6.579   8.619 -0.3036 -1.7863 -2.5742
   52CHL1   C26 3841   3.266   6.621   8.746 -0.3259  0.1120 -0.1904
   52CHL1  H26A 3842   3.313   6.673   8.832  1.5483 -2.4330  0.4559
   52CHL1  H26B 3843   3.236   6.703   8.677 -0.8414  1.3806  1.5012
   52CHL1  H26C 3844   3.165   6.581   8.770 -0.8253  0.5618 -1.4330
   52CHL1   C27 3845   3.434   6.427   8.775  0.8242  0.4736  0.5471
   52CHL1  H27A 3846   3.499   6.479   8.850  0.5813  0.4247  0.7969
   52CHL1  H27B 3847   3.351   6.376   8.829  1.0449 -0.7252 -0.2311
   52CHL1  H27C 3848   3.482   6.347   8.717 -0.6285  0.9547 -1.4064
   53CHL1    C3 3849   6.287   3.347   7.251 -0.4206 -0.0932 -0.4168
   53CHL1    H3 3850   6.356   3.423   7.293 -0.9840  1.5273 -2.3184
   53CHL1    O3 3851   6.259   3.402   7.120  0.2168 -0.0306 -0.3237
   53CHL1   H3' 3852   6.183   3.350   7.090 -0.5438 -0.4452  2.1344
   53CHL1    C4 3853   6.344   3.210   7.257 -0.5074  0.2747 -0.0684
   53CHL1   H4A 3854   6.277   3.135   7.210 -1.3794 -0.5599  2.3351
   53CHL1   H4B 3855   6.440   3.218   7.202  1.0723  0.3912  2.5300
   53CHL1    C5 3856   6.368   3.173   7.401 -0.1047  0.2283  0.2141
   53CHL1    C6 3857   6.488   3.134   7.446  0.0663 -0.8511 -0.1982
   53CHL1    H6 3858   6.573   3.145   7.376  0.2996 -0.7201  0.1049
   53CHL1    C7 3859   6.513   3.098   7.586  0.4606  0.3619 -0.5127
   53CHL1   H7A 3860   6.590   3.017   7.584 -0.3676 -0.4575  0.1145
   53CHL1   H7B 3861   6.544   3.187   7.645 -1.4068  1.2645 -0.8250
   53CHL1    C8 3862   6.392   3.062   7.673  0.2025  0.4326  0.5550
   53CHL1    H8 3863   6.342   2.967   7.644 -1.8753  1.4007  0.7852
   53CHL1   C14 3864   6.417   3.056   7.818 -0.5927  0.2106  0.0409
   53CHL1   H14 3865   6.445   3.162   7.835 -1.7885  0.7415 -1.1409
   53CHL1   C15 3866   6.534   2.968   7.870  0.4508  0.7033 -0.4324
   53CHL1  H15A 3867   6.530   2.859   7.851 -1.2310  0.5807  0.4538
   53CHL1  H15B 3868   6.634   3.004   7.837  1.0467 -0.6384 -0.1564
   53CHL1   C16 3869   6.507   2.959   8.023 -0.2506 -0.5717  0.2992
   53CHL1  H16A 3870   6.510   2.853   8.058  0.9170 -0.8406 -0.5528
   53CHL1  H16B 3871   6.596   3.008   8.067 -0.4882  1.3608 -1.2458
   53CHL1   C17 3872   6.382   3.042   8.053 -0.4121 -0.5288  0.6781
   53CHL1   H17 3873   6.404   3.150   8.064 -1.0064 -0.3942  0.6155
   53CHL1   C13 3874   6.295   3.037   7.917  0.0723  0.5614  0.5540
   53CHL1   C18 3875   6.249   2.885   7.902  0.8523  0.2493 -0.6625
   53CHL1  H18A 3876   6.199   2.872   7.803 -1.1593  3.2159 -0.1488
   53CHL1  H18B 3877   6.332   2.812   7.917 -0.2487 -1.0919 -0.8123
   53CHL1  H18C 3878   6.174   2.862   7.981  0.8919 -0.1591 -0.7367
   53CHL1   C12 3879   6.193   3.149   7.894 -0.0769 -0.1701 -0.7246
   53CHL1  H12A 3880   6.096   3.135   7.946  0.3423  0.4517  0.2591
   53CHL1  H12B 3881   6.232   3.246   7.933 -0.2383 -0.0000 -0.9787
   53CHL1   C11 3882   6.157   3.160   7.743 -0.0663 -0.8241  0.2224
   53CHL1  H11A 3883   6.082   3.079   7.725 -0.1028 -1.1225  1.6025
   53CHL1  H11B 3884   6.097   3.250   7.717  0.9480  0.1214  1.0856
   53CHL1    C9 3885   6.283   3.168   7.648 -0.0610  0.6284 -0.2644
   53CHL1    H9 3886   6.319   3.272   7.668 -1.5074  1.3507 -1.2465
   53CHL1   C10 3887   6.247   3.182   7.497 -0.3829  0.7515  0.5757
   53CHL1   C19 3888   6.156   3.065   7.459 -0.0439 -0.3577 -0.9542
   53CHL1  H19A 3889   6.053   3.072   7.500 -0.2849  3.7375 -1.8465
   53CHL1  H19B 3890   6.142   3.040   7.352  3.0278 -4.7514 -0.5745
   53CHL1  H19C 3891   6.197   2.969   7.498  2.9229  0.4781 -1.8275
   53CHL1    C1 3892   6.171   3.317   7.473  0.1682 -0.5367 -0.0881
   53CHL1   H1A 3893   6.071   3.311   7.520 -0.1339 -0.2163 -0.6786
   53CHL1   H1B 3894   6.237   3.395   7.517  0.6749 -1.4427  0.8014
   53CHL1    C2 3895   6.156   3.359   7.326  0.4453  0.2520  0.2672
   53CHL1   H2A 3896   6.112   3.461   7.321  1.5590  0.7137 -0.4724
   53CHL1   H2B 3897   6.088   3.294   7.267  1.7388  0.6805 -1.7806
   53CHL1   C20 3898   6.304   3.001   8.181  0.1705  0.7243 -0.1911
   53CHL1   H20 3899   6.261   2.899   8.171 -0.2608  0.9476 -0.6371
   53CHL1   C21 3900   6.189   3.107   8.208  0.9731  0.0107 -0.4003
   53CHL1  H21A 3901   6.169   3.112   8.317 -1.1113 -0.6443 -0.7138
   53CHL1  H21B 3902   6.096   3.087   8.150  0.2598 -0.2724  0.8086
   53CHL1  H21C 3903   6.225   3.210   8.188  0.9472 -0.1050 -1.0580
   53CHL1   C22 3904   6.393   2.998   8.305 -0.8496  0.0413 -0.5458
   53CHL1  H22A 3905   6.328   2.956   8.385 -0.4374  0.6480  0.1280
   53CHL1  H22B 3906   6.477   2.927   8.290 -0.1825  0.7092 -0.0373
   53CHL1   C23 3907   6.455   3.128   8.347  0.4891  0.1902 -0.2468
   53CHL1  H23A 3908   6.506   3.172   8.259 -1.5355 -0.2906 -1.7331
   53CHL1  H23B 3909   6.372   3.193   8.382  0.1163  0.8767 -2.3143
   53CHL1   C24 3910   6.568   3.099   8.446 -0.2295 -0.2389 -0.5410
   53CHL1  H24A 3911   6.541   3.020   8.520  2.8706  1.0548  2.2588
   53CHL1  H24B 3912   6.662   3.070   8.394 -1.1781 -1.2280 -1.7601
   53CHL1   C25 3913   6.612   3.221   8.534 -0.2350  0.2454 -0.8601
   53CHL1   H25 3914   6.522   3.273   8.574  0.8413  1.1712  0.4016
   53CHL1   C26 3915   6.700   3.169   8.661  0.0583  0.4103 -0.0968
   53CHL1  H26A 3916   6.726   3.251   8.732  0.3750 -0.1432  0.4337
   53CHL1  H26B 3917   6.630   3.108   8.722 -0.6219  0.3097 -0.9757
   53CHL1  H26C 3918   6.790   3.114   8.627  0.7192  0.7709  1.0142
   53CHL1   C27 3919   6.701   3.318   8.448  0.4227 -0.0200  0.2098
   53CHL1  H27A 3920   6.768   3.370   8.520  0.6706  0.1119 -0.1144
   53CHL1  H27B 3921   6.770   3.253   8.389  0.3222 -0.7258  0.8563
   53CHL1  H27C 3922   6.647   3.388   8.381  0.6295 -0.6472 -0.6365
   54CHL1    C3 3923   5.006   6.119   7.225  0.1748  0.3732 -0.0388
   54CHL1    H3 3924   4.913   6.071   7.261  0.8851  0.6777  2.3585
   54CHL1    O3 3925   4.985   6.141   7.084 -0.3915  0.3717 -0.3563
   54CHL1   H3' 3926   5.063   6.182   7.047  0.5609 -0.2188  0.9361
   54CHL1    C4 3927   5.008   6.261   7.292  0.1717 -0.5049 -0.4643
   54CHL1   H4A 3928   5.095   6.310   7.244  0.0907 -0.1610 -0.2600
   54CHL1   H4B 3929   4.911   6.306   7.264  0.7123  1.2811  0.4108
   54CHL1    C5 3930   5.030   6.236   7.444  0.3922  0.0312  0.2252
   54CHL1    C6 3931   4.949   6.305   7.530 -0.1285  0.9973 -0.5907
   54CHL1    H6 3932   4.864   6.369   7.501 -0.2792  0.9283 -0.3076
   54CHL1    C7 3933   4.974   6.295   7.677 -0.1165  0.2331 -0.4590
   54CHL1   H7A 3934   4.985   6.398   7.717 -1.4952  1.2043 -2.4227
   54CHL1   H7B 3935   4.881   6.251   7.717 -0.6943 -1.6818 -3.6001
   54CHL1    C8 3936   5.099   6.215   7.725 -0.2353  0.0716 -0.6294
   54CHL1    H8 3937   5.188   6.282   7.725 -0.8905  0.9608 -1.0781
   54CHL1   C14 3938   5.070   6.160   7.870 -0.8610 -0.1316 -0.1994
   54CHL1   H14 3939   4.977   6.099   7.862 -1.0220  0.3661 -3.7186
   54CHL1   C15 3940   5.044   6.265   7.981 -0.2692  0.3775  0.6963
   54CHL1  H15A 3941   5.117   6.347   7.961 -0.8590  0.1661 -2.9969
   54CHL1  H15B 3942   4.946   6.318   7.980  0.3885  1.6992  1.7441
   54CHL1   C16 3943   5.058   6.191   8.113 -0.6630  0.2708 -0.0964
   54CHL1  H16A 3944   5.133   6.239   8.181  1.6949 -1.1052 -1.5894
   54CHL1  H16B 3945   4.961   6.171   8.163 -2.2440  2.7180 -1.9104
   54CHL1   C17 3946   5.122   6.047   8.076 -0.0545 -0.4065  0.5006
   54CHL1   H17 3947   5.042   5.970   8.067  1.1787 -1.5654 -0.9864
   54CHL1   C13 3948   5.176   6.073   7.931  0.0428 -0.7589 -0.6219
   54CHL1   C18 3949   5.305   6.156   7.935 -0.2192  0.0614  0.5259
   54CHL1  H18A 3950   5.335   6.180   7.831  2.3452 -1.5762  0.7974
   54CHL1  H18B 3951   5.300   6.242   8.005  3.2019  1.9403 -1.2526
   54CHL1  H18C 3952   5.379   6.085   7.978 -0.7095 -1.5739 -1.1728
   54CHL1   C12 3953   5.185   5.948   7.841 -0.6124  0.4941  0.1616
   54CHL1  H12A 3954   5.259   5.873   7.876 -2.2870  0.2523  3.5413
   54CHL1  H12B 3955   5.088   5.895   7.834  0.4624 -1.4298 -1.2947
   54CHL1   C11 3956   5.211   5.977   7.690 -0.7123 -0.0101  0.6449
   54CHL1  H11A 3957   5.314   6.015   7.669 -1.2579 -0.1443 -3.0254
   54CHL1  H11B 3958   5.204   5.882   7.633  5.0643 -0.8046  0.6057
   54CHL1    C9 3959   5.120   6.090   7.628 -0.2702 -0.3353 -0.4213
   54CHL1    H9 3960   5.019   6.045   7.636  0.3059 -1.8605 -1.1977
   54CHL1   C10 3961   5.141   6.132   7.485  0.1112 -0.1690  0.3278
   54CHL1   C19 3962   5.282   6.200   7.485  0.5482 -0.5088  0.2291
   54CHL1  H19A 3963   5.281   6.293   7.546 -2.0763 -1.2607  1.4720
   54CHL1  H19B 3964   5.356   6.126   7.522  1.6776  0.5634  0.1787
   54CHL1  H19C 3965   5.291   6.217   7.376  0.5416 -1.0955  0.1368
   54CHL1    C1 3966   5.154   6.002   7.398  0.4637 -0.0847 -0.7124
   54CHL1   H1A 3967   5.254   5.955   7.404 -0.3209 -1.7334  0.1619
   54CHL1   H1B 3968   5.072   5.936   7.434  2.7306 -3.3355 -1.0995
   54CHL1    C2 3969   5.130   6.030   7.245 -0.1313  0.1561  0.5029
   54CHL1   H2A 3970   5.126   5.941   7.178 -1.7205  0.2007  0.4985
   54CHL1   H2B 3971   5.212   6.090   7.200 -1.0833  0.7301 -0.4953
   54CHL1   C20 3972   5.202   6.002   8.190 -0.7740  0.2472  0.0447
   54CHL1   H20 3973   5.287   6.069   8.215 -0.4882 -0.3541  0.7274
   54CHL1   C21 3974   5.265   5.865   8.148  0.0470 -0.0771  0.0876
   54CHL1  H21A 3975   5.354   5.879   8.084  1.1457 -0.2645  1.5383
   54CHL1  H21B 3976   5.184   5.805   8.101  0.5659 -0.1761 -0.6890
   54CHL1  H21C 3977   5.297   5.816   8.242  1.2636  0.6331  0.0662
   54CHL1   C22 3978   5.122   5.985   8.322  0.4425 -0.4731  1.0991
   54CHL1  H22A 3979   5.035   6.054   8.325 -1.6281 -2.6802 -2.3148
   54CHL1  H22B 3980   5.073   5.885   8.319 -1.4170  0.4138 -1.4941
   54CHL1   C23 3981   5.212   6.006   8.447 -0.0304  0.5011  0.0985
   54CHL1  H23A 3982   5.302   5.942   8.434 -0.5770 -0.2782  0.1023
   54CHL1  H23B 3983   5.241   6.114   8.446 -0.3099  0.6021  1.3583
   54CHL1   C24 3984   5.143   5.974   8.579 -0.6088  0.1253 -0.1489
   54CHL1  H24A 3985   5.034   5.993   8.579 -0.3302  1.9882 -1.5896
   54CHL1  H24B 3986   5.146   5.864   8.599 -2.7182  0.3070  1.4493
   54CHL1   C25 3987   5.204   6.028   8.709 -0.2904  0.0885  0.2988
   54CHL1   H25 3988   5.178   6.136   8.711 -3.4067 -0.5430 -1.0186
   54CHL1   C26 3989   5.141   5.954   8.828  0.1053 -0.5310  0.2526
   54CHL1  H26A 3990   5.035   5.987   8.829  0.3945  0.7238 -2.1911
   54CHL1  H26B 3991   5.148   5.844   8.822  0.4609 -0.5241  0.4945
   54CHL1  H26C 3992   5.180   5.975   8.929 -3.0559  0.0821  1.4595
   54CHL1   C27 3993   5.360   6.000   8.715  0.8181 -0.2973 -0.3118
   54CHL1  H27A 3994   5.413   6.069   8.646  2.1217 -1.6479 -0.6948
   54CHL1  H27B 3995   5.389   6.023   8.820  0.1855  1.7775 -0.5505
   54CHL1  H27C 3996   5.372   5.892   8.696  1.0059 -0.6668  1.6242
   55CHL1    C3 3997   1.026   1.994   7.097 -0.5491 -0.5313  0.8505
   55CHL1    H3 3998   1.124   1.940   7.102 -1.6345 -2.7614 -0.1434
   55CHL1    O3 3999   1.007   2.034   6.965 -0.4438 -0.4961 -0.2542
   55CHL1   H3' 4000   1.090   2.070   6.932  0.0006 -1.4834 -0.2548
   55CHL1    C4 4001   0.914   1.900   7.140 -0.4239  0.1293  1.0092
   55CHL1   H4A 4002   0.828   1.971   7.135  0.6507  1.5617  1.9232
   55CHL1   H4B 4003   0.909   1.828   7.056 -0.4975  4.2907 -2.9240
   55CHL1    C5 4004   0.937   1.842   7.278 -0.9450 -0.1469  0.1014
   55CHL1    C6 4005   0.949   1.706   7.299 -0.2016  0.0274 -0.4343
   55CHL1    H6 4006   0.934   1.632   7.218 -1.8683  1.1035 -1.1738
   55CHL1    C7 4007   0.970   1.655   7.440  0.0666  0.5290 -0.5529
   55CHL1   H7A 4008   0.905   1.568   7.462 -1.5788  2.4020  2.9475
   55CHL1   H7B 4009   1.073   1.617   7.458 -1.2726 -2.3912  1.9112
   55CHL1    C8 4010   0.960   1.760   7.554 -0.4501  0.0836  0.2669
   55CHL1    H8 4011   0.856   1.795   7.574 -0.4990  0.0247  0.1164
   55CHL1   C14 4012   1.017   1.707   7.682  0.1110  0.2421 -0.8254
   55CHL1   H14 4013   1.125   1.689   7.664  0.1388 -1.2656  0.5732
   55CHL1   C15 4014   0.963   1.568   7.722 -0.6418 -0.1083  0.4226
   55CHL1  H15A 4015   0.852   1.568   7.717 -0.7717 -0.5557  2.3199
   55CHL1  H15B 4016   1.000   1.485   7.658  0.2892 -0.5252  1.4700
   55CHL1   C16 4017   0.997   1.551   7.869  0.1393 -0.4422 -0.6859
   55CHL1  H16A 4018   0.908   1.544   7.935 -0.4209  0.3382 -1.3407
   55CHL1  H16B 4019   1.072   1.470   7.886 -0.9498 -1.0228  1.7697
   55CHL1   C17 4020   1.065   1.685   7.910 -0.2600  0.0675  0.1067
   55CHL1   H17 4021   1.173   1.694   7.885 -0.0182 -0.1657  1.0328
   55CHL1   C13 4022   1.001   1.794   7.800 -0.0237 -0.3896  0.3427
   55CHL1   C18 4023   0.856   1.828   7.842  0.3463  0.6084  0.7444
   55CHL1  H18A 4024   0.790   1.860   7.758  1.0760  0.1508 -0.0169
   55CHL1  H18B 4025   0.788   1.745   7.872 -1.1623  1.3510 -0.4262
   55CHL1  H18C 4026   0.862   1.903   7.923  1.4885 -1.8897  3.1148
   55CHL1   C12 4027   1.083   1.923   7.773  0.4611  0.0831  0.2228
   55CHL1  H12A 4028   1.091   2.006   7.846  0.6234 -0.4426  0.8150
   55CHL1  H12B 4029   1.188   1.892   7.754  0.6514  0.6229  0.3677
   55CHL1   C11 4030   1.029   1.992   7.651 -0.2950 -0.0174  0.0539
   55CHL1  H11A 4031   0.925   2.029   7.663 -0.7637 -0.6312 -1.8092
   55CHL1  H11B 4032   1.094   2.079   7.628  3.6418 -2.0052  2.5082
   55CHL1    C9 4033   1.033   1.895   7.520  1.0719 -0.0107 -0.1286
   55CHL1    H9 4034   1.137   1.862   7.498  0.7642 -0.9230 -0.2503
   55CHL1   C10 4035   0.969   1.956   7.383 -0.5300 -0.4491 -0.1907
   55CHL1   C19 4036   0.828   2.025   7.415  0.3556 -0.2282  0.9374
   55CHL1  H19A 4037   0.783   2.081   7.330  0.0574 -0.1547  1.1419
   55CHL1  H19B 4038   0.763   1.936   7.427  3.1011 -2.3569  0.9656
   55CHL1  H19C 4039   0.832   2.093   7.503 -0.3833  0.7249  0.2645
   55CHL1    C1 4040   1.059   2.079   7.338 -0.0772  0.1761 -0.3114
   55CHL1   H1A 4041   1.045   2.167   7.404 -2.0465 -1.8765  2.2510
   55CHL1   H1B 4042   1.165   2.053   7.358 -0.2216  0.6971  1.2626
   55CHL1    C2 4043   1.044   2.115   7.189  0.8083  0.9182  0.6403
   55CHL1   H2A 4044   1.126   2.177   7.148  0.0741  0.1892 -2.2375
   55CHL1   H2B 4045   0.945   2.162   7.168  1.0296  0.9072 -0.4867
   55CHL1   C20 4046   1.058   1.714   8.061  0.7658  0.0043  0.4403
   55CHL1   H20 4047   0.951   1.715   8.092  0.6873  0.8300  0.1868
   55CHL1   C21 4048   1.120   1.854   8.091 -0.2685 -0.0916 -0.8105
   55CHL1  H21A 4049   1.131   1.843   8.201 -0.9417 -1.0177 -0.8267
   55CHL1  H21B 4050   1.050   1.936   8.062 -1.6477 -0.8525  0.2532
   55CHL1  H21C 4051   1.221   1.863   8.046  0.3726 -0.5849  0.4998
   55CHL1   C22 4052   1.130   1.605   8.147  0.1897  0.3683  0.2017
   55CHL1  H22A 4053   1.097   1.507   8.108 -4.3236  1.5929  0.3962
   55CHL1  H22B 4054   1.240   1.605   8.134  0.1377 -2.3885 -0.9703
   55CHL1   C23 4055   1.115   1.605   8.296  0.3698  0.0155 -0.6245
   55CHL1  H23A 4056   1.161   1.696   8.340 -0.5960 -0.5435  1.6962
   55CHL1  H23B 4057   1.007   1.622   8.315  0.6105 -0.4120  1.3475
   55CHL1   C24 4058   1.170   1.482   8.366  0.6477  0.1165  0.2519
   55CHL1  H24A 4059   1.132   1.386   8.326 -0.8102 -0.0902  2.0052
   55CHL1  H24B 4060   1.279   1.483   8.344  1.0827  0.5836  2.1911
   55CHL1   C25 4061   1.128   1.487   8.510  0.3471 -0.0828 -0.3643
   55CHL1   H25 4062   1.121   1.595   8.537 -2.7020 -0.4688  0.7230
   55CHL1   C26 4063   0.983   1.438   8.528 -0.4930 -0.5841  0.2031
   55CHL1  H26A 4064   0.913   1.476   8.451  0.5808 -0.5083 -0.7772
   55CHL1  H26B 4065   0.987   1.327   8.517 -0.0256 -0.4819 -0.7630
   55CHL1  H26C 4066   0.937   1.470   8.623  0.1888  0.0664  0.3233
   55CHL1   C27 4067   1.211   1.408   8.607 -0.1147  1.0379  0.3458
   55CHL1  H27A 4068   1.241   1.309   8.565  0.6538  1.5132 -0.2644
   55CHL1  H27B 4069   1.304   1.466   8.626  0.3021  1.7096 -3.0682
   55CHL1  H27C 4070   1.143   1.391   8.693  0.2313 -0.1835  0.3990
   56CHL1    C3 4071   5.257   2.473   7.097 -0.0711  0.6263 -0.0714
   56CHL1    H3 4072   5.354   2.420   7.084 -0.1338 -0.2233  2.4409
   56CHL1    O3 4073   5.191   2.498   6.972 -0.2126  0.3415  0.0774
   56CHL1   H3' 4074   5.137   2.573   6.998 -0.9148 -0.8509  2.3543
   56CHL1    C4 4075   5.160   2.406   7.197  0.4690  1.0910 -0.5544
   56CHL1   H4A 4076   5.072   2.474   7.195 -1.4737 -1.2260  0.3027
   56CHL1   H4B 4077   5.122   2.307   7.163  0.8811  0.9784 -0.6873
   56CHL1    C5 4078   5.215   2.386   7.338  0.2603 -0.3249 -0.9415
   56CHL1    C6 4079   5.225   2.267   7.397 -0.5532  0.3644 -0.5931
   56CHL1    H6 4080   5.184   2.177   7.349 -0.5002 -0.3143  0.6160
   56CHL1    C7 4081   5.261   2.256   7.538  0.2859  0.0819  0.7294
   56CHL1   H7A 4082   5.186   2.188   7.584  1.1415 -0.6649  1.0444
   56CHL1   H7B 4083   5.354   2.194   7.542 -0.0571 -0.8953 -2.7700
   56CHL1    C8 4084   5.272   2.389   7.615  0.2468  0.1977 -0.3679
   56CHL1    H8 4085   5.170   2.419   7.645  1.1623  0.9795  2.2517
   56CHL1   C14 4086   5.349   2.362   7.745 -0.4159  0.6569  0.2997
   56CHL1   H14 4087   5.444   2.325   7.701 -0.9292  2.1291 -2.2656
   56CHL1   C15 4088   5.303   2.250   7.843 -0.3764  0.0788  0.7298
   56CHL1  H15A 4089   5.199   2.274   7.873 -1.4358 -0.0425 -2.4291
   56CHL1  H15B 4090   5.312   2.150   7.796  2.1722  0.3343  0.5587
   56CHL1   C16 4091   5.390   2.283   7.965 -0.2850 -0.0231 -0.3407
   56CHL1  H16A 4092   5.322   2.284   8.054  0.0054  0.3760 -0.1190
   56CHL1  H16B 4093   5.465   2.203   7.981 -1.5372 -1.1394  0.2037
   56CHL1   C17 4094   5.452   2.424   7.943 -0.3300 -0.0908  0.2289
   56CHL1   H17 4095   5.559   2.400   7.923  0.0558 -0.8726  2.7758
   56CHL1   C13 4096   5.385   2.488   7.825  0.1267  0.9659 -0.0414
   56CHL1   C18 4097   5.252   2.552   7.873 -1.2769 -0.3343 -0.3151
   56CHL1  H18A 4098   5.209   2.501   7.962 -1.0179 -0.7220 -0.4073
   56CHL1  H18B 4099   5.271   2.655   7.910 -0.3214 -0.5213 -0.2490
   56CHL1  H18C 4100   5.178   2.558   7.790  1.0591  1.4575 -2.4164
   56CHL1   C12 4101   5.462   2.582   7.731  0.1132 -1.2274 -0.6459
   56CHL1  H12A 4102   5.493   2.675   7.785 -1.3878 -0.7570 -0.5607
   56CHL1  H12B 4103   5.553   2.531   7.691  0.1377 -1.3415 -0.4443
   56CHL1   C11 4104   5.382   2.617   7.607  0.5968 -0.6257  0.3337
   56CHL1  H11A 4105   5.293   2.680   7.631  1.0433 -0.2427  0.9919
   56CHL1  H11B 4106   5.448   2.675   7.539  1.5467 -0.3857  1.4413
   56CHL1    C9 4107   5.333   2.498   7.522  0.2429  0.8164  0.3617
   56CHL1    H9 4108   5.427   2.452   7.487  0.7269  1.7796  0.3774
   56CHL1   C10 4109   5.253   2.523   7.394  0.0976  0.2604  0.5052
   56CHL1   C19 4110   5.121   2.599   7.422 -0.1616  0.1799 -0.2857
   56CHL1  H19A 4111   5.135   2.698   7.470  0.0890  0.2415 -0.4825
   56CHL1  H19B 4112   5.073   2.631   7.327  1.6866  1.8646 -0.7282
   56CHL1  H19C 4113   5.055   2.543   7.491 -1.3870  0.4325 -1.2045
   56CHL1    C1 4114   5.336   2.605   7.294  0.7458  0.3720 -0.9489
   56CHL1   H1A 4115   5.356   2.705   7.339 -0.4765 -0.0419  0.5924
   56CHL1   H1B 4116   5.433   2.555   7.274  0.5584  0.4048 -1.9992
   56CHL1    C2 4117   5.283   2.617   7.149  0.1052  0.3925  0.6408
   56CHL1   H2A 4118   5.352   2.680   7.089  0.9107 -0.0813  1.0496
   56CHL1   H2B 4119   5.182   2.662   7.157 -0.5041 -0.6077 -0.8768
   56CHL1   C20 4120   5.481   2.510   8.070  0.2503  0.7248  0.5045
   56CHL1   H20 4121   5.376   2.513   8.107 -0.4971  1.3260 -1.5160
   56CHL1   C21 4122   5.531   2.660   8.052  0.3316  0.0648 -0.1673
   56CHL1  H21A 4123   5.539   2.713   8.149 -0.0730 -1.2402  0.6013
   56CHL1  H21B 4124   5.460   2.716   7.987 -3.7483 -0.2705  3.6007
   56CHL1  H21C 4125   5.641   2.666   8.034  0.8093  0.4150  2.5353
   56CHL1   C22 4126   5.569   2.432   8.171  0.3391  0.1977  0.7529
   56CHL1  H22A 4127   5.577   2.324   8.145  1.8113  0.3799  0.3605
   56CHL1  H22B 4128   5.669   2.476   8.150  1.3510 -0.8936  2.9159
   56CHL1   C23 4129   5.550   2.459   8.319  0.0696 -0.2172  0.3993
   56CHL1  H23A 4130   5.639   2.447   8.384 -0.3123  2.0721  1.4373
   56CHL1  H23B 4131   5.519   2.562   8.345 -1.6608 -0.8089  0.8167
   56CHL1   C24 4132   5.434   2.375   8.373 -0.3875 -0.8352 -0.1021
   56CHL1  H24A 4133   5.353   2.394   8.301  0.1193  0.7048 -0.2922
   56CHL1  H24B 4134   5.463   2.268   8.362  0.2107 -0.7646  0.6647
   56CHL1   C25 4135   5.398   2.401   8.518 -0.3487 -0.8632  0.5952
   56CHL1   H25 4136   5.328   2.322   8.553  2.7067 -3.5114  1.1995
   56CHL1   C26 4137   5.524   2.402   8.610 -0.6771 -0.2531 -0.0437
   56CHL1  H26A 4138   5.506   2.421   8.718 -0.5431 -0.2822 -0.0152
   56CHL1  H26B 4139   5.585   2.488   8.576 -1.2906 -0.2388 -1.1379
   56CHL1  H26C 4140   5.580   2.306   8.602 -0.1937 -0.2241  2.1965
   56CHL1   C27 4141   5.325   2.536   8.532 -0.3631 -0.0101 -0.1778
   56CHL1  H27A 4142   5.311   2.572   8.636  1.2779  0.9006 -0.2439
   56CHL1  H27B 4143   5.389   2.617   8.493 -2.1536  0.1041 -3.1389
   56CHL1  H27C 4144   5.235   2.529   8.468  1.2957  0.9610 -2.7731
   57SAPC     N 4145   1.868   5.868  10.745 -0.6685  0.5557  1.1456
   57SAPC   C12 4146   1.941   6.002  10.770 -0.2059 -0.4382 -0.2890
   57SAPC  H12A 4147   1.930   6.028  10.874  1.2228  4.0541 -1.0585
   57SAPC  H12B 4148   1.896   6.075  10.704  1.5203  1.0865  0.1270
   57SAPC   C13 4149   1.914   5.758  10.834 -0.0505 -0.6296 -1.5050
   57SAPC  H13A 4150   1.859   5.665  10.823 -1.2854  0.0842 -1.5543
   57SAPC  H13B 4151   2.020   5.742  10.819  0.5439  1.8433 -0.4483
   57SAPC  H13C 4152   1.898   5.802  10.931 -2.4002  1.4329 -2.7165
   57SAPC   C14 4153   1.721   5.905  10.762 -0.2758  0.0022 -0.2465
   57SAPC  H14A 4154   1.708   5.965  10.850  0.0917  2.2408 -1.6366
   57SAPC  H14B 4155   1.670   5.956  10.681 -1.4934  0.2916  0.6659
   57SAPC  H14C 4156   1.669   5.811  10.778  0.0539 -0.0254  0.6975
   57SAPC   C15 4157   1.905   5.824  10.600 -0.0680 -0.8192 -0.3082
   57SAPC  H15A 4158   1.854   5.733  10.573  0.5594 -0.8314 -1.5599
   57SAPC  H15B 4159   1.860   5.895  10.532 -0.5379 -3.3094 -2.7668
   57SAPC  H15C 4160   2.010   5.807  10.581  0.3270 -1.4072  2.1169
   57SAPC   C11 4161   2.093   6.015  10.726 -0.0892  0.4075  0.4601
   57SAPC  H11A 4162   2.103   6.125  10.725 -2.3423  0.6621  0.5529
   57SAPC  H11B 4163   2.108   5.981  10.621  2.0372  1.5149  0.3653
   57SAPC     P 4164   2.277   5.832  10.773  0.2023  0.2872 -0.2552
   57SAPC   O13 4165   2.389   5.834  10.869  0.3305 -0.1161  0.2633
   57SAPC   O14 4166   2.204   5.704  10.764  0.3986  0.3038 -0.8125
   57SAPC   O12 4167   2.183   5.950  10.818  0.3198 -0.3370 -0.0959
   57SAPC   O11 4168   2.316   5.873  10.625  0.5231 -0.5834  0.5145
   57SAPC    C1 4169   2.438   5.815  10.567  0.6975  1.2274  0.6927
   57SAPC    HA 4170   2.521   5.889  10.567  2.4752 -0.6500  2.1003
   57SAPC    HB 4171   2.474   5.732  10.632  0.2550  0.5292  0.0667
   57SAPC    C2 4172   2.420   5.738  10.435 -0.5841 -0.3245  0.0400
   57SAPC    HS 4173   2.514   5.694  10.397  1.2636  1.8560  1.8288
   57SAPC   O21 4174   2.379   5.834  10.334 -0.0717 -0.5995  0.7333
   57SAPC   C21 4175   2.475   5.910  10.273  0.8601 -0.3201  0.4846
   57SAPC   O22 4176   2.592   5.914  10.304  0.4349 -0.0864  0.0481
   57SAPC   C22 4177   2.426   5.987  10.141 -0.5595  0.7037 -0.1525
   57SAPC   H2R 4178   2.342   5.930  10.096 -3.5157  1.7275  3.4646
   57SAPC   H2S 4179   2.389   6.086  10.175 -0.8832  1.7478 -3.2512
   57SAPC    C3 4180   2.307   5.629  10.439 -0.2516  0.2197  0.0339
   57SAPC    HX 4181   2.205   5.671  10.454 -1.2237 -1.4811 -1.3804
   57SAPC    HY 4182   2.333   5.576  10.533  2.6179  0.5712 -0.4739
   57SAPC   O31 4183   2.304   5.535  10.331  0.2125 -0.0883 -0.4745
   57SAPC   C31 4184   2.247   5.586  10.221  0.4047  0.1721  0.2621
   57SAPC   O32 4185   2.197   5.699  10.214  0.1069  0.2542 -0.0267
   57SAPC   C32 4186   2.255   5.490  10.106 -0.4594  0.1409 -0.1115
   57SAPC   H2X 4187   2.225   5.391  10.147  0.8759 -0.0874  0.3798
   57SAPC   H2Y 4188   2.362   5.473  10.078 -0.7794 -0.1856 -1.2084
   57SAPC   C23 4189   2.549   5.996  10.042 -0.7976 -0.0400 -0.3716
   57SAPC   H3R 4190   2.638   6.029  10.100 -0.3527  1.2212 -1.7023
   57SAPC   H3S 4191   2.529   6.070   9.962  4.3445 -0.4102 -2.4391
   57SAPC   C24 4192   2.574   5.865   9.965  0.2486  0.5860 -0.0717
   57SAPC   H4R 4193   2.604   5.782  10.034  2.0687  0.0891 -1.3910
   57SAPC   H4S 4194   2.664   5.877   9.901  0.6737  0.7067  0.5282
   57SAPC   C25 4195   2.462   5.820   9.871  0.0561  0.6944 -0.5695
   57SAPC   H5R 4196   2.384   5.760   9.919 -0.6394  1.3902 -0.8078
   57SAPC   C26 4197   2.440   5.854   9.746  0.4413  0.8575  0.5181
   57SAPC   H6R 4198   2.360   5.800   9.692  0.9316  2.1557 -1.6159
   57SAPC   C27 4199   2.527   5.940   9.653 -0.3857 -0.4044  0.0100
   57SAPC   H7R 4200   2.617   5.965   9.712  0.0600 -0.1658 -0.7641
   57SAPC   H7S 4201   2.471   6.032   9.625 -2.0475 -1.3595  0.0300
   57SAPC   C28 4202   2.572   5.873   9.525 -0.5029  0.6875 -0.2664
   57SAPC   H8R 4203   2.652   5.797   9.533  0.3827  1.6853  0.7980
   57SAPC   C29 4204   2.549   5.911   9.402 -0.6970 -0.3431 -0.3554
   57SAPC   H9R 4205   2.594   5.847   9.324 -2.0788 -1.8006 -0.0142
   57SAPC  C210 4206   2.467   6.023   9.353 -0.2990 -0.2722 -0.0184
   57SAPC  H10R 4207   2.478   6.038   9.244 -1.8620  0.7851 -0.0787
   57SAPC  H10S 4208   2.512   6.117   9.393 -0.9136 -0.0371  0.1464
   57SAPC  C211 4209   2.322   6.012   9.371 -0.6529 -0.2356 -0.2205
   57SAPC  H11R 4210   2.292   5.957   9.461 -0.9362  4.6786  3.1037
   57SAPC  C212 4211   2.223   6.072   9.310  0.0516 -0.2270  0.0432
   57SAPC  H12R 4212   2.122   6.069   9.353  0.0050  2.1185  0.2490
   57SAPC  C213 4213   2.242   6.175   9.196  1.0120 -0.4653 -0.1573
   57SAPC  H13R 4214   2.313   6.145   9.116  4.9469  2.8924  1.7212
   57SAPC  H13S 4215   2.268   6.274   9.240 -1.2163 -0.4881  1.3717
   57SAPC  C214 4216   2.097   6.185   9.136  0.3064  0.2370  0.4213
   57SAPC  H14R 4217   2.054   6.096   9.089 -2.0525  1.2387  0.5343
   57SAPC  C215 4218   2.032   6.293   9.094  0.4361 -0.4144 -0.3983
   57SAPC  H15R 4219   1.936   6.276   9.042  0.7961 -1.2067 -0.8174
   57SAPC  C216 4220   2.073   6.436   9.099 -0.1081 -0.3522  0.6310
   57SAPC  H16R 4221   2.173   6.446   9.147 -0.3017 -0.3517  1.0381
   57SAPC  H16S 4222   2.010   6.500   9.165  1.8877  0.0413  2.2700
   57SAPC  C217 4223   2.075   6.480   8.954  0.1500  0.1334 -0.3091
   57SAPC  H17R 4224   2.148   6.413   8.904 -2.6411 -2.7405 -0.8562
   57SAPC  H17S 4225   2.125   6.579   8.954  1.9344 -0.7134  1.1110
   57SAPC  C218 4226   1.941   6.491   8.886  0.3175 -0.7270 -0.5705
   57SAPC  H18R 4227   1.881   6.576   8.927 -1.1280 -3.1823  2.9246
   57SAPC  H18S 4228   1.873   6.405   8.905 -2.3636  1.1661 -0.9478
   57SAPC  C219 4229   1.945   6.512   8.734 -0.2180  0.4692  0.2384
   57SAPC  H19R 4230   1.980   6.414   8.696  2.1449  0.4941  2.0762
   57SAPC  H19S 4231   2.007   6.596   8.695  2.0377 -1.1804  0.0401
   57SAPC  C220 4232   1.803   6.519   8.672 -0.1165 -0.4242 -1.4474
   57SAPC  H20R 4233   1.764   6.623   8.670 -0.6053 -0.5847 -0.7925
   57SAPC  H20S 4234   1.741   6.455   8.738  2.2162 -1.1644  0.1210
   57SAPC  H20T 4235   1.814   6.476   8.570  1.6414  0.2253 -1.5681
   57SAPC   C33 4236   2.174   5.527   9.982  0.5393 -1.0373  0.6230
   57SAPC   H3X 4237   2.224   5.614   9.935 -0.4112 -0.8233 -0.0190
   57SAPC   H3Y 4238   2.069   5.544  10.017  0.5041 -3.2884  1.7980
   57SAPC   C34 4239   2.170   5.424   9.878 -0.0980  0.4953 -0.0434
   57SAPC   H4X 4240   2.104   5.339   9.907 -0.1378  0.4464 -0.2708
   57SAPC   H4Y 4241   2.265   5.368   9.876 -1.3040 -1.6748  0.3900
   57SAPC   C35 4242   2.120   5.460   9.739  0.3515  0.6947  0.4674
   57SAPC   H5X 4243   2.024   5.515   9.733 -0.7043 -0.9909  1.3646
   57SAPC   H5Y 4244   2.097   5.367   9.684  0.3679  1.4339 -0.8423
   57SAPC   C36 4245   2.230   5.527   9.655  0.0776 -0.4380 -0.5189
   57SAPC   H6X 4246   2.319   5.460   9.660  0.4899  0.1490  0.2510
   57SAPC   H6Y 4247   2.274   5.617   9.703  1.2582 -2.0729  1.6508
   57SAPC   C37 4248   2.176   5.545   9.507  0.3767 -0.0302  0.2824
   57SAPC   H7X 4249   2.235   5.629   9.466 -0.5685  0.8924  0.7878
   57SAPC   H7Y 4250   2.071   5.580   9.508  1.0250  2.0805 -0.4821
   57SAPC   C38 4251   2.188   5.424   9.419  0.4010  0.1089 -0.3406
   57SAPC   H8X 4252   2.143   5.340   9.478 -1.9160  0.9821 -0.7818
   57SAPC   H8Y 4253   2.292   5.405   9.385 -0.3539 -0.2948 -2.6091
   57SAPC   C39 4254   2.110   5.446   9.287 -0.1101  0.2263 -0.1516
   57SAPC   H9X 4255   2.147   5.541   9.245  0.6745 -0.6645 -1.5473
   57SAPC   H9Y 4256   2.000   5.437   9.306  0.1179 -1.8654  0.4090
   57SAPC  C310 4257   2.147   5.356   9.173 -0.3164  0.0075 -0.0740
   57SAPC  H10X 4258   2.144   5.246   9.191  1.7642 -0.2037 -0.6945
   57SAPC  H10Y 4259   2.254   5.370   9.147  0.4688  0.6864  3.1955
   57SAPC  C311 4260   2.054   5.398   9.058 -0.5986 -0.2485 -0.2524
   57SAPC  H11X 4261   2.090   5.496   9.019  1.2063 -1.3361 -1.5145
   57SAPC  H11Y 4262   1.954   5.390   9.106 -0.7666 -1.0117 -0.7018
   57SAPC  C312 4263   2.069   5.298   8.942  0.8780 -0.0400  0.5843
   57SAPC  H12X 4264   1.989   5.317   8.867  0.3336 -0.3918  1.0633
   57SAPC  H12Y 4265   2.068   5.195   8.983 -0.7539  0.3649  1.6905
   57SAPC  C313 4266   2.201   5.303   8.865 -0.6593  0.3380  0.0156
   57SAPC  H13X 4267   2.195   5.218   8.793 -0.4358  0.4478 -0.1328
   57SAPC  H13Y 4268   2.278   5.284   8.943  1.1729  0.9905 -1.5556
   57SAPC  C314 4269   2.223   5.429   8.771 -0.5717  0.2204 -0.3629
   57SAPC  H14X 4270   2.227   5.516   8.840  0.2114  1.0582 -1.4138
   57SAPC  H14Y 4271   2.133   5.438   8.708 -2.7964  0.2615  2.6139
   57SAPC  C315 4272   2.349   5.422   8.694 -0.2922  0.1339  0.5286
   57SAPC  H15X 4273   2.349   5.322   8.644 -0.9306 -0.3289  1.4191
   57SAPC  H15Y 4274   2.433   5.427   8.767  0.5976 -1.2446 -0.3340
   57SAPC  C316 4275   2.356   5.539   8.595  0.0247 -0.1287 -0.2286
   57SAPC  H16X 4276   2.311   5.620   8.656 -1.2440 -1.5940  0.8799
   57SAPC  H16Y 4277   2.295   5.495   8.513  0.5095 -1.3857  0.0610
   57SAPC  C317 4278   2.496   5.590   8.555 -0.3717 -0.3410 -0.0285
   57SAPC  H17X 4279   2.559   5.619   8.643  1.3469  0.3263 -1.4223
   57SAPC  H17Y 4280   2.481   5.681   8.493  1.4330  0.8596  1.1768
   57SAPC  C318 4281   2.569   5.493   8.470 -1.1069  0.3779 -0.2288
   57SAPC  H18X 4282   2.604   5.407   8.532  0.4653  2.4859  2.0027
   57SAPC  H18Y 4283   2.666   5.536   8.435 -0.1647 -1.9174 -0.6038
   57SAPC  H18Z 4284   2.507   5.469   8.381 -2.6567  0.2978  0.8282
   58SAPC     N 4285   3.115   5.104  10.910  0.3614 -0.0098  0.2176
   58SAPC   C12 4286   3.222   5.195  10.854 -0.4826  0.3300 -0.4909
   58SAPC  H12A 4287   3.291   5.209  10.936 -1.9566 -0.4307  0.9424
   58SAPC  H12B 4288   3.172   5.288  10.831 -2.9297 -0.6619  0.4179
   58SAPC   C13 4289   3.002   5.067  10.808 -0.2807  0.2621  0.3992
   58SAPC  H13A 4290   3.054   5.033  10.720  0.5063  1.5910  0.3153
   58SAPC  H13B 4291   2.945   4.985  10.850 -1.4750  1.2634  0.8188
   58SAPC  H13C 4292   2.933   5.147  10.784  0.2762  0.8362  0.6645
   58SAPC   C14 4293   3.165   4.972  10.953 -0.2123 -0.0215  0.6301
   58SAPC  H14A 4294   3.085   4.904  10.981  0.6006 -1.0773  0.4294
   58SAPC  H14B 4295   3.214   4.920  10.873  0.6664  0.2552  0.9846
   58SAPC  H14C 4296   3.234   4.979  11.036  0.7770  0.4098 -0.2103
   58SAPC   C15 4297   3.049   5.170  11.024 -0.2027  0.1014 -0.0737
   58SAPC  H15A 4298   2.962   5.110  11.044 -0.5928  0.7451  0.1808
   58SAPC  H15B 4299   3.107   5.161  11.115 -3.3528 -1.6467  1.9544
   58SAPC  H15C 4300   3.031   5.275  11.006  0.4994  0.0046 -1.4497
   58SAPC   C11 4301   3.292   5.138  10.728  0.0311  0.0485 -0.2934
   58SAPC  H11A 4302   3.344   5.219  10.672 -1.8804 -0.3416 -2.8330
   58SAPC  H11B 4303   3.216   5.100  10.657 -0.6716  0.9784 -0.0637
   58SAPC     P 4304   3.528   5.069  10.820 -0.4300 -0.1010  0.0018
   58SAPC   O13 4305   3.507   5.157  10.934  0.3682 -0.0501  0.3397
   58SAPC   O14 4306   3.600   4.945  10.842 -0.5614  0.5334 -0.2795
   58SAPC   O12 4307   3.387   5.032  10.764  0.4219  0.1175  0.0807
   58SAPC   O11 4308   3.584   5.139  10.703 -0.3268 -0.6666 -0.1061
   58SAPC    C1 4309   3.615   5.076  10.573 -0.1677 -0.5194 -0.6264
   58SAPC    HA 4310   3.658   4.975  10.592 -0.8998 -0.6703  0.3212
   58SAPC    HB 4311   3.520   5.071  10.516 -0.0189 -1.0433 -0.8394
   58SAPC    C2 4312   3.730   5.158  10.505  0.0069  0.0276  0.3523
   58SAPC    HS 4313   3.696   5.259  10.474  1.4530  1.2525  2.4569
   58SAPC   O21 4314   3.770   5.076  10.386 -0.2067  0.4561 -0.4537
   58SAPC   C21 4315   3.674   5.086  10.283  0.0866 -0.2083  0.5708
   58SAPC   O22 4316   3.600   5.184  10.270  0.3397 -0.3380  0.3610
   58SAPC   C22 4317   3.665   4.961  10.199 -0.0776  0.2231 -0.8125
   58SAPC   H2R 4318   3.677   4.993  10.093  3.0562  0.8581 -0.3720
   58SAPC   H2S 4319   3.760   4.907  10.221  0.2613  1.1148 -0.0429
   58SAPC    C3 4320   3.847   5.174  10.609 -0.1452 -0.2945  0.2625
   58SAPC    HX 4321   3.888   5.071  10.620  0.2236 -0.2071 -0.2702
   58SAPC    HY 4322   3.807   5.209  10.707  1.4998  3.3407 -0.2147
   58SAPC   O31 4323   3.959   5.259  10.570 -0.2214  0.1366 -0.0337
   58SAPC   C31 4324   3.934   5.391  10.581  0.1936  0.5585 -0.0113
   58SAPC   O32 4325   3.829   5.440  10.624 -0.1727 -0.7291  0.1645
   58SAPC   C32 4326   4.052   5.457  10.520  0.1673 -0.8622 -0.0385
   58SAPC   H2X 4327   4.139   5.388  10.511  0.9437  0.2074 -1.0260
   58SAPC   H2Y 4328   4.082   5.537  10.591  1.9435 -2.0998  0.6913
   58SAPC   C23 4329   3.536   4.879  10.235  0.7141 -0.1944  0.0066
   58SAPC   H3R 4330   3.448   4.941  10.210 -0.2108 -1.1638  0.7645
   58SAPC   H3S 4331   3.533   4.863  10.345 -1.1083  1.7239  0.2969
   58SAPC   C24 4332   3.524   4.753  10.148 -0.2857  0.5693 -0.5429
   58SAPC   H4R 4333   3.606   4.686  10.181 -0.7641 -0.1698 -0.8267
   58SAPC   H4S 4334   3.539   4.778  10.041  1.9197 -0.3060 -0.4840
   58SAPC   C25 4335   3.407   4.662  10.164 -0.0160  0.0096  0.4442
   58SAPC   H5R 4336   3.432   4.584  10.237  0.9941  1.8407  2.1535
   58SAPC   C26 4337   3.287   4.670  10.112  0.7046  0.3082  0.4360
   58SAPC   H6R 4338   3.211   4.597  10.147 -0.8023  1.1912 -0.8580
   58SAPC   C27 4339   3.237   4.775  10.022  0.6771  0.9030 -0.4399
   58SAPC   H7R 4340   3.299   4.865  10.035  1.2120  0.3559  1.0384
   58SAPC   H7S 4341   3.131   4.794  10.050  0.8327  0.3195  0.6093
   58SAPC   C28 4342   3.252   4.718   9.884 -0.3184  0.1616 -0.4468
   58SAPC   H8R 4343   3.227   4.611   9.880 -0.1768  0.0155  1.3947
   58SAPC   C29 4344   3.282   4.783   9.771 -0.4080 -0.5203 -0.4619
   58SAPC   H9R 4345   3.294   4.721   9.680  3.3376 -0.0352 -0.4458
   58SAPC  C210 4346   3.321   4.928   9.759  0.0356  0.4119 -0.1646
   58SAPC  H10R 4347   3.285   4.991   9.843  0.2994  2.2395 -1.3592
   58SAPC  H10S 4348   3.276   4.972   9.667  1.2024 -0.2090 -1.0594
   58SAPC  C211 4349   3.468   4.954   9.743 -0.4265  0.2274 -0.7357
   58SAPC  H11R 4350   3.511   4.988   9.838  0.5719  0.3138 -1.2089
   58SAPC  C212 4351   3.539   4.946   9.627 -0.4252  0.1616 -1.1160
   58SAPC  H12R 4352   3.649   4.957   9.620 -0.3176 -1.1606 -1.8976
   58SAPC  C213 4353   3.482   4.895   9.502 -0.4631  0.2037  0.5467
   58SAPC  H13R 4354   3.377   4.860   9.512 -0.6040 -0.2626 -1.8982
   58SAPC  H13S 4355   3.539   4.805   9.470  0.5676  0.3471  1.8737
   58SAPC  C214 4356   3.501   5.002   9.396  0.3430  0.0664 -0.1583
   58SAPC  H14R 4357   3.506   5.104   9.437  0.4838  1.0900 -2.5603
   58SAPC  C215 4358   3.515   4.988   9.269 -0.6270  0.3813  0.0669
   58SAPC  H15R 4359   3.534   5.078   9.208  0.8559  0.1486  0.1295
   58SAPC  C216 4360   3.514   4.852   9.196 -0.5844 -0.3793  0.0637
   58SAPC  H16R 4361   3.421   4.803   9.233 -0.0550  0.2509  2.4016
   58SAPC  H16S 4362   3.600   4.791   9.230  0.3541  0.3401 -0.9446
   58SAPC  C217 4363   3.526   4.853   9.040 -0.0996 -0.3049 -0.4257
   58SAPC  H17R 4364   3.533   4.748   9.004  0.2957 -0.3587 -0.1991
   58SAPC  H17S 4365   3.616   4.911   9.009  0.2336 -0.0883  0.8867
   58SAPC  C218 4366   3.402   4.917   8.970 -0.0478  0.1025  0.1644
   58SAPC  H18R 4367   3.422   4.908   8.861  0.1281 -1.2971  0.2936
   58SAPC  H18S 4368   3.387   5.023   8.998 -0.8470  0.2907 -0.9250
   58SAPC  C219 4369   3.269   4.855   9.018  0.0435  0.6220  0.2709
   58SAPC  H19R 4370   3.191   4.905   8.957  0.2264  0.5250 -0.0452
   58SAPC  H19S 4371   3.255   4.879   9.125 -0.3782  0.6933  0.1991
   58SAPC  C220 4372   3.253   4.700   9.018  0.1691  0.2729  0.1801
   58SAPC  H20R 4373   3.316   4.653   9.096 -0.2767 -2.9570 -1.2432
   58SAPC  H20S 4374   3.279   4.660   8.918  0.0382  0.9360 -0.1230
   58SAPC  H20T 4375   3.148   4.674   9.044 -0.0282  0.6676 -0.2067
   58SAPC   C33 4376   4.014   5.508  10.376  0.0434 -0.9094 -0.5477
   58SAPC   H3X 4377   4.098   5.574  10.346  1.9969 -1.0835  3.8052
   58SAPC   H3Y 4378   3.924   5.573  10.379  0.4635 -0.3623  0.5776
   58SAPC   C34 4379   3.992   5.399  10.270  0.0208  0.0469 -0.3735
   58SAPC   H4X 4380   3.919   5.324  10.308 -1.8187  1.2802 -1.2751
   58SAPC   H4Y 4381   4.089   5.346  10.263  0.8002  1.3010  0.5084
   58SAPC   C35 4382   3.935   5.455  10.141 -0.1152  0.1980  0.4352
   58SAPC   H5X 4383   4.021   5.496  10.084  0.9684  2.0440  3.1951
   58SAPC   H5Y 4384   3.859   5.535  10.157 -4.0254 -3.1297  0.2169
   58SAPC   C36 4385   3.880   5.358  10.040  0.6377 -0.0599 -0.5358
   58SAPC   H6X 4386   3.796   5.297  10.082  0.2401  0.8236 -0.0112
   58SAPC   H6Y 4387   3.965   5.301   9.999  0.0040 -1.2869 -0.1973
   58SAPC   C37 4388   3.814   5.425   9.923  0.1492 -0.3183  0.3869
   58SAPC   H7X 4389   3.885   5.504   9.891 -1.1533  0.6187 -0.3014
   58SAPC   H7Y 4390   3.720   5.474   9.955  0.1589  0.6369 -0.9669
   58SAPC   C38 4391   3.808   5.335   9.802 -0.2931  0.2432 -0.6377
   58SAPC   H8X 4392   3.711   5.282   9.810  0.8488 -1.6525  3.0962
   58SAPC   H8Y 4393   3.885   5.255   9.814  0.0720  0.7011  0.2557
   58SAPC   C39 4394   3.818   5.397   9.659  0.6284  0.0457  0.1656
   58SAPC   H9X 4395   3.913   5.455   9.655 -0.1391  1.4516  1.4457
   58SAPC   H9Y 4396   3.733   5.467   9.649  1.3334  0.8447 -0.4173
   58SAPC  C310 4397   3.802   5.293   9.542 -0.3765 -0.6329 -0.9695
   58SAPC  H10X 4398   3.779   5.345   9.446  0.9788  1.5118 -0.1926
   58SAPC  H10Y 4399   3.720   5.225   9.572  0.3057 -1.6945 -1.4507
   58SAPC  C311 4400   3.920   5.202   9.515  0.1446 -0.4925 -0.0901
   58SAPC  H11X 4401   3.946   5.173   9.619 -1.7504  0.2310  0.6362
   58SAPC  H11Y 4402   4.001   5.268   9.479  0.9666 -0.3100  1.9402
   58SAPC  C312 4403   3.910   5.083   9.426  0.3570  1.0873 -0.5642
   58SAPC  H12X 4404   3.891   5.122   9.324 -1.4886 -0.6053 -0.9345
   58SAPC  H12Y 4405   3.827   5.014   9.454  1.0137  0.9659  1.2553
   58SAPC  C313 4406   4.045   5.008   9.422 -0.1333  0.4032 -0.1563
   58SAPC  H13X 4407   4.067   4.951   9.515  1.4373  0.9100 -0.1931
   58SAPC  H13Y 4408   4.124   5.085   9.412  1.0241 -0.8161 -0.7438
   58SAPC  C314 4409   4.063   4.910   9.305 -0.1887 -0.0491  0.2823
   58SAPC  H14X 4410   4.165   4.865   9.298 -0.8958 -1.4663 -2.5674
   58SAPC  H14Y 4411   4.046   4.964   9.209  1.3999  1.4086  0.7690
   58SAPC  C315 4412   3.971   4.793   9.313 -0.5177  0.2981 -1.1904
   58SAPC  H15X 4413   3.867   4.831   9.300 -0.5643  0.7935  0.4422
   58SAPC  H15Y 4414   3.980   4.742   9.411  2.2201 -1.0027 -2.0159
   58SAPC  C316 4415   3.987   4.700   9.191  1.0617  0.0898  0.3405
   58SAPC  H16X 4416   4.091   4.695   9.153  0.5695  0.9636 -1.2149
   58SAPC  H16Y 4417   3.935   4.744   9.102  0.4274 -1.3271 -0.0202
   58SAPC  C317 4418   3.932   4.555   9.203 -0.7639 -0.2160  0.3351
   58SAPC  H17X 4419   3.971   4.506   9.295 -0.4640 -0.8410 -0.1124
   58SAPC  H17Y 4420   3.958   4.485   9.120 -1.2413 -0.7613  0.6361
   58SAPC  C318 4421   3.777   4.567   9.211  0.3038  0.3128 -0.6644
   58SAPC  H18X 4422   3.728   4.594   9.115  1.2124  0.0352 -1.2190
   58SAPC  H18Y 4423   3.743   4.628   9.297 -0.0432 -0.9475  0.1033
   58SAPC  H18Z 4424   3.735   4.465   9.223  2.0563 -0.2630  0.8113
   59SAPC     N 4425   4.551   0.125  11.215  0.0369  0.0997  0.2147
   59SAPC   C12 4426   4.593  -0.013  11.162  0.0309 -0.2507  0.3777
   59SAPC  H12A 4427   4.508  -0.064  11.119  0.1404  0.0907 -0.2542
   59SAPC  H12B 4428   4.617  -0.078  11.245 -0.8714 -1.9413 -0.6018
   59SAPC   C13 4429   4.432   0.106  11.301 -0.3148 -0.1817 -0.2213
   59SAPC  H13A 4430   4.355   0.052  11.247  0.0684 -1.5362  0.5187
   59SAPC  H13B 4431   4.463   0.046  11.386 -1.1472 -0.2479  0.0480
   59SAPC  H13C 4432   4.393   0.199  11.339  1.3512  0.2637  0.5041
   59SAPC   C14 4433   4.651   0.185  11.299  0.4345 -0.5425 -0.3209
   59SAPC  H14A 4434   4.650   0.150  11.401  3.5547  1.0683  0.3967
   59SAPC  H14B 4435   4.749   0.155  11.265  0.2507  0.7257 -2.1576
   59SAPC  H14C 4436   4.647   0.293  11.304 -1.6708 -0.3652 -3.0194
   59SAPC   C15 4437   4.510   0.220  11.095 -0.2817 -0.0763  0.0941
   59SAPC  H15A 4438   4.593   0.255  11.035 -0.0973  1.8583  1.3973
   59SAPC  H15B 4439   4.436   0.171  11.034  0.8806 -2.4043  0.4226
   59SAPC  H15C 4440   4.458   0.309  11.126  2.6224  1.6566  0.3682
   59SAPC   C11 4441   4.717  -0.024  11.063  0.7618 -0.2542  0.4198
   59SAPC  H11A 4442   4.694   0.033  10.970 -2.3783  1.4350  2.0453
   59SAPC  H11B 4443   4.730  -0.126  11.021  0.3097  0.8437 -2.6809
   59SAPC     P 4444   4.963  -0.059  11.164 -0.0248 -0.2727 -0.2008
   59SAPC   O13 4445   5.066   0.022  11.233 -0.5743  0.4487 -0.7761
   59SAPC   O14 4446   4.913  -0.181  11.232 -0.7259  0.2108  0.3605
   59SAPC   O12 4447   4.835   0.032  11.123 -0.0618  0.1486  0.2157
   59SAPC   O11 4448   5.020  -0.098  11.018  0.2611  0.2510  0.0701
   59SAPC    C1 4449   5.028  -0.013  10.905 -0.0838  0.2843  0.3931
   59SAPC    HA 4450   4.936   0.048  10.887 -1.5038 -1.6717  0.6552
   59SAPC    HB 4451   5.117   0.052  10.916  0.9452 -1.0254  0.0552
   59SAPC    C2 4452   5.058  -0.099  10.774  0.0602 -0.0754 -0.2155
   59SAPC    HS 4453   5.064  -0.028  10.690  1.6885 -1.4420 -1.2994
   59SAPC   O21 4454   4.939  -0.189  10.759 -0.6550  0.4394 -0.0224
   59SAPC   C21 4455   4.915  -0.221  10.637 -0.5049 -0.2721  0.1260
   59SAPC   O22 4456   4.980  -0.190  10.536  0.4731  0.4567 -0.1200
   59SAPC   C22 4457   4.791  -0.307  10.632  0.7427 -0.6784  0.3236
   59SAPC   H2R 4458   4.731  -0.276  10.720 -2.4423  0.8604 -2.1795
   59SAPC   H2S 4459   4.738  -0.276  10.539  1.9387  0.9363  0.1385
   59SAPC    C3 4460   5.194  -0.175  10.799  0.3256  0.4082 -0.3140
   59SAPC    HX 4461   5.175  -0.260  10.868 -0.4288  0.0674 -0.9273
   59SAPC    HY 4462   5.265  -0.106  10.849 -1.7185  0.5161  2.6622
   59SAPC   O31 4463   5.251  -0.223  10.674 -0.4989  0.2957  0.3505
   59SAPC   C31 4464   5.221  -0.344  10.634  0.7366 -0.1278  0.1432
   59SAPC   O32 4465   5.160  -0.433  10.693 -0.7623 -0.7994 -0.1635
   59SAPC   C32 4466   5.274  -0.344  10.491 -0.3720  0.1544  0.3957
   59SAPC   H2X 4467   5.364  -0.280  10.475  0.3375 -1.1959 -1.3441
   59SAPC   H2Y 4468   5.198  -0.296  10.426  0.7225  0.2334 -0.8716
   59SAPC   C23 4469   4.819  -0.462  10.625 -0.0540 -0.4972  0.3480
   59SAPC   H3R 4470   4.728  -0.505  10.672 -0.6171 -2.4355 -2.2855
   59SAPC   H3S 4471   4.902  -0.494  10.690  0.0970  1.3995  1.1324
   59SAPC   C24 4472   4.863  -0.524  10.489  0.1980  0.1784 -0.4280
   59SAPC   H4R 4473   4.885  -0.630  10.510  0.8412  0.7745  2.4749
   59SAPC   H4S 4474   4.962  -0.481  10.467 -0.1451  1.4986  0.4598
   59SAPC   C25 4475   4.754  -0.497  10.387  0.1901  0.3221  0.1054
   59SAPC   H5R 4476   4.661  -0.550  10.413  1.9666 -2.5046  1.0925
   59SAPC   C26 4477   4.772  -0.414  10.278  0.1348 -0.8332  0.2989
   59SAPC   H6R 4478   4.681  -0.386  10.224 -0.0491  0.7728  1.3848
   59SAPC   C27 4479   4.899  -0.339  10.241 -0.0802 -0.5745  0.2414
   59SAPC   H7R 4480   4.975  -0.349  10.322 -1.6179 -0.1796  1.7731
   59SAPC   H7S 4481   4.885  -0.230  10.228  1.9448 -0.5205 -2.2246
   59SAPC   C28 4482   4.952  -0.393  10.112  0.1938 -0.1628  0.2672
   59SAPC   H8R 4483   5.027  -0.473  10.118  1.6416  1.1279 -0.0374
   59SAPC   C29 4484   4.921  -0.349   9.988 -0.4566 -0.1447 -0.7864
   59SAPC   H9R 4485   4.949  -0.405   9.898 -1.1385  0.5825 -1.4704
   59SAPC  C210 4486   4.830  -0.234   9.952  0.0303  0.0394  0.9769
   59SAPC  H10R 4487   4.753  -0.205  10.027 -1.2237 -0.1241 -0.2228
   59SAPC  H10S 4488   4.780  -0.263   9.857  0.7588 -0.2524  0.6737
   59SAPC  C211 4489   4.918  -0.120   9.915  0.1757  0.1971  0.2596
   59SAPC  H11R 4490   4.933  -0.050   9.999  1.1185  1.8200 -1.1776
   59SAPC  C212 4491   4.957  -0.082   9.789  0.1900 -0.4225 -0.2529
   59SAPC  H12R 4492   5.015   0.011   9.778  0.7523 -0.6163  0.9885
   59SAPC  C213 4493   4.919  -0.148   9.657  0.4596  0.3537  0.0066
   59SAPC  H13R 4494   4.914  -0.063   9.586 -3.7424 -0.3463 -0.8593
   59SAPC  H13S 4495   4.815  -0.188   9.665 -0.3063  2.1803 -0.3431
   59SAPC  C214 4496   5.021  -0.253   9.613 -0.4606 -0.4032 -0.1203
   59SAPC  H14R 4497   5.067  -0.305   9.698 -2.1788 -1.4891  0.1731
   59SAPC  C215 4498   5.064  -0.265   9.486  0.4428  0.5546 -0.1649
   59SAPC  H15R 4499   5.145  -0.331   9.452 -1.1351 -0.7031 -1.7162
   59SAPC  C216 4500   5.006  -0.191   9.366 -0.5052  0.6715  0.3095
   59SAPC  H16R 4501   5.068  -0.201   9.274 -0.9358 -0.0637  0.0901
   59SAPC  H16S 4502   5.002  -0.083   9.392  0.1992  0.5400  1.0000
   59SAPC  C217 4503   4.867  -0.241   9.315 -0.1194 -0.0212 -0.2879
   59SAPC  H17R 4504   4.800  -0.265   9.400 -1.6090  0.0925 -1.3918
   59SAPC  H17S 4505   4.877  -0.335   9.257 -0.2131 -0.0465 -0.2616
   59SAPC  C218 4506   4.793  -0.138   9.232 -0.2675  0.4128  0.6460
   59SAPC  H18R 4507   4.845  -0.109   9.138  0.3679  0.4979  1.0161
   59SAPC  H18S 4508   4.783  -0.042   9.288  0.1729 -0.1814  1.7791
   59SAPC  C219 4509   4.654  -0.186   9.196 -0.1641 -0.2310 -0.5905
   59SAPC  H19R 4510   4.596  -0.177   9.290 -0.2757  2.1289 -0.8280
   59SAPC  H19S 4511   4.657  -0.291   9.160 -0.3333 -0.6354  0.5384
   59SAPC  C220 4512   4.599  -0.093   9.093  0.2446  0.0184  0.0622
   59SAPC  H20R 4513   4.572   0.011   9.118 -1.7882 -0.3314 -0.4833
   59SAPC  H20S 4514   4.509  -0.140   9.048 -0.1724  2.7008 -2.1756
   59SAPC  H20T 4515   4.666  -0.091   9.004 -0.8740  0.2962 -0.7958
   59SAPC   C33 4516   5.301  -0.485  10.426 -0.3127  0.0482  0.1101
   59SAPC   H3X 4517   5.204  -0.538  10.437 -1.4200  1.7764 -0.8040
   59SAPC   H3Y 4518   5.373  -0.542  10.488  1.6884  0.9042 -1.3302
   59SAPC   C34 4519   5.341  -0.473  10.279  0.2096  0.4350 -0.6601
   59SAPC   H4X 4520   5.428  -0.411  10.251 -0.3152  1.9611  0.8992
   59SAPC   H4Y 4521   5.252  -0.423  10.236 -0.0216  0.6672  0.0665
   59SAPC   C35 4522   5.362  -0.611  10.223 -0.1857 -0.7619 -0.2568
   59SAPC   H5X 4523   5.268  -0.670  10.229 -1.3324  1.1425  2.4416
   59SAPC   H5Y 4524   5.444  -0.667  10.273  1.6273  0.2484 -1.9088
   59SAPC   C36 4525   5.407  -0.616  10.072  0.3027 -0.1328 -0.2614
   59SAPC   H6X 4526   5.454  -0.711  10.040 -0.1584  0.1248 -1.8142
   59SAPC   H6Y 4527   5.479  -0.533  10.053  0.0008  0.0161 -0.7860
   59SAPC   C37 4528   5.292  -0.585   9.977  0.3370  0.1249 -0.1844
   59SAPC   H7X 4529   5.253  -0.483   9.996  1.2677  0.3768  0.4720
   59SAPC   H7Y 4530   5.207  -0.654   9.996 -1.3894  2.1971 -0.0323
   59SAPC   C38 4531   5.324  -0.594   9.828 -0.2891 -0.7617 -0.6314
   59SAPC   H8X 4532   5.371  -0.695   9.824  0.3168 -0.5678  0.8284
   59SAPC   H8Y 4533   5.396  -0.519   9.790 -2.1135  1.1565 -0.4612
   59SAPC   C39 4534   5.199  -0.606   9.737 -0.8054 -0.4539  0.2558
   59SAPC   H9X 4535   5.142  -0.511   9.742  0.7685  0.4216  3.0540
   59SAPC   H9Y 4536   5.144  -0.684   9.794  0.9027 -1.1620  1.0041
   59SAPC  C310 4537   5.247  -0.655   9.597 -0.4325  0.4620  0.1292
   59SAPC  H10X 4538   5.296  -0.752   9.618 -1.0659  0.2117  0.5018
   59SAPC  H10Y 4539   5.320  -0.582   9.557 -0.5141 -0.3329 -1.5211
   59SAPC  C311 4540   5.136  -0.684   9.500  0.0913  0.1749  0.0659
   59SAPC  H11X 4541   5.067  -0.598   9.494  0.5037  0.6085  1.1674
   59SAPC  H11Y 4542   5.084  -0.766   9.554 -0.1399  0.2790  0.0012
   59SAPC  C312 4543   5.177  -0.722   9.360 -0.5265  0.5439  0.8697
   59SAPC  H12X 4544   5.223  -0.824   9.353 -0.5977  0.4901  1.1859
   59SAPC  H12Y 4545   5.252  -0.650   9.322 -0.5033 -0.2275 -0.6453
   59SAPC  C313 4546   5.053  -0.718   9.261 -0.1672  0.6417 -0.8125
   59SAPC  H13X 4547   5.071  -0.797   9.185 -0.4050 -1.3749  1.1297
   59SAPC  H13Y 4548   5.055  -0.615   9.219  1.7758  0.0931 -2.2015
   59SAPC  C314 4549   4.915  -0.754   9.319  0.0774  0.0377  1.1025
   59SAPC  H14X 4550   4.893  -0.677   9.397 -1.3484 -1.3314  2.1100
   59SAPC  H14Y 4551   4.930  -0.849   9.376 -0.6335  0.2711  1.6966
   59SAPC  C315 4552   4.800  -0.765   9.224  0.7498 -0.0192  0.3444
   59SAPC  H15X 4553   4.703  -0.779   9.277 -0.9243  0.7473 -2.3498
   59SAPC  H15Y 4554   4.815  -0.846   9.150 -2.0369  0.0454 -0.3936
   59SAPC  C316 4555   4.784  -0.641   9.139 -0.6538  0.6965  0.5885
   59SAPC  H16X 4556   4.878  -0.637   9.080 -0.4264  2.5312  0.9921
   59SAPC  H16Y 4557   4.770  -0.539   9.183 -1.0017  1.0747 -0.3609
   59SAPC  C317 4558   4.666  -0.656   9.040  0.3514  0.3164  0.4898
   59SAPC  H17X 4559   4.572  -0.648   9.098 -1.0144 -0.3239 -1.5088
   59SAPC  H17Y 4560   4.675  -0.757   8.994 -0.5486  0.1617  0.6481
   59SAPC  C318 4561   4.662  -0.553   8.925 -0.2423  0.2376 -0.1198
   59SAPC  H18X 4562   4.574  -0.486   8.932 -1.0973 -0.9112  0.4529
   59SAPC  H18Y 4563   4.654  -0.608   8.829  0.8613  0.8933 -0.6102
   59SAPC  H18Z 4564   4.753  -0.489   8.929 -2.1149  2.9507  2.5746
   60SAPC     N 4565   5.740   3.990  10.925 -0.1513 -0.1446  0.5793
   60SAPC   C12 4566   5.747   4.141  10.915  0.1986 -0.1980 -0.0227
   60SAPC  H12A 4567   5.647   4.179  10.898  0.1205  0.7022  2.0513
   60SAPC  H12B 4568   5.809   4.169  10.831  0.7689  1.0438  0.7628
   60SAPC   C13 4569   5.659   3.941  11.032  0.2071  0.0001 -0.3071
   60SAPC  H13A 4570   5.569   4.001  11.036  0.0713 -0.2793  1.3687
   60SAPC  H13B 4571   5.640   3.835  11.019 -1.2831  0.1230  0.5997
   60SAPC  H13C 4572   5.702   3.952  11.130 -1.2723  1.5901  0.2059
   60SAPC   C14 4573   5.681   3.936  10.796  0.0122  0.1599  0.0545
   60SAPC  H14A 4574   5.574   3.950  10.793 -0.3551 -2.2842 -1.9724
   60SAPC  H14B 4575   5.737   3.975  10.712 -0.6913 -1.7017 -1.3451
   60SAPC  H14C 4576   5.691   3.828  10.797 -0.1888  0.1391 -0.0316
   60SAPC   C15 4577   5.877   3.941  10.930  0.6435  0.3498 -0.0333
   60SAPC  H15A 4578   5.916   3.939  10.829  1.2031  0.5208  0.1784
   60SAPC  H15B 4579   5.929   4.008  10.997  1.7847  1.1270 -1.6322
   60SAPC  H15C 4580   5.872   3.840  10.968 -2.6978  1.1049  1.9065
   60SAPC   C11 4581   5.800   4.205  11.047  0.0176 -0.3913  0.3082
   60SAPC  H11A 4582   5.749   4.153  11.131  0.3346  0.4747  1.0531
   60SAPC  H11B 4583   5.769   4.311  11.058 -0.6711 -0.6271  0.6888
   60SAPC     P 4584   6.045   4.267  10.976 -0.0201 -0.2964  0.2219
   60SAPC   O13 4585   6.065   4.402  11.033  0.0420  0.4406  0.1009
   60SAPC   O14 4586   6.161   4.179  10.968  0.0118 -0.0665 -0.2012
   60SAPC   O12 4587   5.944   4.187  11.068  0.1125 -0.1122  0.3936
   60SAPC   O11 4588   5.977   4.280  10.839  0.5905 -0.4994 -0.2286
   60SAPC    C1 4589   5.987   4.406  10.768 -0.3047 -0.1685  0.3224
   60SAPC    HA 4590   5.975   4.501  10.826  0.7219  0.1964 -0.0365
   60SAPC    HB 4591   6.086   4.412  10.719  0.9001 -0.2690  2.6009
   60SAPC    C2 4592   5.884   4.414  10.659  0.3243  0.7819 -0.5194
   60SAPC    HS 4593   5.789   4.376  10.702  0.6581  1.2834  0.6926
   60SAPC   O21 4594   5.927   4.338  10.546  0.1668  0.4581  0.6408
   60SAPC   C21 4595   5.906   4.212  10.542 -0.0575 -0.3404 -0.1719
   60SAPC   O22 4596   5.839   4.141  10.617 -0.9349  0.5853 -0.5604
   60SAPC   C22 4597   5.972   4.152  10.414  0.0014  0.5407 -0.3479
   60SAPC   H2R 4598   5.892   4.168  10.339 -0.2852  1.8827  0.2211
   60SAPC   H2S 4599   6.060   4.214  10.386  0.3559  0.0856 -0.2534
   60SAPC    C3 4600   5.867   4.553  10.600 -0.1646 -0.2076 -0.5828
   60SAPC    HX 4601   5.963   4.594  10.561 -1.0092  1.1112 -1.3418
   60SAPC    HY 4602   5.843   4.627  10.680 -0.8684  0.8479 -1.7384
   60SAPC   O31 4603   5.767   4.551  10.496  0.4314 -0.5394  0.3927
   60SAPC   C31 4604   5.751   4.680  10.451 -0.9765  0.4244  0.3792
   60SAPC   O32 4605   5.821   4.773  10.489  0.7080 -0.1829 -0.0788
   60SAPC   C32 4606   5.644   4.686  10.344  0.1636  0.4232 -0.2815
   60SAPC   H2X 4607   5.602   4.787  10.323 -0.3867  0.0659 -0.9793
   60SAPC   H2Y 4608   5.567   4.614  10.379  0.2425  1.0457  1.2357
   60SAPC   C23 4609   5.998   4.005  10.432  0.3431  0.5357 -0.3175
   60SAPC   H3R 4610   5.915   3.947  10.479  0.0610  2.0034  1.0765
   60SAPC   H3S 4611   6.088   3.997  10.497  0.0966  2.3354  0.3082
   60SAPC   C24 4612   6.022   3.929  10.294 -0.1340 -0.4220  0.1021
   60SAPC   H4R 4613   6.109   3.975  10.241 -0.3473 -0.0317  0.0837
   60SAPC   H4S 4614   5.932   3.948  10.232  0.1137 -1.0125 -0.4461
   60SAPC   C25 4615   6.045   3.782  10.288  0.3446  0.0628 -0.0131
   60SAPC   H5R 4616   6.023   3.732  10.384 -1.1734  0.0945 -0.3270
   60SAPC   C26 4617   6.066   3.704  10.177  0.4188  1.0049 -0.2672
   60SAPC   H6R 4618   6.092   3.598  10.189  0.3542  0.7246 -2.2340
   60SAPC   C27 4619   6.076   3.750  10.034  0.2999 -0.7751  0.5674
   60SAPC   H7R 4620   6.180   3.784  10.014 -0.1083 -0.9022 -2.2080
   60SAPC   H7S 4621   6.022   3.848  10.030  2.0947  0.2298 -0.1194
   60SAPC   C28 4622   6.026   3.648   9.945  0.1301  0.3175  0.8860
   60SAPC   H8R 4623   5.975   3.557   9.981  2.6583 -0.6828  2.1932
   60SAPC   C29 4624   6.047   3.642   9.810 -0.1885  0.4856 -0.4663
   60SAPC   H9R 4625   6.003   3.555   9.758 -1.8154  1.1796 -0.3091
   60SAPC  C210 4626   6.126   3.740   9.727  0.6308 -0.3097 -0.6727
   60SAPC  H10R 4627   6.175   3.806   9.802  2.5089 -1.6209 -0.6498
   60SAPC  H10S 4628   6.059   3.808   9.671  0.0829  0.3749  0.7803
   60SAPC  C211 4629   6.238   3.683   9.641 -0.4016 -0.8288  0.1591
   60SAPC  H11R 4630   6.322   3.652   9.705 -1.0900 -1.5687  0.7240
   60SAPC  C212 4631   6.250   3.664   9.512 -0.7078  0.1649 -0.0650
   60SAPC  H12R 4632   6.334   3.608   9.468  0.1616  0.9382  0.5744
   60SAPC  C213 4633   6.145   3.693   9.407 -0.4738  0.6693  0.1691
   60SAPC  H13R 4634   6.068   3.762   9.448 -0.3374 -0.7075  2.9874
   60SAPC  H13S 4635   6.096   3.594   9.400 -2.1841  1.5401 -0.7947
   60SAPC  C214 4636   6.201   3.738   9.274 -0.6639  0.1623  0.7385
   60SAPC  H14R 4637   6.234   3.843   9.283  0.0471 -0.1811  2.6177
   60SAPC  C215 4638   6.206   3.686   9.156  0.1083  0.4894  1.0871
   60SAPC  H15R 4639   6.275   3.736   9.086 -1.6150  1.8330  0.2725
   60SAPC  C216 4640   6.173   3.545   9.114 -0.1543  0.8218 -0.4148
   60SAPC  H16R 4641   6.084   3.499   9.163 -0.7472 -1.3239 -3.2458
   60SAPC  H16S 4642   6.251   3.475   9.150 -1.3365 -0.0567  0.5495
   60SAPC  C217 4643   6.146   3.516   8.965 -0.4147 -0.2086  0.4882
   60SAPC  H17R 4644   6.072   3.588   8.923  1.7987  1.3220 -1.0063
   60SAPC  H17S 4645   6.117   3.409   8.955  2.5691 -1.2228  1.6687
   60SAPC  C218 4646   6.284   3.536   8.884  1.1045 -0.4873 -0.3196
   60SAPC  H18R 4647   6.354   3.473   8.943  0.6849 -0.3077  0.3853
   60SAPC  H18S 4648   6.307   3.645   8.893 -1.1132  0.0814 -0.9839
   60SAPC  C219 4649   6.266   3.504   8.737 -0.8413  0.3358 -0.0939
   60SAPC  H19R 4650   6.198   3.581   8.693 -2.1561 -1.0303 -0.5086
   60SAPC  H19S 4651   6.226   3.401   8.726  1.2708 -0.4381 -1.1683
   60SAPC  C220 4652   6.398   3.512   8.660  0.0185  0.4783 -0.4028
   60SAPC  H20R 4653   6.445   3.612   8.669  1.7425 -0.1351 -2.0438
   60SAPC  H20S 4654   6.385   3.495   8.551  1.6403  0.9945 -0.7069
   60SAPC  H20T 4655   6.470   3.435   8.694  0.7393  1.7304  1.0440
   60SAPC   C33 4656   5.680   4.629  10.208 -0.4707  0.3653  0.9644
   60SAPC   H3X 4657   5.588   4.615  10.148 -0.3065 -0.9831  1.0031
   60SAPC   H3Y 4658   5.718   4.528  10.233  1.0626  0.2273 -1.5769
   60SAPC   C34 4659   5.790   4.696  10.126  0.1418  0.3813 -0.1091
   60SAPC   H4X 4660   5.888   4.665  10.170 -0.5745  0.9134  1.9661
   60SAPC   H4Y 4661   5.787   4.806  10.137 -2.1278  0.3185  0.3329
   60SAPC   C35 4662   5.779   4.658   9.974  0.2577 -0.2178  0.3674
   60SAPC   H5X 4663   5.676   4.685   9.943 -0.2209 -0.9603  1.2535
   60SAPC   H5Y 4664   5.791   4.548   9.970 -0.6245 -0.2879 -0.7857
   60SAPC   C36 4665   5.889   4.717   9.885  0.4170  0.9943 -0.0617
   60SAPC   H6X 4666   5.983   4.706   9.943  0.8860  0.4402 -0.9002
   60SAPC   H6Y 4667   5.869   4.826   9.881  1.7653  1.2366 -2.9529
   60SAPC   C37 4668   5.896   4.648   9.743  1.0890 -0.1110  0.0890
   60SAPC   H7X 4669   5.801   4.679   9.694  0.3412 -0.8754  0.9973
   60SAPC   H7Y 4670   5.904   4.538   9.759  0.9489  0.0846  1.6878
   60SAPC   C38 4671   6.015   4.695   9.654  1.1451  1.2787 -0.2446
   60SAPC   H8X 4672   6.110   4.669   9.705 -0.0322  1.6748  2.2566
   60SAPC   H8Y 4673   5.999   4.804   9.644  1.1728  1.3012 -0.0415
   60SAPC   C39 4674   6.020   4.630   9.518  0.1939  0.2909 -0.2068
   60SAPC   H9X 4675   5.922   4.656   9.472  0.8878  0.7033 -1.5151
   60SAPC   H9Y 4676   6.018   4.521   9.536 -0.3186  0.3562  0.1338
   60SAPC  C310 4677   6.133   4.680   9.429 -0.5226 -0.5742  0.5574
   60SAPC  H10X 4678   6.236   4.663   9.466 -1.0759 -2.8015  1.1715
   60SAPC  H10Y 4679   6.108   4.789   9.428 -4.2876 -1.2490  2.1631
   60SAPC  C311 4680   6.148   4.630   9.287 -0.1857 -0.3242  0.1566
   60SAPC  H11X 4681   6.164   4.520   9.284  3.4422  0.0709 -0.7747
   60SAPC  H11Y 4682   6.244   4.666   9.242 -0.5702 -1.1219 -1.3977
   60SAPC  C312 4683   6.033   4.674   9.189 -0.3930 -0.6862 -0.3054
   60SAPC  H12X 4684   5.934   4.658   9.238 -0.2500 -0.9065 -0.0851
   60SAPC  H12Y 4685   6.035   4.623   9.091 -2.8570  1.6987 -1.7656
   60SAPC  C313 4686   6.047   4.827   9.153 -0.3694  0.3775  0.2604
   60SAPC  H13X 4687   6.149   4.848   9.113  1.6910 -5.2052  1.6564
   60SAPC  H13Y 4688   6.055   4.875   9.253  1.3927  2.7681 -0.9118
   60SAPC  C314 4689   5.927   4.884   9.076  0.0443  0.2049 -0.1944
   60SAPC  H14X 4690   5.928   4.994   9.090  0.4426  0.2802 -0.7605
   60SAPC  H14Y 4691   5.838   4.832   9.119  1.0814  0.5425  2.5403
   60SAPC  C315 4692   5.952   4.860   8.922 -0.6040  0.2517  1.0411
   60SAPC  H15X 4693   5.856   4.879   8.869 -0.0542  1.2107  0.3535
   60SAPC  H15Y 4694   5.977   4.753   8.902 -3.2832 -0.2193 -0.1854
   60SAPC  C316 4695   6.054   4.958   8.860  0.9668  0.0317 -0.2669
   60SAPC  H16X 4696   6.152   4.940   8.908 -0.4963 -2.0869  2.2271
   60SAPC  H16Y 4697   6.023   5.063   8.880  1.4402  0.1595 -0.1913
   60SAPC  C317 4698   6.058   4.941   8.707 -0.2314 -0.8377  0.2555
   60SAPC  H17X 4699   5.958   4.938   8.658  0.0961 -3.0953 -0.3809
   60SAPC  H17Y 4700   6.116   4.851   8.676  1.8623  1.0893 -1.7934
   60SAPC  C318 4701   6.148   5.051   8.646  0.1482 -0.3093 -0.6501
   60SAPC  H18X 4702   6.253   5.024   8.671 -0.2513 -0.3605  1.0935
   60SAPC  H18Y 4703   6.116   5.152   8.679  1.4609 -0.0936  0.0408
   60SAPC  H18Z 4704   6.143   5.064   8.535  0.4372  1.6230 -0.4740
   61SAPC     N 4705   1.383   4.001  11.080 -0.4349  0.2430 -0.3769
   61SAPC   C12 4706   1.439   3.924  10.956  0.3275  1.2991  0.5374
   61SAPC  H12A 4707   1.521   3.863  10.990  1.3278  1.2312 -1.7989
   61SAPC  H12B 4708   1.471   4.001  10.888  0.5401  1.4889  0.8516
   61SAPC   C13 4709   1.283   4.096  11.047 -0.0927 -0.2672 -0.1642
   61SAPC  H13A 4710   1.240   4.141  11.136  0.2688 -0.4491  0.1049
   61SAPC  H13B 4711   1.321   4.173  10.981  0.6752  1.5170  2.2107
   61SAPC  H13C 4712   1.193   4.054  11.006  0.6116 -2.1907  0.1931
   61SAPC   C14 4713   1.332   3.909  11.183 -0.4341 -0.8582  0.3301
   61SAPC  H14A 4714   1.250   3.852  11.143 -1.0030  0.0201  0.2083
   61SAPC  H14B 4715   1.410   3.848  11.228  1.3406 -0.3210 -1.8053
   61SAPC  H14C 4716   1.277   3.964  11.258  0.4141 -0.8731  0.9873
   61SAPC   C15 4717   1.494   4.080  11.147  0.9054 -0.7026 -0.4590
   61SAPC  H15A 4718   1.576   4.022  11.189  1.3946  1.4707  1.8236
   61SAPC  H15B 4719   1.533   4.140  11.067 -1.6589 -0.7161 -1.8239
   61SAPC  H15C 4720   1.463   4.144  11.228  1.6872  0.1652 -0.8261
   61SAPC   C11 4721   1.338   3.830  10.873  0.9076  0.1793 -0.5820
   61SAPC  H11A 4722   1.405   3.790  10.794  0.4096 -2.1091  0.0758
   61SAPC  H11B 4723   1.264   3.903  10.834  1.7304  0.7218 -1.1576
   61SAPC     P 4724   1.390   3.606  11.004  0.0276 -0.3061 -0.0158
   61SAPC   O13 4725   1.528   3.650  10.985  0.4243  0.1571  0.4701
   61SAPC   O14 4726   1.367   3.571  11.141  0.5220 -0.3287 -0.3085
   61SAPC   O12 4727   1.286   3.715  10.946  0.6249  0.1709  0.1516
   61SAPC   O11 4728   1.372   3.483  10.913  0.7120 -0.6198  0.6578
   61SAPC    C1 4729   1.257   3.458  10.829  0.1419 -0.9858 -0.1822
   61SAPC    HA 4730   1.207   3.372  10.877  0.0866  0.3622  2.3659
   61SAPC    HB 4731   1.180   3.538  10.835  0.4898 -0.5730 -1.0396
   61SAPC    C2 4732   1.303   3.428  10.692  0.0321  0.3846 -0.0673
   61SAPC    HS 4733   1.402   3.381  10.709 -0.1093  0.6613  1.7692
   61SAPC   O21 4734   1.314   3.551  10.624  0.5347  0.2738  0.1314
   61SAPC   C21 4735   1.394   3.565  10.519 -0.2352  0.2961 -0.2496
   61SAPC   O22 4736   1.470   3.476  10.473  0.1224  0.3933 -0.0850
   61SAPC   C22 4737   1.375   3.707  10.471  0.6004  0.3996 -0.2306
   61SAPC   H2R 4738   1.341   3.769  10.557 -1.4933 -1.4133  0.3496
   61SAPC   H2S 4739   1.474   3.743  10.435  0.6371  0.2514 -0.2767
   61SAPC    C3 4740   1.195   3.341  10.629 -0.4945  0.2631  0.9222
   61SAPC    HX 4741   1.098   3.393  10.647 -1.0247 -0.9334  1.6638
   61SAPC    HY 4742   1.175   3.250  10.691  0.2145  0.1709  1.0260
   61SAPC   O31 4743   1.207   3.318  10.489  0.0861  0.2031 -0.4013
   61SAPC   C31 4744   1.308   3.251  10.444  0.7349  0.0562 -0.7258
   61SAPC   O32 4745   1.373   3.173  10.508 -0.9231 -0.0515 -0.4334
   61SAPC   C32 4746   1.315   3.272  10.292 -0.0384 -0.0994 -0.6662
   61SAPC   H2X 4747   1.282   3.377  10.277 -0.3838  0.0150  0.7035
   61SAPC   H2Y 4748   1.236   3.208  10.246 -0.7487  0.5191 -0.3311
   61SAPC   C23 4749   1.267   3.706  10.362  0.5273 -0.1030 -0.3092
   61SAPC   H3R 4750   1.167   3.689  10.407  0.7730 -2.5533 -0.5641
   61SAPC   H3S 4751   1.285   3.622  10.292 -2.1594 -0.1873 -1.0311
   61SAPC   C24 4752   1.267   3.842  10.286  0.6864 -0.0061 -0.1030
   61SAPC   H4R 4753   1.242   3.923  10.359  2.2210  0.5182 -0.1108
   61SAPC   H4S 4754   1.174   3.850  10.226 -1.5221 -1.2685  2.8817
   61SAPC   C25 4755   1.388   3.881  10.216 -0.3162 -0.2494 -0.3887
   61SAPC   H5R 4756   1.466   3.907  10.288 -3.4941  1.7766  2.6723
   61SAPC   C26 4757   1.401   3.907  10.083  0.0538  0.3820  0.0621
   61SAPC   H6R 4758   1.501   3.940  10.049  2.1211 -2.0912  3.2012
   61SAPC   C27 4759   1.296   3.887   9.975  0.4014  0.2050 -0.1667
   61SAPC   H7R 4760   1.285   3.982   9.919 -3.3957 -0.2372 -0.3821
   61SAPC   H7S 4761   1.200   3.844  10.011  0.6612  1.0852  1.6903
   61SAPC   C28 4762   1.351   3.781   9.889 -0.1189  0.5416  0.0263
   61SAPC   H8R 4763   1.374   3.687   9.941  0.3518 -0.9240 -2.6875
   61SAPC   C29 4764   1.369   3.780   9.755 -0.3935 -0.5987 -0.4026
   61SAPC   H9R 4765   1.424   3.697   9.709  1.8780 -0.6111  2.1046
   61SAPC  C210 4766   1.321   3.890   9.658 -0.5051  0.1183 -1.1082
   61SAPC  H10R 4767   1.257   3.965   9.709 -2.0662 -0.8872 -1.5065
   61SAPC  H10S 4768   1.248   3.847   9.586 -1.0729  0.0674 -0.5165
   61SAPC  C211 4769   1.436   3.946   9.582 -0.2434  0.7199 -0.1167
   61SAPC  H11R 4770   1.527   3.956   9.642 -1.4107  0.0763  1.8768
   61SAPC  C212 4771   1.424   4.004   9.457 -0.1682 -0.4386  0.0713
   61SAPC  H12R 4772   1.511   4.061   9.422 -1.3591  0.7258 -1.1024
   61SAPC  C213 4773   1.297   4.012   9.374 -0.2979  0.0875  0.4282
   61SAPC  H13R 4774   1.307   4.100   9.307  2.7562 -0.4685  0.0282
   61SAPC  H13S 4775   1.215   4.031   9.447  0.3761  0.3695  1.1310
   61SAPC  C214 4776   1.253   3.893   9.293  0.6779 -0.2406 -0.3971
   61SAPC  H14R 4777   1.263   3.800   9.351 -0.5068  1.1339  2.1772
   61SAPC  C215 4778   1.193   3.899   9.172 -0.8788  0.3591  0.2707
   61SAPC  H15R 4779   1.152   3.808   9.126  0.3481  0.0419 -0.2478
   61SAPC  C216 4780   1.173   4.023   9.087 -0.0660 -0.3429  0.3771
   61SAPC  H16R 4781   1.162   4.116   9.148  0.8497 -0.0640  0.1288
   61SAPC  H16S 4782   1.069   4.019   9.048  0.1209 -0.2830 -0.1306
   61SAPC  C217 4783   1.278   4.026   8.973  0.5228 -0.6093 -0.3687
   61SAPC  H17R 4784   1.285   3.924   8.931 -0.2845 -0.5611 -0.6341
   61SAPC  H17S 4785   1.374   4.059   9.020  0.3737 -1.7163  0.7658
   61SAPC  C218 4786   1.240   4.128   8.862 -0.4854  1.5466  0.3332
   61SAPC  H18R 4787   1.139   4.105   8.822 -0.4347  0.4821  0.7798
   61SAPC  H18S 4788   1.314   4.105   8.782 -1.6191  0.7335 -0.5234
   61SAPC  C219 4789   1.249   4.272   8.903 -0.2091  0.7411  0.1784
   61SAPC  H19R 4790   1.355   4.300   8.923  0.8863 -1.1511 -2.3737
   61SAPC  H19S 4791   1.181   4.284   8.990  0.7831  0.7866  0.9632
   61SAPC  C220 4792   1.216   4.368   8.787  0.2037  0.1170  0.2529
   61SAPC  H20R 4793   1.224   4.477   8.808  0.2050  0.4324 -1.2506
   61SAPC  H20S 4794   1.114   4.344   8.752  0.6942 -0.7614 -0.6128
   61SAPC  H20T 4795   1.294   4.347   8.711 -0.6670  1.9038 -1.2170
   61SAPC   C33 4796   1.448   3.229  10.234 -1.0911 -1.0082 -0.1198
   61SAPC   H3X 4797   1.496   3.144  10.286  0.2619  0.6574  1.4697
   61SAPC   H3Y 4798   1.536   3.294  10.252 -0.6733 -0.3666 -3.7435
   61SAPC   C34 4799   1.429   3.205  10.086 -0.0868 -0.5820  0.5906
   61SAPC   H4X 4800   1.350   3.128  10.072  0.0754 -0.7457  0.5750
   61SAPC   H4Y 4801   1.521   3.157  10.045 -0.1813 -0.4537  0.2200
   61SAPC   C35 4802   1.397   3.331  10.004  0.3263  0.8439  0.0560
   61SAPC   H5X 4803   1.492   3.386   9.991  0.4952  0.1573 -1.7493
   61SAPC   H5Y 4804   1.320   3.390  10.060 -0.5836  0.1670 -0.4537
   61SAPC   C36 4805   1.342   3.304   9.863 -0.3040 -0.0932  0.1477
   61SAPC   H6X 4806   1.296   3.402   9.839  0.4182  0.2470  0.1072
   61SAPC   H6Y 4807   1.262   3.228   9.875 -2.8709  2.6963  2.3066
   61SAPC   C37 4808   1.447   3.253   9.765  0.0168 -0.1575 -0.0993
   61SAPC   H7X 4809   1.486   3.154   9.797  0.5666 -0.7425 -2.4018
   61SAPC   H7Y 4810   1.529   3.327   9.780 -1.9901  2.3595 -0.8580
   61SAPC   C38 4811   1.413   3.252   9.617 -0.1884 -0.3432 -0.0902
   61SAPC   H8X 4812   1.390   3.359   9.595  1.2407 -0.1979 -1.0363
   61SAPC   H8Y 4813   1.316   3.206   9.589 -0.6280  0.9173 -0.7702
   61SAPC   C39 4814   1.525   3.208   9.523  0.0661 -0.5295 -0.0647
   61SAPC   H9X 4815   1.526   3.097   9.523  0.2557 -0.5694 -2.1875
   61SAPC   H9Y 4816   1.621   3.247   9.562 -0.4213  0.5587  0.0764
   61SAPC  C310 4817   1.505   3.247   9.374 -0.0140 -0.6415 -0.6791
   61SAPC  H10X 4818   1.500   3.358   9.371  2.1265 -0.4996 -0.3827
   61SAPC  H10Y 4819   1.401   3.216   9.349 -0.9130 -0.0751  2.0027
   61SAPC  C311 4820   1.619   3.197   9.283 -0.1720 -0.2950 -0.0378
   61SAPC  H11X 4821   1.634   3.089   9.304  0.8908 -0.0971  0.2747
   61SAPC  H11Y 4822   1.709   3.250   9.320 -0.3466  1.2774 -1.7203
   61SAPC  C312 4823   1.589   3.196   9.134  0.0268  0.1639 -0.0240
   61SAPC  H12X 4824   1.576   3.300   9.097 -2.0763 -0.0176  0.1017
   61SAPC  H12Y 4825   1.496   3.137   9.124  1.2289 -2.1718  1.6626
   61SAPC  C313 4826   1.686   3.132   9.038 -0.0214 -0.0505 -0.3919
   61SAPC  H13X 4827   1.719   3.039   9.090 -0.9398 -0.4991 -0.5798
   61SAPC  H13Y 4828   1.770   3.203   9.025 -1.5440  1.4898 -2.4156
   61SAPC  C314 4829   1.629   3.099   8.900 -0.1942 -0.2142  0.1594
   61SAPC  H14X 4830   1.598   3.199   8.863 -0.3528 -1.0822 -2.1918
   61SAPC  H14Y 4831   1.538   3.036   8.902 -0.4841  0.1610 -0.7469
   61SAPC  C315 4832   1.719   3.027   8.804  0.1995 -0.1403 -0.7434
   61SAPC  H15X 4833   1.663   2.984   8.718  0.2298 -0.0189 -0.8233
   61SAPC  H15Y 4834   1.766   2.943   8.860 -3.0956 -0.9018  1.1709
   61SAPC  C316 4835   1.834   3.108   8.743  0.9580  0.7468  0.3041
   61SAPC  H16X 4836   1.884   3.059   8.657  0.1490  0.1359  0.1623
   61SAPC  H16Y 4837   1.907   3.117   8.826  2.9499  1.4553 -1.4236
   61SAPC  C317 4838   1.800   3.248   8.692 -0.6702  0.1711 -0.3460
   61SAPC  H17X 4839   1.892   3.304   8.665  0.7023 -1.1236  1.3427
   61SAPC  H17Y 4840   1.763   3.299   8.783 -0.0083 -0.4747  0.2999
   61SAPC  C318 4841   1.695   3.260   8.582 -0.4210 -0.0577  0.7436
   61SAPC  H18X 4842   1.652   3.363   8.583  0.0921  0.1710  0.0018
   61SAPC  H18Y 4843   1.615   3.187   8.607  0.7466 -1.0636  1.5995
   61SAPC  H18Z 4844   1.724   3.245   8.476  0.9606  0.1431  1.0834
   62SAPC     N 4845   0.553   2.165  11.057 -0.3967  0.2735  0.2291
   62SAPC   C12 4846   0.422   2.249  11.065 -0.2053 -0.4185  0.1716
   62SAPC  H12A 4847   0.451   2.350  11.043  3.4519 -0.9798  1.7635
   62SAPC  H12B 4848   0.374   2.251  11.162 -2.4591 -0.9192 -0.8619
   62SAPC   C13 4849   0.657   2.224  11.146 -0.2527  0.6887 -0.3392
   62SAPC  H13A 4850   0.745   2.163  11.165 -0.2883  0.3491 -1.2311
   62SAPC  H13B 4851   0.692   2.316  11.101 -0.0057  0.6664 -0.1952
   62SAPC  H13C 4852   0.617   2.252  11.242 -2.1149  1.7884 -1.3927
   62SAPC   C14 4853   0.522   2.027  11.103  0.4841  0.7780  0.4644
   62SAPC  H14A 4854   0.595   1.957  11.065 -1.1056  0.5411 -2.4773
   62SAPC  H14B 4855   0.526   2.019  11.210 -0.6548  2.4031  0.6767
   62SAPC  H14C 4856   0.428   1.991  11.063  2.2298 -0.6802 -2.7815
   62SAPC   C15 4857   0.606   2.162  10.916  0.0949 -0.5077  0.4591
   62SAPC  H15A 4858   0.659   2.254  10.892 -5.0696  2.2791 -1.8223
   62SAPC  H15B 4859   0.682   2.086  10.904 -0.0230 -0.4496 -0.7193
   62SAPC  H15C 4860   0.527   2.163  10.843  0.6779  1.9127 -0.2350
   62SAPC   C11 4861   0.297   2.225  10.961 -0.1057 -0.3824 -0.3889
   62SAPC  H11A 4862   0.207   2.264  11.014  1.0602 -0.3912  1.7127
   62SAPC  H11B 4863   0.277   2.116  10.946  0.7120 -0.5678 -0.2024
   62SAPC     P 4864   0.309   2.449  10.823  0.0808  0.4191  0.4542
   62SAPC   O13 4865   0.357   2.513  10.946 -0.0473  1.0315  0.2897
   62SAPC   O14 4866   0.375   2.489  10.696  0.3027 -0.2415 -0.1877
   62SAPC   O12 4867   0.313   2.295  10.837 -0.0248 -0.0406  0.3069
   62SAPC   O11 4868   0.157   2.480  10.814 -0.5877  0.4075 -0.3614
   62SAPC    C1 4869   0.062   2.422  10.727 -0.5558  0.3647 -0.9998
   62SAPC    HA 4870   0.082   2.314  10.742  0.1927  0.7578  1.0894
   62SAPC    HB 4871  -0.035   2.457  10.767  0.7529  2.3567  0.6240
   62SAPC    C2 4872   0.066   2.471  10.581 -0.1980 -0.3764 -0.4623
   62SAPC    HS 4873   0.160   2.432  10.536  2.2324  2.4586  1.7144
   62SAPC   O21 4874   0.070   2.617  10.590  0.0847  0.7119  0.2926
   62SAPC   C21 4875   0.131   2.668  10.482 -0.5313 -0.2922 -0.0228
   62SAPC   O22 4876   0.182   2.609  10.390  0.5793 -0.9857  0.1586
   62SAPC   C22 4877   0.129   2.821  10.509  0.0614  0.2617 -0.4027
   62SAPC   H2R 4878   0.041   2.854  10.568  0.5573  1.0266 -0.0743
   62SAPC   H2S 4879   0.223   2.846  10.563  4.8910 -4.1700 -5.5001
   62SAPC    C3 4880  -0.065   2.429  10.510 -0.0521  0.0822  0.1103
   62SAPC    HX 4881  -0.141   2.493  10.561  1.6430  2.2182  0.0933
   62SAPC    HY 4882  -0.083   2.322  10.530 -1.4290  0.3467  0.3674
   62SAPC   O31 4883  -0.069   2.468  10.368  0.0310  0.1341  0.0407
   62SAPC   C31 4884   0.016   2.411  10.284 -0.0938  0.4761  0.6244
   62SAPC   O32 4885   0.076   2.309  10.317  0.1623 -0.2062  0.6718
   62SAPC   C32 4886   0.025   2.478  10.150 -0.8291  0.5153 -0.8784
   62SAPC   H2X 4887   0.126   2.514  10.123 -1.7834  2.3673 -2.2143
   62SAPC   H2Y 4888  -0.043   2.564  10.169 -1.7591 -0.6576  1.5828
   62SAPC   C23 4889   0.134   2.912  10.383  0.2710 -0.3070 -0.4559
   62SAPC   H3R 4890   0.071   2.858  10.310 -0.6343  0.9351 -0.6302
   62SAPC   H3S 4891   0.240   2.917  10.351  0.0545 -0.3728 -1.1850
   62SAPC   C24 4892   0.056   3.047  10.384 -0.7397 -0.5944  0.0351
   62SAPC   H4R 4893   0.099   3.112  10.463 -1.1053  2.3136 -2.0062
   62SAPC   H4S 4894  -0.052   3.028  10.407 -1.1354 -1.7250 -2.4558
   62SAPC   C25 4895   0.079   3.110  10.245 -0.0058  0.4325 -0.1367
   62SAPC   H5R 4896   0.162   3.181  10.233 -0.2707  0.8276  0.3179
   62SAPC   C26 4897   0.022   3.067  10.130  0.3039 -0.1486 -0.4091
   62SAPC   H6R 4898   0.059   3.121  10.042  1.3370  3.4613  2.0063
   62SAPC   C27 4899  -0.085   2.964  10.115  0.5244  0.3527 -0.2138
   62SAPC   H7R 4900  -0.168   3.012  10.058 -0.4118  0.5189  1.2617
   62SAPC   H7S 4901  -0.130   2.925  10.209  1.1048 -3.0683 -1.2095
   62SAPC   C28 4902  -0.022   2.850  10.051 -0.2800 -0.0660  0.1955
   62SAPC   H8R 4903   0.053   2.797  10.112 -0.1145  0.1138  0.1479
   62SAPC   C29 4904  -0.048   2.810   9.926 -1.0357 -0.4324 -1.4123
   62SAPC   H9R 4905   0.022   2.732   9.891  1.1574  0.7759  0.0385
   62SAPC  C210 4906  -0.155   2.867   9.839  0.0440 -0.3971 -0.4114
   62SAPC  H10R 4907  -0.251   2.884   9.893 -0.2768  0.0955 -1.1195
   62SAPC  H10S 4908  -0.191   2.795   9.762 -1.2751  0.9426 -1.0900
   62SAPC  C211 4909  -0.092   2.975   9.766  0.3233 -1.0760  0.1578
   62SAPC  H11R 4910  -0.113   3.078   9.800 -1.7861 -0.1126 -3.4791
   62SAPC  C212 4911  -0.023   2.964   9.654 -0.8190  0.0346 -0.2808
   62SAPC  H12R 4912   0.021   3.048   9.598 -1.2204  0.8592  0.6275
   62SAPC  C213 4913   0.004   2.834   9.577  0.3337  0.0520  0.5573
   62SAPC  H13R 4914   0.007   2.747   9.647 -0.6672 -2.2268 -2.0415
   62SAPC  H13S 4915   0.107   2.837   9.538  0.8257 -0.5966  1.7422
   62SAPC  C214 4916  -0.100   2.821   9.472  0.3696  0.3835  0.3677
   62SAPC  H14R 4917  -0.199   2.859   9.502  0.9172  1.3328  1.0453
   62SAPC  C215 4918  -0.089   2.766   9.350  0.0625 -0.0737 -0.3538
   62SAPC  H15R 4919  -0.177   2.752   9.286  0.7693  1.7890 -1.8175
   62SAPC  C216 4920   0.045   2.727   9.295  0.2908 -0.0404 -0.2657
   62SAPC  H16R 4921   0.085   2.634   9.340 -0.5349 -0.3981 -0.2473
   62SAPC  H16S 4922   0.124   2.804   9.304 -1.3459  1.6323  0.3680
   62SAPC  C217 4923   0.050   2.703   9.144 -0.3806  0.0955 -0.0801
   62SAPC  H17R 4924   0.024   2.801   9.097  0.9670  0.6116  0.1901
   62SAPC  H17S 4925  -0.010   2.622   9.098 -0.9379  0.7186 -0.4831
   62SAPC  C218 4926   0.193   2.673   9.098 -0.4635 -0.4124 -0.5380
   62SAPC  H18R 4927   0.223   2.573   9.134 -0.3042  0.2779  1.3509
   62SAPC  H18S 4928   0.252   2.749   9.153 -1.6930  0.4317 -0.3297
   62SAPC  C219 4929   0.202   2.702   8.947  0.7631 -0.1760 -0.4260
   62SAPC  H19R 4930   0.154   2.801   8.933 -3.9934 -1.6307  2.8665
   62SAPC  H19S 4931   0.134   2.636   8.889  0.4090  1.7868 -2.3879
   62SAPC  C220 4932   0.339   2.695   8.881  0.7333 -0.6384 -0.0458
   62SAPC  H20R 4933   0.372   2.591   8.905 -0.1416 -0.7842  0.5594
   62SAPC  H20S 4934   0.407   2.771   8.925 -0.5492  0.8318 -0.5232
   62SAPC  H20T 4935   0.343   2.716   8.772  2.9816 -0.4584  0.0249
   62SAPC   C33 4936  -0.029   2.386  10.041  0.8918  0.8134 -0.3584
   62SAPC   H3X 4937  -0.125   2.342  10.077  1.0061  1.3077  0.5930
   62SAPC   H3Y 4938   0.040   2.304  10.012 -1.4472 -1.1397 -0.8114
   62SAPC   C34 4939  -0.065   2.463   9.917  0.3513  0.4131  0.2097
   62SAPC   H4X 4940   0.033   2.506   9.890  0.2529  1.8222  1.9094
   62SAPC   H4Y 4941  -0.131   2.552   9.924 -1.1793 -0.5740 -1.0657
   62SAPC   C35 4942  -0.132   2.387   9.803 -0.1431  0.0532  0.2923
   62SAPC   H5X 4943  -0.238   2.382   9.836 -0.3038 -1.4338 -0.3648
   62SAPC   H5Y 4944  -0.092   2.286   9.783 -1.5503 -0.3041 -0.8234
   62SAPC   C36 4945  -0.106   2.456   9.670 -0.1177 -0.7570  0.1931
   62SAPC   H6X 4946  -0.005   2.432   9.630 -0.6649 -1.3859 -0.8360
   62SAPC   H6Y 4947  -0.110   2.565   9.694  0.4563 -0.6714 -0.0818
   62SAPC   C37 4948  -0.224   2.415   9.581 -0.0929  0.3830 -0.1444
   62SAPC   H7X 4949  -0.319   2.469   9.603 -1.5692 -2.1824  0.2639
   62SAPC   H7Y 4950  -0.244   2.306   9.594 -0.4854  0.5511  0.7365
   62SAPC   C38 4951  -0.179   2.427   9.437  0.2225  0.5515  0.1802
   62SAPC   H8X 4952  -0.100   2.352   9.418 -0.1499  0.5193 -1.3439
   62SAPC   H8Y 4953  -0.133   2.527   9.420 -0.1723  0.6526 -0.3097
   62SAPC   C39 4954  -0.285   2.398   9.338 -0.0043 -0.1629 -0.0902
   62SAPC   H9X 4955  -0.384   2.444   9.357 -0.4942 -1.5141  0.7802
   62SAPC   H9Y 4956  -0.313   2.290   9.331 -2.4442  0.5093 -1.7985
   62SAPC  C310 4957  -0.247   2.437   9.199  0.6015 -0.0277  0.3676
   62SAPC  H10X 4958  -0.152   2.381   9.187  1.4100  0.8156  2.3635
   62SAPC  H10Y 4959  -0.221   2.544   9.185  1.6235 -0.2397  0.5165
   62SAPC  C311 4960  -0.357   2.407   9.096  0.5652  0.7512  0.0124
   62SAPC  H11X 4961  -0.439   2.478   9.118 -0.6522 -1.2585  2.4820
   62SAPC  H11Y 4962  -0.383   2.299   9.105  0.9566  0.6583  0.0572
   62SAPC  C312 4963  -0.302   2.444   8.957  0.1646 -0.1468 -0.5285
   62SAPC  H12X 4964  -0.214   2.378   8.946  0.2955  0.1896 -1.5687
   62SAPC  H12Y 4965  -0.261   2.546   8.961  1.1783 -0.5659  0.1130
   62SAPC  C313 4966  -0.403   2.408   8.852  0.0507 -0.2757  0.8183
   62SAPC  H13X 4967  -0.491   2.475   8.846 -0.0644 -0.5291 -0.8160
   62SAPC  H13Y 4968  -0.445   2.312   8.887  1.2309 -0.6156  1.3531
   62SAPC  C314 4969  -0.353   2.379   8.707  0.3901  0.3079 -0.6532
   62SAPC  H14X 4970  -0.437   2.335   8.649 -1.3464  2.5088  0.0285
   62SAPC  H14Y 4971  -0.267   2.308   8.709  3.4451  3.7282  0.5223
   62SAPC  C315 4972  -0.324   2.501   8.621 -0.1154 -0.0533 -0.1334
   62SAPC  H15X 4973  -0.408   2.573   8.632 -0.2221 -0.4143  1.8812
   62SAPC  H15Y 4974  -0.325   2.460   8.518  1.3876 -0.3560 -0.0549
   62SAPC  C316 4975  -0.196   2.572   8.658  0.1212  0.2176 -0.0005
   62SAPC  H16X 4976  -0.127   2.496   8.617 -2.0632 -0.7309 -2.1766
   62SAPC  H16Y 4977  -0.197   2.583   8.769 -0.1769  0.9389 -0.0637
   62SAPC  C317 4978  -0.179   2.702   8.577 -0.0344  0.6403 -0.2807
   62SAPC  H17X 4979  -0.240   2.785   8.619 -1.4702 -0.4067 -0.2167
   62SAPC  H17Y 4980  -0.215   2.688   8.473 -3.3582  2.7059  0.4316
   62SAPC  C318 4981  -0.030   2.741   8.575  0.3547  0.1949 -0.2742
   62SAPC  H18X 4982   0.012   2.667   8.503  0.2377 -0.7062  0.5691
   62SAPC  H18Y 4983   0.031   2.731   8.667 -0.2158  1.6962  0.3033
   62SAPC  H18Z 4984  -0.006   2.841   8.533 -2.6082  0.8247 -0.6499
   63SAPC     N 4985   2.489   2.267   6.331 -0.0670  0.4889 -0.4045
   63SAPC   C12 4986   2.408   2.385   6.299 -0.0822  0.3761  0.8883
   63SAPC  H12A 4987   2.347   2.345   6.219  4.2523 -0.6843 -2.2814
   63SAPC  H12B 4988   2.469   2.457   6.247 -0.8396 -0.4996 -1.3392
   63SAPC   C13 4989   2.590   2.307   6.435  0.4262  0.2477  0.1157
   63SAPC  H13A 4990   2.538   2.337   6.525  0.8239 -1.1527  0.8383
   63SAPC  H13B 4991   2.655   2.226   6.464  0.7073 -0.7104 -2.8810
   63SAPC  H13C 4992   2.635   2.397   6.395 -1.9305  0.5006 -2.2808
   63SAPC   C14 4993   2.400   2.160   6.383 -0.0767  0.0258 -0.4368
   63SAPC  H14A 4994   2.327   2.202   6.451 -2.1361 -0.8392 -2.0215
   63SAPC  H14B 4995   2.353   2.106   6.302  0.2623  1.9636 -2.0110
   63SAPC  H14C 4996   2.457   2.087   6.437  2.4113  1.7087 -0.6025
   63SAPC   C15 4997   2.560   2.215   6.212  0.3931  0.0836  0.2033
   63SAPC  H15A 4998   2.618   2.126   6.234  0.0126 -0.8754 -2.2391
   63SAPC  H15B 4999   2.488   2.186   6.136 -0.1986 -1.6283  1.3544
   63SAPC  H15C 5000   2.618   2.296   6.169 -0.9680  1.5648  1.0830
   63SAPC   C11 5001   2.319   2.448   6.402  0.2480  0.0021 -0.1412
   63SAPC  H11A 5002   2.275   2.539   6.357  0.7093 -0.5844 -1.8507
   63SAPC  H11B 5003   2.389   2.486   6.479 -1.5082  0.7318  1.1649
   63SAPC     P 5004   2.086   2.328   6.381  0.1117 -0.2119 -0.0898
   63SAPC   O13 5005   2.086   2.379   6.247 -0.4325 -0.1874 -0.2069
   63SAPC   O14 5006   2.060   2.183   6.395 -0.9857 -0.4123  0.0485
   63SAPC   O12 5007   2.221   2.360   6.456 -0.2636  0.0719 -0.0543
   63SAPC   O11 5008   1.991   2.410   6.468 -0.5440  0.0109  0.4649
   63SAPC    C1 5009   1.970   2.551   6.475 -0.7022  0.0138 -0.3632
   63SAPC    HA 5010   1.976   2.602   6.376 -0.8594  2.1750  0.6888
   63SAPC    HB 5011   1.865   2.569   6.506 -0.8929 -1.7511  0.1692
   63SAPC    C2 5012   2.066   2.619   6.581  0.4802 -0.3742 -0.2084
   63SAPC    HS 5013   2.167   2.596   6.542  0.6684  0.4425 -0.2333
   63SAPC   O21 5014   2.025   2.568   6.711 -0.0598 -0.2029 -0.0556
   63SAPC   C21 5015   2.126   2.524   6.786  0.9381  0.2954 -0.9283
   63SAPC   O22 5016   2.244   2.520   6.752 -0.0196  0.4394  0.1949
   63SAPC   C22 5017   2.071   2.499   6.928 -0.4470 -0.2675 -0.3109
   63SAPC   H2R 5018   2.060   2.601   6.971 -0.5129  0.2699 -1.5665
   63SAPC   H2S 5019   1.970   2.458   6.909 -0.5605 -0.3599  0.4610
   63SAPC    C3 5020   2.066   2.779   6.571 -0.0523 -0.2940  0.2885
   63SAPC    HX 5021   1.957   2.793   6.586  0.1518  0.7199  0.9142
   63SAPC    HY 5022   2.087   2.817   6.469 -0.3823  0.6137  0.5464
   63SAPC   O31 5023   2.133   2.837   6.684  0.4015 -0.4056  0.1357
   63SAPC   C31 5024   2.253   2.888   6.654 -0.1010 -0.0991 -0.1731
   63SAPC   O32 5025   2.311   2.869   6.549 -0.2695  0.4321 -0.2080
   63SAPC   C32 5026   2.308   2.974   6.765 -0.2986 -0.0885 -0.3405
   63SAPC   H2X 5027   2.238   3.056   6.790 -0.8428 -0.3457 -1.0014
   63SAPC   H2Y 5028   2.398   3.020   6.720 -1.0798  1.1066 -0.7138
   63SAPC   C23 5029   2.171   2.416   7.006  0.1603  0.5366 -0.3937
   63SAPC   H3R 5030   2.270   2.466   7.019  1.1693 -1.3940 -0.1546
   63SAPC   H3S 5031   2.195   2.321   6.953 -0.7133 -0.7385  1.3974
   63SAPC   C24 5032   2.100   2.390   7.142 -0.1438 -0.3544 -0.6869
   63SAPC   H4R 5033   2.065   2.485   7.188  1.3581  1.3987 -2.9064
   63SAPC   H4S 5034   2.186   2.346   7.197 -0.9034 -0.3841  0.4982
   63SAPC   C25 5035   1.994   2.286   7.142  0.8474 -0.1636 -0.1171
   63SAPC   H5R 5036   1.997   2.210   7.062 -1.4649 -0.6718  0.2210
   63SAPC   C26 5037   1.888   2.282   7.229  0.0615  0.0227  0.1713
   63SAPC   H6R 5038   1.832   2.187   7.232 -1.4285  0.8852  0.6118
   63SAPC   C27 5039   1.866   2.382   7.348  0.2962 -0.1695 -0.2385
   63SAPC   H7R 5040   1.763   2.374   7.388  0.8542 -2.1807  0.9750
   63SAPC   H7S 5041   1.883   2.486   7.314  1.5719  0.0834  1.1003
   63SAPC   C28 5042   1.960   2.344   7.456  0.2083  0.0777 -0.2007
   63SAPC   H8R 5043   2.066   2.351   7.430 -0.1881  0.6126 -1.7749
   63SAPC   C29 5044   1.924   2.293   7.580 -0.3178  0.1519  0.4493
   63SAPC   H9R 5045   2.012   2.268   7.641 -0.1468  0.8005  0.4826
   63SAPC  C210 5046   1.786   2.269   7.644  0.4606 -0.4244  0.3644
   63SAPC  H10R 5047   1.781   2.159   7.664 -2.6122 -0.7990 -1.7441
   63SAPC  H10S 5048   1.709   2.283   7.566 -1.0310  0.3680  1.9057
   63SAPC  C211 5049   1.756   2.349   7.763  0.1883 -0.0659 -0.1750
   63SAPC  H11R 5050   1.783   2.456   7.772  1.0098 -0.2239 -0.6244
   63SAPC  C212 5051   1.699   2.302   7.876  0.2981  0.6670 -0.6922
   63SAPC  H12R 5052   1.685   2.375   7.957 -0.0466  1.2387 -1.2513
   63SAPC  C213 5053   1.667   2.161   7.910  0.0792  0.4579  0.6362
   63SAPC  H13R 5054   1.742   2.085   7.880 -0.3231 -0.7742  2.5902
   63SAPC  H13S 5055   1.578   2.157   7.844  0.7021  1.7871 -0.3478
   63SAPC  C214 5056   1.624   2.141   8.052 -0.0019 -0.1921  0.4365
   63SAPC  H14R 5057   1.519   2.117   8.071 -0.7975  2.2696 -0.4442
   63SAPC  C215 5058   1.708   2.137   8.162 -0.1429  0.3356  0.2385
   63SAPC  H15R 5059   1.668   2.124   8.264  0.8573  1.3956  0.7974
   63SAPC  C216 5060   1.858   2.154   8.159  0.3003  0.6209 -0.5617
   63SAPC  H16R 5061   1.879   2.261   8.180 -0.1201  0.1825  2.5456
   63SAPC  H16S 5062   1.906   2.131   8.061  1.1007 -1.1986  0.2252
   63SAPC  C217 5063   1.927   2.058   8.271 -0.2783  0.0571  0.1096
   63SAPC  H17R 5064   1.884   2.081   8.371 -0.6366 -1.2490  0.2621
   63SAPC  H17S 5065   2.037   2.076   8.273 -0.0567 -0.7521 -2.0169
   63SAPC  C218 5066   1.900   1.909   8.227 -0.0988 -0.2396  0.9367
   63SAPC  H18R 5067   1.941   1.893   8.125 -0.1966 -0.5657  0.9502
   63SAPC  H18S 5068   1.791   1.889   8.234 -0.0655  0.1066  3.1776
   63SAPC  C219 5069   1.968   1.805   8.313  0.3499  0.4222 -0.3157
   63SAPC  H19R 5070   2.078   1.822   8.313  0.3225  0.6691 -1.2266
   63SAPC  H19S 5071   1.938   1.704   8.276 -0.2452 -0.3458  2.0986
   63SAPC  C220 5072   1.916   1.823   8.452 -0.2884  0.1050 -0.3877
   63SAPC  H20R 5073   1.939   1.735   8.516  1.4566  0.1607 -0.8989
   63SAPC  H20S 5074   1.805   1.817   8.455 -0.2209 -1.5892  0.3913
   63SAPC  H20T 5075   1.967   1.909   8.499  1.0713 -2.2109  2.7788
   63SAPC   C33 5076   2.341   2.898   6.901  0.3351  0.7130 -0.3521
   63SAPC   H3X 5077   2.422   2.953   6.953 -0.3359  0.9147  0.5064
   63SAPC   H3Y 5078   2.373   2.795   6.875  2.3986  1.8770 -3.0114
   63SAPC   C34 5079   2.219   2.878   6.995  0.1349  0.6037  0.2666
   63SAPC   H4X 5080   2.145   2.807   6.951  0.4948  1.2518 -1.4551
   63SAPC   H4Y 5081   2.175   2.974   7.029 -0.1668  0.1024  1.3412
   63SAPC   C35 5082   2.260   2.803   7.129  0.9181 -0.1833  0.0057
   63SAPC   H5X 5083   2.352   2.850   7.168 -0.8415  1.6643  2.2623
   63SAPC   H5Y 5084   2.272   2.695   7.106 -3.1526 -1.0171  0.8453
   63SAPC   C36 5085   2.146   2.816   7.236  0.0726 -0.3153 -0.4685
   63SAPC   H6X 5086   2.086   2.724   7.220 -1.1673  0.4852 -0.6145
   63SAPC   H6Y 5087   2.083   2.908   7.241  0.7268  0.0776  1.2140
   63SAPC   C37 5088   2.204   2.789   7.381  0.0949  0.1111 -0.5305
   63SAPC   H7X 5089   2.252   2.883   7.416  1.3948 -1.2389  1.4759
   63SAPC   H7Y 5090   2.276   2.709   7.355 -1.9946 -1.8735 -0.5149
   63SAPC   C38 5091   2.097   2.739   7.474  0.3706  0.1322 -0.3031
   63SAPC   H8X 5092   2.046   2.647   7.437  0.4435  0.5821 -1.5840
   63SAPC   H8Y 5093   2.010   2.809   7.473 -0.8035 -0.9620  4.2113
   63SAPC   C39 5094   2.136   2.726   7.618 -0.0359  0.4472  0.2788
   63SAPC   H9X 5095   2.204   2.812   7.634 -0.9347  1.2931 -0.3168
   63SAPC   H9Y 5096   2.193   2.632   7.634  0.9732  0.9364 -0.3656
   63SAPC  C310 5097   2.015   2.708   7.714  0.0508 -0.2534  0.3698
   63SAPC  H10X 5098   1.943   2.630   7.680  1.0022 -1.0612  0.1438
   63SAPC  H10Y 5099   1.959   2.803   7.727  0.7706  0.0953  0.9572
   63SAPC  C311 5100   2.075   2.683   7.847  0.5144  0.2119  0.0049
   63SAPC  H11X 5101   2.132   2.772   7.879  0.9654 -0.2983  0.6391
   63SAPC  H11Y 5102   2.142   2.595   7.844  2.3938  1.5771  0.1892
   63SAPC  C312 5103   1.960   2.657   7.948  0.4892 -0.0023  0.2470
   63SAPC  H12X 5104   1.894   2.570   7.929 -0.8293  0.2175  3.2156
   63SAPC  H12Y 5105   1.902   2.752   7.957  2.1212  1.1121 -0.5500
   63SAPC  C313 5106   2.016   2.635   8.094 -0.3253  0.2631  0.0162
   63SAPC  H13X 5107   2.058   2.733   8.124  0.7304  0.9630 -3.4100
   63SAPC  H13Y 5108   2.103   2.567   8.086 -1.8255 -1.6863 -0.5941
   63SAPC  C314 5109   1.926   2.586   8.202  0.0852 -0.2498 -0.0724
   63SAPC  H14X 5110   1.862   2.501   8.169  0.1004  0.3472 -1.7047
   63SAPC  H14Y 5111   1.859   2.668   8.232  0.9308  0.2420  0.5144
   63SAPC  C315 5112   2.002   2.520   8.319 -0.7142  0.3909 -1.1173
   63SAPC  H15X 5113   2.072   2.587   8.374 -1.1498 -0.2813  0.2964
   63SAPC  H15Y 5114   2.073   2.450   8.270  1.5461  2.7941 -1.4967
   63SAPC  C316 5115   1.925   2.433   8.416  0.2950 -0.3020  0.0581
   63SAPC  H16X 5116   1.842   2.372   8.374 -0.2270  1.0157 -0.8703
   63SAPC  H16Y 5117   1.877   2.500   8.490  2.1647  1.2530 -0.0668
   63SAPC  C317 5118   2.014   2.340   8.488  0.0490  0.1781 -0.0680
   63SAPC  H17X 5119   2.064   2.264   8.424 -0.9021 -1.0071  0.5591
   63SAPC  H17Y 5120   1.952   2.275   8.553  0.6228 -1.7966 -1.3956
   63SAPC  C318 5121   2.124   2.406   8.581 -0.1274  0.3317 -0.1630
   63SAPC  H18X 5122   2.208   2.438   8.516 -0.5366  2.2981  0.2239
   63SAPC  H18Y 5123   2.171   2.325   8.641  0.3160  0.2825 -0.5656
   63SAPC  H18Z 5124   2.079   2.493   8.633  3.2373  1.0734  1.8264
   64SAPC     N 5125   3.789   4.287   5.971  0.0740 -0.6579 -0.0780
   64SAPC   C12 5126   3.826   4.307   6.112 -0.0531  0.6453  0.0742
   64SAPC  H12A 5127   3.841   4.413   6.128 -0.8267  1.5013 -3.8103
   64SAPC  H12B 5128   3.922   4.263   6.132  0.1822  1.2734  0.3709
   64SAPC   C13 5129   3.783   4.136   5.941 -0.1641  0.3978 -0.5371
   64SAPC  H13A 5130   3.804   4.109   5.838  0.2499 -1.1834 -0.0717
   64SAPC  H13B 5131   3.852   4.080   6.002 -0.7926  1.6255  1.3895
   64SAPC  H13C 5132   3.688   4.105   5.983  0.0201 -0.6043 -0.8237
   64SAPC   C14 5133   3.666   4.358   5.948  0.5773  0.2511  0.4541
   64SAPC  H14A 5134   3.684   4.464   5.949  1.3209  0.1842 -1.3632
   64SAPC  H14B 5135   3.634   4.320   5.852 -0.3154 -0.7052  1.1088
   64SAPC  H14C 5136   3.584   4.333   6.013 -0.3802  0.3579 -0.6699
   64SAPC   C15 5137   3.899   4.350   5.888  0.4325 -0.0668  0.5096
   64SAPC  H15A 5138   3.994   4.298   5.894  1.5452  1.7026 -0.8325
   64SAPC  H15B 5139   3.876   4.345   5.782  1.3982  0.8073  0.2449
   64SAPC  H15C 5140   3.913   4.455   5.908  0.1317  0.1422 -0.3150
   64SAPC   C11 5141   3.718   4.261   6.219  0.0889  0.3031 -0.0316
   64SAPC  H11A 5142   3.627   4.322   6.200 -0.3325 -0.3395 -0.1248
   64SAPC  H11B 5143   3.754   4.279   6.322  2.4968  1.2131 -0.9485
   64SAPC     P 5144   3.549   4.063   6.252 -0.2008 -0.0713 -0.0848
   64SAPC   O13 5145   3.457   4.090   6.136  0.5370  0.1680 -0.3817
   64SAPC   O14 5146   3.557   3.920   6.284 -0.3258 -0.3552 -0.3595
   64SAPC   O12 5147   3.689   4.119   6.209 -0.1442 -0.0594 -0.1264
   64SAPC   O11 5148   3.511   4.151   6.372  0.8777  0.0644 -0.0748
   64SAPC    C1 5149   3.468   4.099   6.495 -0.1662  0.4515 -0.3576
   64SAPC    HA 5150   3.362   4.129   6.510 -0.0120  0.1265  1.6568
   64SAPC    HB 5151   3.473   3.988   6.501 -2.8808  0.0604 -2.8614
   64SAPC    C2 5152   3.539   4.168   6.611  0.1908 -1.1089  0.3531
   64SAPC    HS 5153   3.561   4.268   6.570  0.4534 -0.8930  1.0080
   64SAPC   O21 5154   3.652   4.089   6.639 -0.1644 -0.1576  0.7003
   64SAPC   C21 5155   3.774   4.145   6.632  0.9145 -0.8241  0.1295
   64SAPC   O22 5156   3.797   4.259   6.598  0.3615  0.1897 -0.2358
   64SAPC   C22 5157   3.879   4.040   6.651  0.3100  0.6252 -0.5813
   64SAPC   H2R 5158   3.880   4.002   6.756  0.1519 -0.4212 -0.9549
   64SAPC   H2S 5159   3.858   3.954   6.584  1.8560 -1.1113  1.0202
   64SAPC    C3 5160   3.456   4.189   6.745 -0.6789 -0.4234  0.4043
   64SAPC    HX 5161   3.425   4.088   6.778 -1.6049 -1.1217 -2.2979
   64SAPC    HY 5162   3.358   4.233   6.715 -0.9918 -1.1909  0.2775
   64SAPC   O31 5163   3.544   4.261   6.829  0.3441  0.2996  0.0734
   64SAPC   C31 5164   3.535   4.389   6.808 -0.0493 -0.1770  0.6998
   64SAPC   O32 5165   3.469   4.444   6.719 -0.1301  0.6070 -0.5648
   64SAPC   C32 5166   3.634   4.469   6.892 -0.3161 -0.1144 -0.4366
   64SAPC   H2X 5167   3.698   4.525   6.821 -0.0878  1.4722  0.9408
   64SAPC   H2Y 5168   3.701   4.400   6.947 -0.9887  1.9394  3.3519
   64SAPC   C23 5169   4.024   4.074   6.630 -0.2778 -0.6944  0.3625
   64SAPC   H3R 5170   4.026   4.130   6.534 -0.4130 -0.5601  0.4362
   64SAPC   H3S 5171   4.086   3.984   6.613  0.0256 -0.7652  1.7505
   64SAPC   C24 5172   4.092   4.162   6.744  0.4729  0.4692  0.5566
   64SAPC   H4R 5173   4.020   4.245   6.762 -1.6044 -1.2060  0.3967
   64SAPC   H4S 5174   4.189   4.210   6.719  1.2248 -0.6034  1.2961
   64SAPC   C25 5175   4.110   4.072   6.864 -0.4425  0.6552 -0.0754
   64SAPC   H5R 5176   4.175   3.986   6.840 -2.2937 -0.5883 -0.8172
   64SAPC   C26 5177   4.077   4.088   6.994 -0.0720  0.8114  0.6670
   64SAPC   H6R 5178   4.112   4.015   7.068  0.6052  0.5676  0.1203
   64SAPC   C27 5179   3.998   4.204   7.054 -0.5054 -0.0805 -0.1099
   64SAPC   H7R 5180   3.989   4.296   6.992  1.5590  0.3537  0.1561
   64SAPC   H7S 5181   4.066   4.243   7.133 -1.2125  0.5592  0.1923
   64SAPC   C28 5182   3.857   4.170   7.111 -0.1793 -0.0410  0.4098
   64SAPC   H8R 5183   3.774   4.193   7.042 -0.3326 -1.6204  0.0366
   64SAPC   C29 5184   3.820   4.118   7.230 -0.3078 -0.6171 -0.9890
   64SAPC   H9R 5185   3.712   4.097   7.239 -0.2223 -0.3037  1.2565
   64SAPC  C210 5186   3.908   4.088   7.347  0.9773  0.1009  0.3632
   64SAPC  H10R 5187   4.013   4.101   7.315 -0.1552  2.4927 -2.9909
   64SAPC  H10S 5188   3.891   3.981   7.371 -3.3357 -0.1448 -2.6376
   64SAPC  C211 5189   3.875   4.172   7.470 -0.3729  0.9369  0.3857
   64SAPC  H11R 5190   3.782   4.231   7.469 -0.6836  0.4624  0.8087
   64SAPC  C212 5191   3.943   4.156   7.585 -0.5697  0.3400 -0.1290
   64SAPC  H12R 5192   3.921   4.211   7.678  2.3985 -0.8590  1.4115
   64SAPC  C213 5193   4.068   4.069   7.605  0.4339  0.2132  0.6390
   64SAPC  H13R 5194   4.155   4.104   7.546  0.3684  1.1189  1.0591
   64SAPC  H13S 5195   4.047   3.965   7.571  0.0749  0.6452 -0.4971
   64SAPC  C214 5196   4.111   4.083   7.748  0.3797  0.7492  0.4065
   64SAPC  H14R 5197   4.204   4.138   7.767  0.5272  0.7688 -0.3229
   64SAPC  C215 5198   4.050   4.017   7.852  1.2725  0.2412  0.4069
   64SAPC  H15R 5199   4.088   4.016   7.955  0.5013  1.0167  0.7176
   64SAPC  C216 5200   3.926   3.920   7.847  0.5076  0.0052 -0.2792
   64SAPC  H16R 5201   3.949   3.827   7.903 -0.0575  0.2854  0.4472
   64SAPC  H16S 5202   3.907   3.877   7.747 -1.3565 -0.7125  0.3440
   64SAPC  C217 5203   3.800   3.987   7.884 -0.1074 -0.0741  0.1168
   64SAPC  H17R 5204   3.705   3.929   7.874 -0.9355  1.5181 -2.3720
   64SAPC  H17S 5205   3.789   4.067   7.808 -0.2736 -0.1417  0.0688
   64SAPC  C218 5206   3.809   4.055   8.021  0.6438  0.5481 -0.2489
   64SAPC  H18R 5207   3.885   4.135   8.027 -0.5028  1.7952 -1.7050
   64SAPC  H18S 5208   3.847   3.988   8.102  0.3665  0.4702 -0.1838
   64SAPC  C219 5209   3.673   4.112   8.068 -0.4276 -0.2816 -0.7258
   64SAPC  H19R 5210   3.597   4.032   8.056  2.3079 -2.8917 -1.9809
   64SAPC  H19S 5211   3.646   4.201   8.007 -1.8844 -0.2736 -0.0848
   64SAPC  C220 5212   3.684   4.159   8.215 -0.4375  0.0472 -0.5057
   64SAPC  H20R 5213   3.756   4.240   8.241  1.5004 -1.5098 -0.7309
   64SAPC  H20S 5214   3.716   4.072   8.276 -2.2695 -0.4249 -0.1860
   64SAPC  H20T 5215   3.579   4.171   8.249  0.0536 -0.3816  1.2604
   64SAPC   C33 5216   3.575   4.582   6.981  0.1544  0.7708  1.0687
   64SAPC   H3X 5217   3.502   4.639   6.921  2.2517  1.1550 -1.3051
   64SAPC   H3Y 5218   3.646   4.660   7.015  2.0478  0.0621 -1.0008
   64SAPC   C34 5219   3.487   4.529   7.090 -0.1518 -0.2213 -0.9510
   64SAPC   H4X 5220   3.436   4.433   7.068 -0.0217 -1.0864  2.0718
   64SAPC   H4Y 5221   3.420   4.612   7.122 -0.4434 -1.7992  3.2120
   64SAPC   C35 5222   3.574   4.491   7.213  0.1285 -0.2673 -0.3004
   64SAPC   H5X 5223   3.647   4.575   7.219  2.3988 -2.2165  1.2030
   64SAPC   H5Y 5224   3.629   4.398   7.188 -1.5659 -1.1129 -1.0393
   64SAPC   C36 5225   3.489   4.487   7.338  0.1562  0.2055  0.3843
   64SAPC   H6X 5226   3.399   4.422   7.330 -1.1220  1.7762  1.4600
   64SAPC   H6Y 5227   3.448   4.587   7.366  0.4517  0.5290 -0.3163
   64SAPC   C37 5228   3.573   4.459   7.463  0.0690  0.1612 -0.1453
   64SAPC   H7X 5229   3.661   4.526   7.458 -1.1639  1.7958 -1.0806
   64SAPC   H7Y 5230   3.608   4.354   7.459 -0.9881 -0.1858 -1.0982
   64SAPC   C38 5231   3.496   4.502   7.595  0.3912 -0.3601  0.4224
   64SAPC   H8X 5232   3.402   4.443   7.596 -0.9917  1.5020 -2.7014
   64SAPC   H8Y 5233   3.467   4.609   7.585  1.8048  0.2145  1.9044
   64SAPC   C39 5234   3.571   4.458   7.713  0.0243  0.0024 -0.5962
   64SAPC   H9X 5235   3.607   4.355   7.694  0.7776  0.1594 -0.0633
   64SAPC   H9Y 5236   3.510   4.438   7.804  3.8641 -1.0295  1.9790
   64SAPC  C310 5237   3.693   4.542   7.748  0.8773 -0.0733 -0.4515
   64SAPC  H10X 5238   3.669   4.646   7.782 -4.3552 -1.1993  0.0597
   64SAPC  H10Y 5239   3.758   4.546   7.658  1.6781 -0.1313  0.1017
   64SAPC  C311 5240   3.766   4.488   7.873 -0.2065 -0.4368  0.7395
   64SAPC  H11X 5241   3.865   4.535   7.893 -0.2806  0.6965 -1.2911
   64SAPC  H11Y 5242   3.783   4.382   7.845 -3.8320 -1.0153  0.2943
   64SAPC  C312 5243   3.678   4.506   7.999  0.3788 -0.3367  0.2012
   64SAPC  H12X 5244   3.677   4.404   8.044  1.6358 -0.5323 -0.1962
   64SAPC  H12Y 5245   3.574   4.533   7.968  0.4870  0.7337  0.7577
   64SAPC  C313 5246   3.739   4.605   8.094  0.5888  0.6513 -1.0970
   64SAPC  H13X 5247   3.763   4.690   8.027 -0.3793  0.4082 -1.7721
   64SAPC  H13Y 5248   3.835   4.566   8.135  0.6240 -0.5916 -2.3116
   64SAPC  C314 5249   3.637   4.660   8.190 -0.3300 -0.2017  0.1406
   64SAPC  H14X 5250   3.554   4.707   8.134 -0.5711  0.8855  1.3548
   64SAPC  H14Y 5251   3.684   4.749   8.237 -0.0542 -0.2296 -0.0812
   64SAPC  C315 5252   3.588   4.562   8.289 -0.6158  1.2648  0.0375
   64SAPC  H15X 5253   3.676   4.514   8.336 -0.7157  1.4877  0.4507
   64SAPC  H15Y 5254   3.538   4.478   8.235  2.8027 -0.2986 -1.0031
   64SAPC  C316 5255   3.486   4.615   8.391 -0.5316 -0.1535  0.1209
   64SAPC  H16X 5256   3.456   4.517   8.434 -0.6201  0.1212  0.6882
   64SAPC  H16Y 5257   3.398   4.668   8.350  0.8823  1.5494 -0.8223
   64SAPC  C317 5258   3.547   4.699   8.499  0.2571  0.0588  0.3539
   64SAPC  H17X 5259   3.612   4.785   8.473  0.4481 -0.4239 -0.8857
   64SAPC  H17Y 5260   3.621   4.629   8.542  0.7635  0.3529 -0.0335
   64SAPC  C318 5261   3.451   4.730   8.618 -0.4157 -0.4859 -0.2130
   64SAPC  H18X 5262   3.437   4.635   8.675  1.3112 -1.2394 -0.9765
   64SAPC  H18Y 5263   3.352   4.768   8.586 -1.0220 -0.9130  1.0715
   64SAPC  H18Z 5264   3.511   4.802   8.677 -0.9341 -0.7239  0.6324
   65SAPC     N 5265   4.544   3.356   6.015 -0.1209  0.1185  0.2318
   65SAPC   C12 5266   4.404   3.414   6.027  0.0075  0.3940  0.0206
   65SAPC  H12A 5267   4.334   3.332   6.020  0.8422 -0.1970 -2.6525
   65SAPC  H12B 5268   4.376   3.478   5.944 -3.0192 -1.4413 -0.5259
   65SAPC   C13 5269   4.532   3.248   5.918  0.2989  0.2079 -0.0587
   65SAPC  H13A 5270   4.473   3.168   5.960 -0.8547  0.4991 -1.0808
   65SAPC  H13B 5271   4.482   3.282   5.829 -2.1672 -0.8534  0.8299
   65SAPC  H13C 5272   4.632   3.215   5.895  1.9270  2.2441  3.3293
   65SAPC   C14 5273   4.643   3.453   5.964  1.2400 -0.3980 -1.1740
   65SAPC  H14A 5274   4.611   3.494   5.869  0.3077  1.0994 -0.2559
   65SAPC  H14B 5275   4.634   3.539   6.028 -1.8104 -0.0572 -1.8865
   65SAPC  H14C 5276   4.745   3.420   5.960  1.5698  0.0074  1.7227
   65SAPC   C15 5277   4.586   3.294   6.142  0.1764  0.2621 -0.2846
   65SAPC  H15A 5278   4.512   3.223   6.178  0.5000 -0.0052 -0.1405
   65SAPC  H15B 5279   4.685   3.252   6.132  0.3812  1.1405 -2.3812
   65SAPC  H15C 5280   4.596   3.375   6.212 -2.1406  0.3861 -0.0036
   65SAPC   C11 5281   4.366   3.509   6.141  0.5623 -0.2023  0.3485
   65SAPC  H11A 5282   4.374   3.460   6.241 -1.3089  1.6128  1.4416
   65SAPC  H11B 5283   4.259   3.536   6.128  0.4416 -1.1102 -0.6531
   65SAPC     P 5284   4.540   3.662   6.260 -0.4906 -0.5117  0.5318
   65SAPC   O13 5285   4.614   3.538   6.299 -0.7105  0.3845  0.1271
   65SAPC   O14 5286   4.617   3.778   6.217 -0.5630 -0.2672  0.7168
   65SAPC   O12 5287   4.448   3.623   6.138 -0.6679 -0.0632  0.3900
   65SAPC   O11 5288   4.428   3.702   6.364  0.1901 -0.2844  0.1314
   65SAPC    C1 5289   4.458   3.813   6.449 -0.0780  0.5086 -0.6212
   65SAPC    HA 5290   4.547   3.780   6.508 -0.8965  0.4203  0.5928
   65SAPC    HB 5291   4.478   3.908   6.395  0.9529 -0.0380 -1.2398
   65SAPC    C2 5292   4.352   3.840   6.559  0.2410 -0.1602  0.0650
   65SAPC    HS 5293   4.273   3.907   6.519 -0.4836 -0.5187  0.8671
   65SAPC   O21 5294   4.408   3.895   6.678  0.1533 -0.3204  0.9258
   65SAPC   C21 5295   4.446   4.021   6.665 -0.5066 -0.6965 -0.2370
   65SAPC   O22 5296   4.424   4.092   6.565 -0.2783 -0.8090  0.0925
   65SAPC   C22 5297   4.525   4.067   6.788 -0.5624  1.4160  0.0218
   65SAPC   H2R 5298   4.502   4.000   6.873  2.2475 -3.3426 -2.5291
   65SAPC   H2S 5299   4.628   4.043   6.755 -0.6702 -0.2894  0.8137
   65SAPC    C3 5300   4.274   3.721   6.608  0.6017  0.1661  0.3824
   65SAPC    HX 5301   4.332   3.631   6.636  1.3878  0.6770  0.4210
   65SAPC    HY 5302   4.220   3.673   6.524 -0.0576 -0.5025  1.1635
   65SAPC   O31 5303   4.175   3.758   6.710  0.1879  0.0961 -0.0518
   65SAPC   C31 5304   4.077   3.664   6.735  0.1399  0.1943  0.1808
   65SAPC   O32 5305   4.072   3.556   6.673 -0.3420 -0.1240 -0.0478
   65SAPC   C32 5306   3.966   3.711   6.831  0.2411  0.2516 -0.1287
   65SAPC   H2X 5307   3.889   3.756   6.764  0.0645  1.5866  0.9075
   65SAPC   H2Y 5308   3.998   3.803   6.886 -0.8631  1.0304 -0.7456
   65SAPC   C23 5309   4.504   4.222   6.826  0.0620 -0.2406  0.2803
   65SAPC   H3R 5310   4.416   4.229   6.894  0.1326 -1.6015  0.5448
   65SAPC   H3S 5311   4.472   4.278   6.736 -0.5955 -1.4608 -0.2798
   65SAPC   C24 5312   4.622   4.289   6.902  0.8343  0.2733  0.1761
   65SAPC   H4R 5313   4.651   4.207   6.972 -1.5208 -0.0618  0.8532
   65SAPC   H4S 5314   4.585   4.372   6.965 -0.8177  0.0043 -0.3924
   65SAPC   C25 5315   4.735   4.315   6.798 -0.1084  0.3378 -0.5909
   65SAPC   H5R 5316   4.716   4.285   6.694  0.1579  2.5557 -1.3300
   65SAPC   C26 5317   4.854   4.359   6.832 -0.0896 -0.0651 -0.4285
   65SAPC   H6R 5318   4.923   4.377   6.749  0.0092  0.3484 -0.2563
   65SAPC   C27 5319   4.889   4.389   6.975 -0.4182  0.1070  0.3570
   65SAPC   H7R 5320   4.987   4.341   6.994 -0.5624 -1.3144 -2.0609
   65SAPC   H7S 5321   4.823   4.344   7.053 -2.7307 -1.0533 -2.1183
   65SAPC   C28 5322   4.905   4.531   7.001  0.2016 -0.1998 -0.0019
   65SAPC   H8R 5323   4.995   4.570   6.952  0.4919 -1.6278 -0.6516
   65SAPC   C29 5324   4.833   4.609   7.078  0.3412 -0.9604  0.1580
   65SAPC   H9R 5325   4.860   4.716   7.073 -1.4355 -0.5383 -2.1605
   65SAPC  C210 5326   4.713   4.575   7.166  0.3489  0.2374  0.4462
   65SAPC  H10R 5327   4.722   4.627   7.264  1.1963  1.9551 -0.5037
   65SAPC  H10S 5328   4.703   4.466   7.185 -1.5915 -0.1316 -2.2002
   65SAPC  C211 5329   4.577   4.615   7.117 -0.3685  0.8790  0.3243
   65SAPC  H11R 5330   4.578   4.668   7.021 -0.5947  0.4644  0.0866
   65SAPC  C212 5331   4.462   4.583   7.177  0.8746  0.1798 -0.1741
   65SAPC  H12R 5332   4.372   4.637   7.143  1.4640  0.6087 -1.1060
   65SAPC  C213 5333   4.454   4.507   7.307  0.4096  0.6065  0.1257
   65SAPC  H13R 5334   4.429   4.577   7.390  0.4899  1.5322 -0.6171
   65SAPC  H13S 5335   4.550   4.457   7.333  0.8480  1.6152  0.5343
   65SAPC  C214 5336   4.343   4.401   7.309  0.0037  0.0141 -0.2099
   65SAPC  H14R 5337   4.248   4.452   7.329  1.6220  2.1351  3.1452
   65SAPC  C215 5338   4.358   4.269   7.298  0.1336 -0.5061  0.4896
   65SAPC  H15R 5339   4.266   4.209   7.297  0.6484 -1.3124 -0.6129
   65SAPC  C216 5340   4.487   4.188   7.285 -0.0393  0.0044  0.6858
   65SAPC  H16R 5341   4.558   4.215   7.366  0.2357  1.2045  0.0774
   65SAPC  H16S 5342   4.544   4.212   7.192 -0.2538  0.7758  0.7428
   65SAPC  C217 5343   4.464   4.038   7.286 -0.3422  0.2204  0.5447
   65SAPC  H17R 5344   4.388   4.009   7.361  0.2930 -0.3141  0.9903
   65SAPC  H17S 5345   4.550   3.976   7.318  0.7532 -1.1983 -4.2979
   65SAPC  C218 5346   4.428   3.978   7.149 -0.2445 -0.5975  0.2595
   65SAPC  H18R 5347   4.497   4.014   7.069 -1.7660 -1.9292 -1.7433
   65SAPC  H18S 5348   4.325   4.009   7.123 -1.2507 -3.6413  0.1758
   65SAPC  C219 5349   4.418   3.828   7.154  0.7098  0.0620 -0.2999
   65SAPC  H19R 5350   4.350   3.782   7.228  1.5784 -0.6757  0.0495
   65SAPC  H19S 5351   4.518   3.787   7.178  0.2782 -0.4360  0.6917
   65SAPC  C220 5352   4.380   3.772   7.014 -0.4787  0.5052  0.4932
   65SAPC  H20R 5353   4.280   3.807   6.979  0.2272  1.7372 -0.3702
   65SAPC  H20S 5354   4.370   3.661   7.016  0.7937  0.3729  0.2305
   65SAPC  H20T 5355   4.453   3.802   6.936  0.1950  3.2157  2.0432
   65SAPC   C33 5356   3.894   3.599   6.916 -0.5308 -0.5800  0.5698
   65SAPC   H3X 5357   3.887   3.508   6.853 -0.7101 -0.4434  0.3912
   65SAPC   H3Y 5358   3.791   3.628   6.946  0.0581  1.4464  0.7641
   65SAPC   C34 5359   3.968   3.567   7.046  0.3981 -0.0984 -0.1286
   65SAPC   H4X 5360   4.063   3.513   7.022  0.1299  0.2406 -2.0765
   65SAPC   H4Y 5361   3.917   3.486   7.103 -0.8249  0.6391 -0.1490
   65SAPC   C35 5362   3.981   3.680   7.147  0.0122  0.4836 -0.3338
   65SAPC   H5X 5363   3.878   3.701   7.183 -0.2574  0.0214 -0.8340
   65SAPC   H5Y 5364   4.021   3.771   7.096  2.0737 -0.1947 -0.0096
   65SAPC   C36 5365   4.075   3.649   7.260  1.5044  0.3821 -0.2243
   65SAPC   H6X 5366   4.172   3.615   7.218  1.4478  0.1494 -0.1639
   65SAPC   H6Y 5367   4.034   3.568   7.323  0.1121 -0.8074 -2.4988
   65SAPC   C37 5368   4.098   3.767   7.354  0.9947 -0.5141  0.3513
   65SAPC   H7X 5369   3.997   3.795   7.390  1.9698  1.6727  1.6378
   65SAPC   H7Y 5370   4.139   3.849   7.291  0.3777  0.2701  0.9396
   65SAPC   C38 5371   4.193   3.733   7.469 -0.1620  0.4308 -0.4015
   65SAPC   H8X 5372   4.244   3.824   7.507 -0.4697  0.8078 -0.8841
   65SAPC   H8Y 5373   4.278   3.669   7.439 -0.2949 -0.0384  0.2056
   65SAPC   C39 5374   4.112   3.661   7.580 -0.7634 -0.2053  0.2325
   65SAPC   H9X 5375   4.056   3.569   7.551  0.6492 -0.8825 -0.4214
   65SAPC   H9Y 5376   4.039   3.735   7.621 -1.5809 -1.6086  1.4072
   65SAPC  C310 5377   4.200   3.614   7.701  0.2611 -0.1819  0.7870
   65SAPC  H10X 5378   4.267   3.537   7.657 -1.1939 -0.5149 -0.9697
   65SAPC  H10Y 5379   4.127   3.569   7.770 -0.2510 -1.1339 -0.3491
   65SAPC  C311 5380   4.288   3.728   7.757 -0.2791  0.0059  0.2295
   65SAPC  H11X 5381   4.222   3.811   7.793  0.0861  0.4162 -0.0358
   65SAPC  H11Y 5382   4.366   3.769   7.690 -0.6948  0.2742 -0.0930
   65SAPC  C312 5383   4.371   3.669   7.866 -0.1728  0.0320  0.2928
   65SAPC  H12X 5384   4.432   3.744   7.920  1.8121 -1.7403  0.6608
   65SAPC  H12Y 5385   4.441   3.596   7.820  1.0718  0.0655  2.0399
   65SAPC  C313 5386   4.305   3.596   7.977 -0.0049 -1.2734  0.5729
   65SAPC  H13X 5387   4.293   3.491   7.942 -0.6479 -0.0662 -3.3634
   65SAPC  H13Y 5388   4.202   3.633   7.997  0.0744  1.2425 -2.7306
   65SAPC  C314 5389   4.385   3.601   8.104  0.2836 -0.4791  0.7657
   65SAPC  H14X 5390   4.489   3.572   8.080 -0.4392 -1.8164 -1.0561
   65SAPC  H14Y 5391   4.354   3.514   8.167 -0.6636 -0.1175  0.8232
   65SAPC  C315 5392   4.400   3.726   8.181  0.4375  0.1074 -0.6336
   65SAPC  H15X 5393   4.415   3.811   8.111  0.5536  1.4091  0.9059
   65SAPC  H15Y 5394   4.497   3.720   8.235 -0.3939 -0.1220  0.9055
   65SAPC  C316 5395   4.279   3.766   8.269 -0.6082 -0.1572  0.4462
   65SAPC  H16X 5396   4.312   3.738   8.372  0.4045  1.0854  0.4841
   65SAPC  H16Y 5397   4.190   3.708   8.238 -0.2722 -1.0848  1.1573
   65SAPC  C317 5398   4.252   3.915   8.252  0.6793  0.3965  0.2973
   65SAPC  H17X 5399   4.217   3.933   8.149 -1.5638 -3.9621  0.0662
   65SAPC  H17Y 5400   4.346   3.969   8.276  0.6579  2.2579 -3.1403
   65SAPC  C318 5401   4.155   3.975   8.353 -0.9174  0.1101  0.6287
   65SAPC  H18X 5402   4.148   3.914   8.446 -0.9488  0.5880  0.9400
   65SAPC  H18Y 5403   4.054   3.970   8.307 -0.4868 -0.4463 -0.2950
   65SAPC  H18Z 5404   4.182   4.081   8.373 -0.2619 -0.3894  2.6873
   66SAPC     N 5405   2.536   5.646   6.128 -0.3237 -0.0904 -0.5897
   66SAPC   C12 5406   2.419   5.634   6.227  0.6768  0.0916 -0.3832
   66SAPC  H12A 5407   2.356   5.722   6.226  1.2556  0.5129 -0.3896
   66SAPC  H12B 5408   2.455   5.624   6.328  0.4117 -4.0372 -0.5261
   66SAPC   C13 5409   2.629   5.756   6.151 -0.1259 -0.3998 -0.1846
   66SAPC  H13A 5410   2.691   5.737   6.238 -4.1223  1.2846  3.3532
   66SAPC  H13B 5411   2.687   5.786   6.065  1.0698  1.3481  1.1617
   66SAPC  H13C 5412   2.574   5.844   6.181  1.6834  0.3575  1.1130
   66SAPC   C14 5413   2.601   5.518   6.118  0.3318 -0.0327 -0.9668
   66SAPC  H14A 5414   2.534   5.441   6.082  0.3739  0.1405 -1.4312
   66SAPC  H14B 5415   2.687   5.531   6.053 -0.0474  4.9636 -0.8067
   66SAPC  H14C 5416   2.638   5.480   6.212  2.0589 -0.5459 -1.8107
   66SAPC   C15 5417   2.477   5.674   5.994  0.6339 -0.0815  0.7460
   66SAPC  H15A 5418   2.429   5.770   5.986 -0.1960 -0.4697  0.9582
   66SAPC  H15B 5419   2.549   5.661   5.914 -3.8018 -0.3024 -3.7253
   66SAPC  H15C 5420   2.400   5.603   5.969  0.0010  0.5130  0.9905
   66SAPC   C11 5421   2.327   5.512   6.224  0.6908  0.4416 -0.1623
   66SAPC  H11A 5422   2.246   5.527   6.299 -0.2122 -2.6333 -0.4232
   66SAPC  H11B 5423   2.394   5.432   6.261  0.6690 -1.7673 -4.3138
   66SAPC     P 5424   2.274   5.341   6.032  0.2737 -0.1432  0.0546
   66SAPC   O13 5425   2.133   5.308   6.003 -0.0736 -0.2695 -0.9152
   66SAPC   O14 5426   2.369   5.324   5.917 -0.1060  0.1871 -0.2308
   66SAPC   O12 5427   2.279   5.489   6.092  0.1486 -0.9877  0.3903
   66SAPC   O11 5428   2.332   5.257   6.154 -0.0549 -0.3691  0.2027
   66SAPC    C1 5429   2.253   5.161   6.220  0.2751  0.0939  0.1389
   66SAPC    HA 5430   2.183   5.114   6.148 -1.0610 -0.2454  1.6159
   66SAPC    HB 5431   2.318   5.077   6.254 -1.1178 -0.9234  0.3873
   66SAPC    C2 5432   2.189   5.217   6.348  0.4020  0.2253  0.4092
   66SAPC    HS 5433   2.121   5.301   6.322  0.2296  0.1353  0.5726
   66SAPC   O21 5434   2.289   5.252   6.441 -0.8464 -0.3724  0.2359
   66SAPC   C21 5435   2.259   5.339   6.539 -0.1507 -1.1620  0.4580
   66SAPC   O22 5436   2.154   5.401   6.549 -0.1986  0.3506 -0.1711
   66SAPC   C22 5437   2.369   5.342   6.641 -0.0363 -0.1281  0.1290
   66SAPC   H2R 5438   2.439   5.265   6.603  0.7210  0.2239  0.7946
   66SAPC   H2S 5439   2.412   5.444   6.648  0.7493 -0.4736  0.4623
   66SAPC    C3 5440   2.104   5.098   6.417  0.6167 -0.3028  0.1569
   66SAPC    HX 5441   2.174   5.012   6.416  0.8599 -0.1777  2.4790
   66SAPC    HY 5442   2.016   5.070   6.355  0.0593  0.0046  0.7885
   66SAPC   O31 5443   2.064   5.112   6.557 -0.6300 -0.4366  0.4542
   66SAPC   C31 5444   1.956   5.188   6.572  0.1262  0.3011 -0.2783
   66SAPC   O32 5445   1.882   5.221   6.479 -0.2547 -0.2573 -0.1085
   66SAPC   C32 5446   1.939   5.200   6.725 -0.1474 -0.2112  1.1403
   66SAPC   H2X 5447   2.032   5.229   6.778 -0.2242  0.3427  0.9786
   66SAPC   H2Y 5448   1.896   5.111   6.775 -0.6517 -0.5094  0.2106
   66SAPC   C23 5449   2.329   5.312   6.786  0.0335  0.3549 -0.4059
   66SAPC   H3R 5450   2.267   5.220   6.787 -1.9776  1.6710  0.3131
   66SAPC   H3S 5451   2.259   5.392   6.817  2.4366  2.7990 -0.8315
   66SAPC   C24 5452   2.435   5.290   6.901  0.4633 -0.0359 -0.2012
   66SAPC   H4R 5453   2.372   5.288   6.993 -1.0225  1.1353 -1.1358
   66SAPC   H4S 5454   2.510   5.372   6.900 -0.0669  0.5416 -3.6906
   66SAPC   C25 5455   2.508   5.160   6.888  0.0576 -0.1093 -0.6046
   66SAPC   H5R 5456   2.551   5.141   6.789 -0.4004  1.4914 -1.1327
   66SAPC   C26 5457   2.538   5.071   6.986  0.7887  0.1186  0.2708
   66SAPC   H6R 5458   2.588   4.978   6.955  0.4450  0.0393 -0.0458
   66SAPC   C27 5459   2.508   5.071   7.133 -0.1196 -0.4743 -0.2733
   66SAPC   H7R 5460   2.475   4.969   7.165  2.8393 -1.0226  1.4388
   66SAPC   H7S 5461   2.419   5.135   7.149  1.0429  0.8179  1.4659
   66SAPC   C28 5462   2.613   5.142   7.226 -0.1313  0.1041  0.4120
   66SAPC   H8R 5463   2.712   5.159   7.182 -1.3582  1.6211 -1.9959
   66SAPC   C29 5464   2.585   5.157   7.360 -0.4701 -0.2531  0.2479
   66SAPC   H9R 5465   2.673   5.193   7.415  1.2115 -1.3435 -1.5521
   66SAPC  C210 5466   2.460   5.124   7.432 -0.2001 -0.0912 -0.0384
   66SAPC  H10R 5467   2.378   5.088   7.367 -0.7190 -0.4586  0.8007
   66SAPC  H10S 5468   2.419   5.219   7.472  0.3242  0.8794 -1.7193
   66SAPC  C211 5469   2.489   5.026   7.541  0.3429  0.0371 -0.9206
   66SAPC  H11R 5470   2.495   4.919   7.514 -2.7044 -0.8684  1.3999
   66SAPC  C212 5471   2.515   5.060   7.668 -0.6171 -0.2967 -0.5423
   66SAPC  H12R 5472   2.543   4.984   7.742  3.0012 -0.6195 -2.0491
   66SAPC  C213 5473   2.526   5.196   7.731  0.1638 -0.2192  0.1970
   66SAPC  H13R 5474   2.513   5.275   7.654 -0.7002 -0.6486 -0.1206
   66SAPC  H13S 5475   2.631   5.199   7.767  0.1175 -0.7864  0.3896
   66SAPC  C214 5476   2.429   5.215   7.846 -0.8755  0.0259 -0.7843
   66SAPC  H14R 5477   2.325   5.199   7.815 -0.6087 -0.9628 -1.2105
   66SAPC  C215 5478   2.460   5.246   7.976 -0.0217 -0.3294 -0.6458
   66SAPC  H15R 5479   2.378   5.240   8.048  0.6528 -2.2492  0.0259
   66SAPC  C216 5480   2.597   5.272   8.031 -0.3422 -1.0870  0.2570
   66SAPC  H16R 5481   2.674   5.296   7.954 -0.7199  1.7716  0.6599
   66SAPC  H16S 5482   2.644   5.194   8.095 -0.4410 -0.3939  1.1903
   66SAPC  C217 5483   2.609   5.411   8.109  0.3873  0.3752 -0.2649
   66SAPC  H17R 5484   2.522   5.431   8.176 -1.2641 -0.0244 -2.1965
   66SAPC  H17S 5485   2.610   5.493   8.034  2.7495 -1.5603 -2.5505
   66SAPC  C218 5486   2.744   5.429   8.178  0.6437  0.8285  0.0157
   66SAPC  H18R 5487   2.757   5.351   8.255 -1.5781  1.1808  0.8230
   66SAPC  H18S 5488   2.740   5.516   8.247  0.2079  1.0068 -0.2278
   66SAPC  C219 5489   2.859   5.455   8.088  0.0752 -0.4355 -0.1103
   66SAPC  H19R 5490   2.854   5.558   8.048  0.5343 -0.4814 -0.2889
   66SAPC  H19S 5491   2.854   5.390   7.998  1.6736  1.5599 -1.7615
   66SAPC  C220 5492   3.001   5.431   8.139  0.4107  0.6113  0.7283
   66SAPC  H20R 5493   3.011   5.465   8.244  2.4592  1.4829  0.2986
   66SAPC  H20S 5494   3.075   5.477   8.070  1.0471 -1.7963 -0.2760
   66SAPC  H20T 5495   3.026   5.324   8.156 -1.3738  0.1913  0.8607
   66SAPC   C33 5496   1.838   5.314   6.759 -0.2167  0.3887  0.7471
   66SAPC   H3X 5497   1.739   5.298   6.711 -0.1104 -1.7320  1.1237
   66SAPC   H3Y 5498   1.889   5.400   6.711 -2.1913  1.4772  0.4689
   66SAPC   C34 5499   1.837   5.354   6.903 -0.0672 -0.5755 -0.2958
   66SAPC   H4X 5500   1.782   5.450   6.913  2.3513  0.9854 -1.0803
   66SAPC   H4Y 5501   1.941   5.380   6.934 -0.3839 -0.6112  0.8477
   66SAPC   C35 5502   1.783   5.246   6.996 -0.1718 -0.5956 -0.1639
   66SAPC   H5X 5503   1.854   5.161   7.001  1.9441  1.0868 -0.1671
   66SAPC   H5Y 5504   1.695   5.197   6.950  0.6080  0.0574 -2.4532
   66SAPC   C36 5505   1.748   5.301   7.133  0.3380 -1.1284 -0.1273
   66SAPC   H6X 5506   1.665   5.371   7.112  1.4072  0.3146  0.3502
   66SAPC   H6Y 5507   1.831   5.359   7.178 -1.9273  1.9447  0.4073
   66SAPC   C37 5508   1.720   5.188   7.235 -0.0985  0.1355  0.1624
   66SAPC   H7X 5509   1.819   5.141   7.249 -0.7923 -1.3467  0.2374
   66SAPC   H7Y 5510   1.644   5.126   7.183 -0.9258  1.1551  0.1009
   66SAPC   C38 5511   1.678   5.238   7.375  0.1349 -0.4641  0.1299
   66SAPC   H8X 5512   1.585   5.298   7.366  0.0256 -0.8891 -2.2162
   66SAPC   H8Y 5513   1.764   5.305   7.398  1.4901 -0.8904 -3.0525
   66SAPC   C39 5514   1.655   5.129   7.474  0.3750 -0.1596  0.1960
   66SAPC   H9X 5515   1.751   5.072   7.478  0.5385 -0.1878 -2.3934
   66SAPC   H9Y 5516   1.585   5.055   7.431  0.2218  0.6876 -1.0389
   66SAPC  C310 5517   1.614   5.176   7.617  0.5873 -0.3034 -0.1863
   66SAPC  H10X 5518   1.510   5.214   7.605  1.0013  0.4675 -1.6715
   66SAPC  H10Y 5519   1.673   5.264   7.650 -1.8554  1.1797  0.4532
   66SAPC  C311 5520   1.632   5.066   7.719  0.4263 -0.7546  0.2527
   66SAPC  H11X 5521   1.714   4.999   7.685 -0.5014 -2.9427  2.0430
   66SAPC  H11Y 5522   1.546   4.996   7.714  0.9250 -1.3868  0.3218
   66SAPC  C312 5523   1.653   5.126   7.859 -0.0009 -0.2357  0.5001
   66SAPC  H12X 5524   1.752   5.175   7.854  0.9529 -2.1269  0.1941
   66SAPC  H12Y 5525   1.667   5.043   7.932 -0.3858  0.7734  1.7684
   66SAPC  C313 5526   1.543   5.220   7.912 -0.8109  0.3986  0.3347
   66SAPC  H13X 5527   1.534   5.306   7.842 -0.3062  0.7223  0.6526
   66SAPC  H13Y 5528   1.567   5.265   8.011  2.1395  1.3648 -0.7027
   66SAPC  C314 5529   1.408   5.149   7.918  0.1163 -0.3366 -0.0283
   66SAPC  H14X 5530   1.386   5.109   7.817  0.6964  1.2437 -0.8028
   66SAPC  H14Y 5531   1.334   5.227   7.946 -0.1245  0.1848 -2.0028
   66SAPC  C315 5532   1.401   5.050   8.027 -0.6977 -0.3575  0.3529
   66SAPC  H15X 5533   1.447   5.113   8.107  0.0953  1.0501 -1.1615
   66SAPC  H15Y 5534   1.468   4.965   8.001  0.4524  0.6150  0.0653
   66SAPC  C316 5535   1.260   4.994   8.071  0.2332  0.2595  0.4159
   66SAPC  H16X 5536   1.189   5.075   8.097  3.3265  3.5850 -0.6036
   66SAPC  H16Y 5537   1.275   4.928   8.159 -3.6091 -1.0893  0.2385
   66SAPC  C317 5538   1.192   4.920   7.959 -0.3975 -0.0391  0.1223
   66SAPC  H17X 5539   1.278   4.857   7.926 -0.7499 -0.1458 -0.6261
   66SAPC  H17Y 5540   1.149   4.988   7.882 -2.0652  0.6076  1.5697
   66SAPC  C318 5541   1.069   4.842   8.003 -0.2894  0.8336 -0.6472
   66SAPC  H18X 5542   1.101   4.786   8.094 -2.5206 -0.2423 -0.4605
   66SAPC  H18Y 5543   1.039   4.773   7.922 -0.0571  2.2612 -1.9938
   66SAPC  H18Z 5544   0.977   4.900   8.026 -0.2030 -0.6000  4.6893
   67SAPC     N 5545   5.186   4.755   6.190  0.5442 -0.4167 -0.6045
   67SAPC   C12 5546   5.114   4.626   6.226 -0.0910 -0.5715 -0.4597
   67SAPC  H12A 5547   5.176   4.541   6.202 -0.3665 -0.8450 -0.2077
   67SAPC  H12B 5548   5.026   4.616   6.163  1.3610  2.7137 -3.3929
   67SAPC   C13 5549   5.252   4.734   6.062  0.9682 -0.1578  0.3115
   67SAPC  H13A 5550   5.349   4.692   6.083  0.6427 -0.0082  2.3982
   67SAPC  H13B 5551   5.190   4.674   5.997 -1.3984  1.8800  0.4795
   67SAPC  H13C 5552   5.268   4.826   6.007 -2.1015 -0.7034 -1.7474
   67SAPC   C14 5553   5.085   4.866   6.193 -0.3014  0.4471 -0.1325
   67SAPC  H14A 5554   5.012   4.854   6.272 -0.3165 -1.3714 -0.4008
   67SAPC  H14B 5555   5.134   4.962   6.206  1.4973 -0.5010  0.4382
   67SAPC  H14C 5556   5.030   4.874   6.100 -1.5931  0.0812  0.5786
   67SAPC   C15 5557   5.287   4.787   6.298 -0.4279  0.1864 -0.2467
   67SAPC  H15A 5558   5.382   4.822   6.260 -0.3738  0.0717 -0.2167
   67SAPC  H15B 5559   5.254   4.850   6.379  1.2471  1.6984 -0.6570
   67SAPC  H15C 5560   5.301   4.688   6.339 -0.0114  0.1628 -0.4337
   67SAPC   C11 5561   5.066   4.611   6.373  0.0909  0.0936  0.4029
   67SAPC  H11A 5562   5.144   4.612   6.452 -0.2070 -2.1122  0.7878
   67SAPC  H11B 5563   5.011   4.515   6.379 -2.4060  1.3341 -1.0313
   67SAPC     P 5564   4.917   4.748   6.540 -0.0404  0.4331 -0.1653
   67SAPC   O13 5565   4.865   4.889   6.532  0.4294 -0.3784 -0.2373
   67SAPC   O14 5566   4.811   4.652   6.575  0.1926 -0.3507 -0.2360
   67SAPC   O12 5567   4.970   4.707   6.391  0.4793 -0.1880  0.1804
   67SAPC   O11 5568   5.042   4.740   6.639  0.4061 -0.0035 -0.1596
   67SAPC    C1 5569   5.123   4.847   6.673 -0.3592  0.1472 -0.1445
   67SAPC    HA 5570   5.227   4.823   6.642 -0.9809 -0.1468 -2.1301
   67SAPC    HB 5571   5.081   4.939   6.627 -1.7895 -0.6914 -0.5574
   67SAPC    C2 5572   5.116   4.877   6.825  0.6878  0.1338 -0.7900
   67SAPC    HS 5573   5.182   4.965   6.837  0.9074 -0.2663  1.2410
   67SAPC   O21 5574   5.154   4.767   6.903  0.3872  0.1122  0.1421
   67SAPC   C21 5575   5.278   4.768   6.949  0.4230  0.4169 -0.5041
   67SAPC   O22 5576   5.360   4.860   6.936 -0.3892  0.3309 -0.6810
   67SAPC   C22 5577   5.303   4.649   7.036 -0.2845  0.6261  0.3922
   67SAPC   H2R 5578   5.207   4.594   7.048 -0.0198  0.2815  1.0163
   67SAPC   H2S 5579   5.386   4.587   6.996 -0.4204  1.3276 -1.0258
   67SAPC    C3 5580   4.969   4.915   6.871 -0.6685 -0.3042  0.5210
   67SAPC    HX 5581   4.898   4.829   6.864 -0.4161 -0.5894  1.3739
   67SAPC    HY 5582   4.934   4.994   6.800 -2.3175  0.0275  1.6397
   67SAPC   O31 5583   4.962   4.949   7.013 -0.4689 -0.6272  0.1825
   67SAPC   C31 5584   4.988   5.080   7.033 -0.1031  0.0488  0.3665
   67SAPC   O32 5585   4.994   5.160   6.945  0.3655 -0.1827  0.2401
   67SAPC   C32 5586   5.001   5.108   7.177 -0.1826  0.0142 -1.3077
   67SAPC   H2X 5587   5.097   5.163   7.179  0.0955 -0.2228 -3.9957
   67SAPC   H2Y 5588   4.995   5.013   7.234 -1.9023  1.6794  1.4868
   67SAPC   C23 5589   5.348   4.697   7.176  0.4370 -0.2825 -0.2800
   67SAPC   H3R 5590   5.455   4.725   7.175  0.5517 -0.7295 -1.0166
   67SAPC   H3S 5591   5.354   4.609   7.243  0.2445 -0.3917 -0.4055
   67SAPC   C24 5592   5.246   4.801   7.238  0.3186 -0.1114  0.1009
   67SAPC   H4R 5593   5.230   4.880   7.161  1.4224  1.5552  1.5172
   67SAPC   H4S 5594   5.288   4.861   7.321 -0.9979 -0.1768  0.8483
   67SAPC   C25 5595   5.111   4.754   7.279  0.4147 -0.8004  0.0025
   67SAPC   H5R 5596   5.064   4.676   7.217 -1.8014 -0.4370  1.1107
   67SAPC   C26 5597   5.048   4.800   7.384  0.1994 -0.0127  0.2861
   67SAPC   H6R 5598   4.951   4.755   7.412 -0.4521  1.6946  0.9018
   67SAPC   C27 5599   5.099   4.902   7.483  0.0493 -0.1443 -0.3068
   67SAPC   H7R 5600   5.010   4.925   7.545  0.1253  1.0738 -0.6256
   67SAPC   H7S 5601   5.136   4.999   7.442  3.7994 -0.9393  0.8169
   67SAPC   C28 5602   5.210   4.872   7.583 -0.1202 -0.6577 -0.3476
   67SAPC   H8R 5603   5.298   4.938   7.588 -1.0333  0.6341 -0.8932
   67SAPC   C29 5604   5.216   4.770   7.664  0.1094  0.3812 -0.4330
   67SAPC   H9R 5605   5.304   4.760   7.730  0.8134  1.3776 -1.1694
   67SAPC  C210 5606   5.105   4.668   7.688 -0.7049  0.1807  0.0165
   67SAPC  H10R 5607   5.094   4.606   7.596  1.3632 -0.8884  0.4385
   67SAPC  H10S 5608   5.011   4.725   7.706 -0.4491  1.2230 -1.6767
   67SAPC  C211 5609   5.138   4.570   7.793  0.0258 -0.6463  0.2073
   67SAPC  H11R 5610   5.216   4.495   7.774  2.4947  0.9656  3.0030
   67SAPC  C212 5611   5.083   4.562   7.915  1.1136 -0.1105  0.8238
   67SAPC  H12R 5612   5.122   4.484   7.983  0.9292 -0.8830  0.0587
   67SAPC  C213 5613   4.971   4.650   7.974  0.2747  0.3381  0.2390
   67SAPC  H13R 5614   4.984   4.754   7.937 -0.2412  1.1772  2.2501
   67SAPC  H13S 5615   4.979   4.655   8.085  0.1968 -1.1628  0.3304
   67SAPC  C214 5616   4.830   4.618   7.916 -0.1011  0.2268  0.1128
   67SAPC  H14R 5617   4.818   4.634   7.808 -0.2952  1.1558  0.2690
   67SAPC  C215 5618   4.722   4.577   7.986 -0.2861 -0.7721 -0.1995
   67SAPC  H15R 5619   4.627   4.562   7.933  0.7341 -1.1065 -2.0103
   67SAPC  C216 5620   4.720   4.561   8.138  0.2200  0.1632  0.4207
   67SAPC  H16R 5621   4.638   4.622   8.181  0.6359  0.1166  1.3147
   67SAPC  H16S 5622   4.812   4.600   8.188  0.4170  3.7129 -2.3341
   67SAPC  C217 5623   4.700   4.417   8.192  0.0592 -0.1405 -0.2310
   67SAPC  H17R 5624   4.785   4.350   8.168  1.0026  0.7788  0.4327
   67SAPC  H17S 5625   4.611   4.383   8.133  0.1943 -0.4110 -0.2813
   67SAPC  C218 5626   4.668   4.402   8.345 -0.2117 -0.3714  0.1983
   67SAPC  H18R 5627   4.592   4.476   8.378 -0.5634 -1.8342  2.9213
   67SAPC  H18S 5628   4.758   4.427   8.406 -0.5117 -0.4050  0.6548
   67SAPC  C219 5629   4.615   4.270   8.395  0.0222 -0.5179 -0.4349
   67SAPC  H19R 5630   4.507   4.249   8.381  0.4281 -3.9050  0.6497
   67SAPC  H19S 5631   4.611   4.271   8.506  0.3671  1.5571 -0.3994
   67SAPC  C220 5632   4.698   4.152   8.344 -0.5270 -0.7364 -0.2112
   67SAPC  H20R 5633   4.702   4.154   8.233 -1.6604  0.2031 -0.2430
   67SAPC  H20S 5634   4.666   4.050   8.374 -1.7080 -1.0633 -2.3984
   67SAPC  H20T 5635   4.798   4.166   8.391 -0.3224  3.6112 -1.4966
   67SAPC   C33 5636   4.891   5.210   7.230 -0.2948 -0.0221  0.6502
   67SAPC   H3X 5637   4.790   5.166   7.221 -0.1110 -0.9347  2.4615
   67SAPC   H3Y 5638   4.895   5.300   7.165  0.3152  0.3517  1.1867
   67SAPC   C34 5639   4.914   5.241   7.378  0.1915 -0.0525 -0.1452
   67SAPC   H4X 5640   5.024   5.243   7.391  0.4087  0.6975 -1.8943
   67SAPC   H4Y 5641   4.867   5.156   7.432  1.1951  0.5544  1.7950
   67SAPC   C35 5642   4.848   5.376   7.420  0.2859  0.3899 -0.2928
   67SAPC   H5X 5643   4.750   5.387   7.370  0.1751  1.3386  0.1053
   67SAPC   H5Y 5644   4.908   5.457   7.374 -1.0701  2.1027  0.7973
   67SAPC   C36 5645   4.844   5.403   7.568 -0.8076  0.0240  0.3251
   67SAPC   H6X 5646   4.767   5.352   7.630  0.0218  1.0642  2.2880
   67SAPC   H6Y 5647   4.811   5.507   7.585  1.5344  0.7184  1.0057
   67SAPC   C37 5648   4.971   5.369   7.639  0.3255 -0.5025 -0.1027
   67SAPC   H7X 5649   5.060   5.401   7.580 -0.6471  0.4943 -1.0735
   67SAPC   H7Y 5650   4.963   5.259   7.635  0.6741 -0.4920 -1.3115
   67SAPC   C38 5651   4.971   5.415   7.781 -0.7545 -0.2217 -0.2050
   67SAPC   H8X 5652   5.040   5.348   7.836  0.6791  0.8314 -0.6717
   67SAPC   H8Y 5653   4.872   5.390   7.826 -0.0985 -0.5834  1.0964
   67SAPC   C39 5654   5.014   5.562   7.795 -0.4701 -0.2071 -0.0151
   67SAPC   H9X 5655   4.942   5.615   7.729 -0.0581  1.5513  0.8737
   67SAPC   H9Y 5656   5.120   5.590   7.779 -0.9189  1.4795 -0.3625
   67SAPC  C310 5657   4.967   5.613   7.937 -0.1937  0.1831  0.4473
   67SAPC  H10X 5658   4.858   5.610   7.959  0.2891 -2.7460  2.9900
   67SAPC  H10Y 5659   5.001   5.718   7.949 -0.1638  0.2413 -0.1184
   67SAPC  C311 5660   5.029   5.540   8.055 -0.1168 -0.4979 -0.4519
   67SAPC  H11X 5661   5.140   5.546   8.050 -0.0967  1.6165  1.2494
   67SAPC  H11Y 5662   4.999   5.433   8.058 -3.4951  0.3381  2.1738
   67SAPC  C312 5663   4.987   5.608   8.189  0.0661 -0.3423 -0.0181
   67SAPC  H12X 5664   4.881   5.577   8.203 -0.8572  1.7994 -1.6827
   67SAPC  H12Y 5665   4.984   5.719   8.187 -1.6257 -0.2726  2.4962
   67SAPC  C313 5666   5.074   5.561   8.311 -0.2964 -0.8285  0.8500
   67SAPC  H13X 5667   5.159   5.630   8.334  0.3506 -2.0954  2.4474
   67SAPC  H13Y 5668   5.122   5.463   8.292  1.5087  0.6563 -3.4584
   67SAPC  C314 5669   4.991   5.577   8.436  0.0022  0.3651 -0.2916
   67SAPC  H14X 5670   4.918   5.660   8.430 -0.5806 -0.1486 -0.4503
   67SAPC  H14Y 5671   5.061   5.581   8.522 -0.3055 -1.0252  0.0531
   67SAPC  C315 5672   4.895   5.460   8.455  0.2756 -0.3089 -0.2650
   67SAPC  H15X 5673   4.951   5.364   8.453 -2.3484 -1.9094 -1.3750
   67SAPC  H15Y 5674   4.818   5.461   8.375 -0.5047  0.0456  0.4714
   67SAPC  C316 5675   4.813   5.463   8.590 -0.2130  0.0064 -0.2351
   67SAPC  H16X 5676   4.738   5.545   8.593  0.0866  0.2917 -0.5391
   67SAPC  H16Y 5677   4.897   5.478   8.662 -0.7007  0.6887  0.2094
   67SAPC  C317 5678   4.740   5.325   8.604 -0.1986 -0.1759  0.1088
   67SAPC  H17X 5679   4.813   5.242   8.594 -0.7825 -0.9607  2.0577
   67SAPC  H17Y 5680   4.669   5.314   8.520 -0.3303  1.7925 -0.0927
   67SAPC  C318 5681   4.658   5.314   8.725 -0.7804  0.0802 -0.2506
   67SAPC  H18X 5682   4.718   5.297   8.817  1.5008 -1.8838 -1.9845
   67SAPC  H18Y 5683   4.602   5.219   8.712 -0.7463  0.3129 -2.5172
   67SAPC  H18Z 5684   4.583   5.394   8.746  0.4473  0.8539  1.4386
   68SAPC     N 5685   1.747   5.775   6.135 -0.3240 -0.6939 -0.0016
   68SAPC   C12 5686   1.626   5.694   6.166 -0.3165  0.5423  0.2953
   68SAPC  H12A 5687   1.661   5.611   6.226  0.1001  0.0557 -0.6051
   68SAPC  H12B 5688   1.593   5.653   6.072 -0.8939  0.9989  0.2952
   68SAPC   C13 5689   1.718   5.900   6.060  0.6358 -0.8424 -0.4256
   68SAPC  H13A 5690   1.637   5.953   6.108 -0.5170 -1.8782 -1.1517
   68SAPC  H13B 5691   1.799   5.970   6.049 -1.4336  1.4301 -2.5812
   68SAPC  H13C 5692   1.675   5.876   5.964  1.7753 -0.3596 -1.0666
   68SAPC   C14 5693   1.817   5.824   6.259 -0.0768  0.6603 -0.1324
   68SAPC  H14A 5694   1.758   5.898   6.312 -1.5501 -0.0544 -0.7014
   68SAPC  H14B 5695   1.843   5.748   6.331  2.9834  1.0183 -0.7255
   68SAPC  H14C 5696   1.906   5.877   6.230  2.2409 -2.4335  0.8460
   68SAPC   C15 5697   1.841   5.695   6.048  0.2516  0.1283  0.2045
   68SAPC  H15A 5698   1.866   5.602   6.096 -0.7232  0.0980  0.6735
   68SAPC  H15B 5699   1.805   5.673   5.948  1.2237 -1.2895  0.1485
   68SAPC  H15C 5700   1.934   5.748   6.031  0.8366 -0.6570  0.9398
   68SAPC   C11 5701   1.507   5.758   6.229  0.6403 -0.9959  0.1696
   68SAPC  H11A 5702   1.551   5.789   6.327  1.3202 -1.5526  0.0399
   68SAPC  H11B 5703   1.435   5.679   6.258 -1.3357  0.9490  0.9337
   68SAPC     P 5704   1.290   5.885   6.150 -0.1739 -0.1236  0.0710
   68SAPC   O13 5705   1.250   5.958   6.020  0.2673  0.2225 -0.1352
   68SAPC   O14 5706   1.222   5.753   6.165 -0.4148  0.3708  0.3530
   68SAPC   O12 5707   1.444   5.873   6.156 -0.3906  0.0698  0.0298
   68SAPC   O11 5708   1.252   5.979   6.269 -0.3498  0.3461  0.1101
   68SAPC    C1 5709   1.304   6.109   6.288 -0.3049 -0.3880 -0.0475
   68SAPC    HA 5710   1.333   6.164   6.196  1.2198  1.6047  1.5447
   68SAPC    HB 5711   1.222   6.162   6.341  1.2160  0.1836  1.8222
   68SAPC    C2 5712   1.432   6.105   6.387  0.1808  0.2833 -0.4851
   68SAPC    HS 5713   1.516   6.060   6.330  0.2021 -0.1871 -0.0838
   68SAPC   O21 5714   1.387   6.023   6.497 -0.0020 -0.1690 -0.4652
   68SAPC   C21 5715   1.488   5.958   6.553 -0.4144  0.2124  0.3173
   68SAPC   O22 5716   1.612   5.956   6.526  0.0324  0.3296 -0.3275
   68SAPC   C22 5717   1.442   5.852   6.652 -0.2121  0.2312  0.2132
   68SAPC   H2R 5718   1.338   5.828   6.624 -0.3275  1.0103 -0.0735
   68SAPC   H2S 5719   1.496   5.756   6.636  0.0545  0.3626  0.3104
   68SAPC    C3 5720   1.467   6.241   6.448  0.3550  0.1165  0.5862
   68SAPC    HX 5721   1.495   6.308   6.364 -3.6305  1.0554 -0.1897
   68SAPC    HY 5722   1.558   6.220   6.510 -0.0401 -0.5288  0.9634
   68SAPC   O31 5723   1.357   6.297   6.520 -0.2307 -0.3853  0.5771
   68SAPC   C31 5724   1.365   6.294   6.653 -0.4143  0.1589 -0.3998
   68SAPC   O32 5725   1.447   6.228   6.716 -0.7969 -0.0171 -0.2169
   68SAPC   C32 5726   1.263   6.400   6.710 -0.4411 -0.1173  1.0411
   68SAPC   H2X 5727   1.164   6.352   6.726  0.3138 -1.0394  3.3763
   68SAPC   H2Y 5728   1.259   6.476   6.630  0.4151 -1.9893 -0.9034
   68SAPC   C23 5729   1.442   5.907   6.800 -0.3651 -0.1641  0.2125
   68SAPC   H3R 5730   1.364   5.859   6.862 -1.2095  2.1714  1.0856
   68SAPC   H3S 5731   1.404   6.012   6.793 -1.5801 -0.6875 -1.5387
   68SAPC   C24 5732   1.579   5.904   6.861 -0.4173 -0.3680 -0.0059
   68SAPC   H4R 5733   1.656   5.960   6.803  0.2531 -2.3580 -1.1348
   68SAPC   H4S 5734   1.615   5.799   6.862 -0.9717 -0.5846  2.1298
   68SAPC   C25 5735   1.576   5.972   6.996  0.5360  0.6329  0.2142
   68SAPC   H5R 5736   1.541   6.076   6.999 -1.6568 -0.0784  0.8640
   68SAPC   C26 5737   1.597   5.909   7.117  0.2733 -0.3173 -0.0202
   68SAPC   H6R 5738   1.574   5.963   7.210  1.0897  0.4947 -0.2780
   68SAPC   C27 5739   1.633   5.764   7.143 -0.2922  0.7350  0.5572
   68SAPC   H7R 5740   1.623   5.712   7.045  1.0158 -2.6273  2.0779
   68SAPC   H7S 5741   1.549   5.727   7.206 -0.3621  0.8795  0.5505
   68SAPC   C28 5742   1.769   5.733   7.201  0.0563 -0.6504 -0.5574
   68SAPC   H8R 5743   1.845   5.712   7.124 -0.6851 -0.9027 -1.2280
   68SAPC   C29 5744   1.803   5.736   7.332  0.8642 -0.3894  0.0756
   68SAPC   H9R 5745   1.902   5.705   7.370  1.6186  2.3405  0.5219
   68SAPC  C210 5746   1.705   5.761   7.445  0.0709 -0.0171  0.3905
   68SAPC  H10R 5747   1.628   5.834   7.412  0.1820 -0.4280 -0.8118
   68SAPC  H10S 5748   1.765   5.811   7.525  2.9611 -2.0610 -0.3230
   68SAPC  C211 5749   1.639   5.638   7.502  0.1450 -0.1091 -0.4353
   68SAPC  H11R 5750   1.596   5.566   7.431 -0.4602  0.8987 -1.1132
   68SAPC  C212 5751   1.622   5.616   7.632 -0.5194  0.3603 -0.1312
   68SAPC  H12R 5752   1.572   5.522   7.660  1.1189 -0.6149 -0.3858
   68SAPC  C213 5753   1.674   5.706   7.748  0.2665  0.6438 -0.2836
   68SAPC  H13R 5754   1.602   5.778   7.793 -2.1267 -1.6347 -0.2231
   68SAPC  H13S 5755   1.758   5.773   7.718  0.4357  1.6180  2.1218
   68SAPC  C214 5756   1.725   5.619   7.859  0.1499 -0.1296  0.8247
   68SAPC  H14R 5757   1.798   5.546   7.820  0.6647  1.1014 -0.6326
   68SAPC  C215 5758   1.704   5.626   7.991 -0.1200  0.0580  0.2936
   68SAPC  H15R 5759   1.738   5.547   8.059 -1.7457 -2.1756 -1.3280
   68SAPC  C216 5760   1.617   5.729   8.060 -0.4139  0.3485  0.3988
   68SAPC  H16R 5761   1.599   5.818   7.997 -0.1514  0.5269  0.5753
   68SAPC  H16S 5762   1.666   5.776   8.148 -0.2892 -0.0245  0.5335
   68SAPC  C217 5763   1.482   5.680   8.108  0.8457 -0.1031  0.3790
   68SAPC  H17R 5764   1.420   5.643   8.023  0.0843  1.5427  0.1880
   68SAPC  H17S 5765   1.423   5.769   8.138 -0.9830 -0.0885 -2.7340
   68SAPC  C218 5766   1.491   5.569   8.208 -0.0200 -0.1468  0.8219
   68SAPC  H18R 5767   1.518   5.600   8.311  0.7159 -1.2749  0.9903
   68SAPC  H18S 5768   1.568   5.495   8.176  1.8908  2.3968 -0.8393
   68SAPC  C219 5769   1.363   5.489   8.233  0.6798 -0.3406  0.2492
   68SAPC  H19R 5770   1.345   5.432   8.139  1.3420  0.0164 -0.1019
   68SAPC  H19S 5771   1.287   5.570   8.235  1.5850  0.6260 -1.6700
   68SAPC  C220 5772   1.380   5.405   8.358 -0.4115  0.4949 -0.8707
   68SAPC  H20R 5773   1.472   5.344   8.357 -2.0190 -2.0832 -0.8591
   68SAPC  H20S 5774   1.307   5.321   8.356  0.4438 -0.3901  1.4991
   68SAPC  H20T 5775   1.353   5.460   8.451 -0.7187  0.3898 -0.8955
   68SAPC   C33 5776   1.313   6.463   6.846  0.0276  0.3111  0.9716
   68SAPC   H3X 5777   1.418   6.497   6.833  0.9792 -2.1224  1.7874
   68SAPC   H3Y 5778   1.310   6.388   6.927 -1.1745 -2.6797 -1.6558
   68SAPC   C34 5779   1.246   6.594   6.871  0.7296  0.3686 -0.7933
   68SAPC   H4X 5780   1.137   6.579   6.880  0.7038 -0.5274 -2.3491
   68SAPC   H4Y 5781   1.267   6.648   6.776  1.4099  0.9308 -0.3382
   68SAPC   C35 5782   1.304   6.670   6.996  0.5856  0.2151  0.4867
   68SAPC   H5X 5783   1.266   6.774   6.996  0.5628  0.2383 -1.2940
   68SAPC   H5Y 5784   1.414   6.666   6.983  0.5924  0.3831  0.4962
   68SAPC   C36 5785   1.259   6.612   7.134  0.0910  0.2944  0.1296
   68SAPC   H6X 5786   1.296   6.508   7.148 -2.1772 -0.1803  3.8175
   68SAPC   H6Y 5787   1.148   6.606   7.134  0.0799 -2.7907 -2.6099
   68SAPC   C37 5788   1.331   6.692   7.246  0.1694  0.7909  0.2538
   68SAPC   H7X 5789   1.278   6.789   7.258 -0.2302  0.4657  1.2655
   68SAPC   H7Y 5790   1.438   6.706   7.221 -0.0949  0.3309 -1.2496
   68SAPC   C38 5791   1.329   6.617   7.376 -0.4171 -0.2512  0.9761
   68SAPC   H8X 5792   1.378   6.518   7.363  1.2870  0.3046  2.6324
   68SAPC   H8Y 5793   1.225   6.591   7.403 -0.4793 -1.3230 -0.2153
   68SAPC   C39 5794   1.398   6.699   7.482  0.7083  0.6453  0.5925
   68SAPC   H9X 5795   1.337   6.792   7.491  1.0108  1.3010 -2.8411
   68SAPC   H9Y 5796   1.495   6.744   7.454  0.7560  1.0654  1.4012
   68SAPC  C310 5797   1.414   6.636   7.628  0.0296 -0.6292 -0.3825
   68SAPC  H10X 5798   1.468   6.539   7.625  3.1124  0.9504 -0.4495
   68SAPC  H10Y 5799   1.315   6.623   7.676  0.7864  0.8998  1.7790
   68SAPC  C311 5800   1.483   6.738   7.720 -0.6262 -0.0259 -0.6711
   68SAPC  H11X 5801   1.413   6.820   7.748 -0.4847  0.9281 -2.8776
   68SAPC  H11Y 5802   1.561   6.789   7.659 -0.8826  1.8631  0.4791
   68SAPC  C312 5803   1.545   6.686   7.850  0.4357 -0.3641  0.3493
   68SAPC  H12X 5804   1.587   6.777   7.899 -1.1953  0.7656 -0.2355
   68SAPC  H12Y 5805   1.629   6.614   7.840  2.0853  1.5880 -0.5388
   68SAPC  C313 5806   1.443   6.614   7.937 -0.3686 -0.2918  0.8154
   68SAPC  H13X 5807   1.413   6.515   7.897  0.1953 -0.2552  0.2885
   68SAPC  H13Y 5808   1.342   6.662   7.935 -1.3605 -2.2755  0.5668
   68SAPC  C314 5809   1.477   6.591   8.082 -0.7961  0.3327  0.3520
   68SAPC  H14X 5810   1.581   6.553   8.088 -0.4510  1.0687 -0.6659
   68SAPC  H14Y 5811   1.403   6.516   8.116 -0.6286 -0.6422 -1.2843
   68SAPC  C315 5812   1.464   6.717   8.158 -0.2353 -0.0263 -0.4873
   68SAPC  H15X 5813   1.358   6.746   8.173 -1.1026 -0.7314 -4.2087
   68SAPC  H15Y 5814   1.503   6.811   8.115  1.7667 -0.8471 -0.5477
   68SAPC  C316 5815   1.530   6.693   8.293 -0.1517 -0.3967 -0.1377
   68SAPC  H16X 5816   1.639   6.668   8.291  0.0356 -0.0661  2.4192
   68SAPC  H16Y 5817   1.491   6.599   8.336 -1.4528 -0.8922 -2.2724
   68SAPC  C317 5818   1.516   6.814   8.391  0.3932 -0.8358 -0.0430
   68SAPC  H17X 5819   1.406   6.825   8.406  0.4342  1.1679 -0.8987
   68SAPC  H17Y 5820   1.555   6.898   8.330  0.1502 -0.2164  0.6431
   68SAPC  C318 5821   1.596   6.798   8.523 -0.1762  0.3277 -0.3065
   68SAPC  H18X 5822   1.700   6.768   8.499 -1.4165 -4.5256 -0.5139
   68SAPC  H18Y 5823   1.559   6.707   8.575 -3.0421  1.2837 -0.4700
   68SAPC  H18Z 5824   1.585   6.892   8.582 -0.2884  1.5675 -2.1783
   69SLPC     N 5825   2.009   1.605  11.263 -0.8913  0.2035  0.2923
   69SLPC   C13 5826   1.963   1.457  11.247  0.2660 -0.2213 -0.9230
   69SLPC  H13A 5827   1.909   1.425  11.335  1.2842 -0.3291 -0.3195
   69SLPC  H13B 5828   1.891   1.449  11.166  0.1016  1.6531 -1.0027
   69SLPC  H13C 5829   2.048   1.392  11.237  1.0867  0.0181  2.8865
   69SLPC   C14 5830   2.096   1.597  11.389 -0.2189 -0.1932 -0.4476
   69SLPC  H14A 5831   2.055   1.530  11.463 -0.0438  0.5558  0.3368
   69SLPC  H14B 5832   2.194   1.558  11.366 -0.0203  1.3266 -2.4322
   69SLPC  H14C 5833   2.106   1.695  11.431  2.1854 -0.7481  0.3961
   69SLPC   C15 5834   1.880   1.682  11.287  0.0579  0.2292 -0.1432
   69SLPC  H15A 5835   1.886   1.789  11.275 -2.3759  0.4762  0.2428
   69SLPC  H15B 5836   1.802   1.641  11.223 -0.8408  1.0166  0.4158
   69SLPC  H15C 5837   1.836   1.650  11.380 -0.2767 -1.8265 -0.9518
   69SLPC   C12 5838   2.085   1.641  11.141  0.5718 -0.4909  0.1123
   69SLPC  H12A 5839   2.176   1.583  11.141 -0.9406 -3.0511 -1.0638
   69SLPC  H12B 5840   2.112   1.743  11.161 -2.6800  0.2330  1.4000
   69SLPC   C11 5841   2.027   1.645  10.999  0.1030 -0.4138 -0.4376
   69SLPC  H11A 5842   1.989   1.545  10.969  0.0413 -0.8902  1.1497
   69SLPC  H11B 5843   2.117   1.671  10.939 -0.1008  1.3163 -0.0266
   69SLPC     P 5844   1.970   1.888  10.920 -0.4868  0.0494 -0.2344
   69SLPC   O13 5845   1.864   1.991  10.943 -0.5665 -0.0280 -0.0655
   69SLPC   O14 5846   2.109   1.918  10.974  0.0603 -0.5511  0.2092
   69SLPC   O12 5847   1.927   1.742  10.975  0.0691 -1.0839 -0.2484
   69SLPC   O11 5848   1.988   1.852  10.767 -0.6260 -0.1764 -0.4553
   69SLPC    C1 5849   1.912   1.750  10.700  0.9393 -0.2731  0.4620
   69SLPC    HA 5850   1.973   1.658  10.697 -0.7722 -1.4208 -1.2203
   69SLPC    HB 5851   1.815   1.723  10.747 -0.9822  0.7878 -2.5803
   69SLPC    C2 5852   1.886   1.791  10.553 -0.4564  0.9612 -0.3071
   69SLPC    HS 5853   1.852   1.696  10.507 -1.5045  0.5029  1.3229
   69SLPC   O21 5854   2.000   1.846  10.489 -0.0789 -0.5583 -0.5853
   69SLPC   C21 5855   2.110   1.772  10.483 -0.5090  0.2157 -0.7073
   69SLPC   O22 5856   2.118   1.650  10.506  0.1333  0.4501 -0.4848
   69SLPC   C22 5857   2.220   1.862  10.421  0.0776  0.2447 -0.5817
   69SLPC   H2R 5858   2.162   1.944  10.373 -1.9344 -0.0696  1.1648
   69SLPC   H2S 5859   2.296   1.901  10.492 -1.0154  1.4135 -0.0044
   69SLPC    C3 5860   1.764   1.887  10.541  0.4823  0.1509 -0.4417
   69SLPC    HX 5861   1.783   1.987  10.585  0.6402 -0.1447  0.1782
   69SLPC    HY 5862   1.688   1.837  10.606  0.4826  1.3636  0.5319
   69SLPC   O31 5863   1.711   1.890  10.407  0.2752  0.4440  0.0814
   69SLPC   C31 5864   1.755   1.987  10.336 -1.0656  0.7719  0.6067
   69SLPC   O32 5865   1.842   2.071  10.361 -0.2131 -0.5980 -0.6117
   69SLPC   C32 5866   1.684   1.977  10.204  0.3065 -0.1889  0.5831
   69SLPC   H2X 5867   1.585   2.029  10.201 -0.0627 -0.9096 -1.5739
   69SLPC   H2Y 5868   1.667   1.871  10.177  0.1296 -0.5341  1.9375
   69SLPC   C23 5869   2.303   1.779  10.323 -0.2131  0.3343  0.3202
   69SLPC   H3R 5870   2.351   1.851  10.253  0.7572 -0.0998  0.5194
   69SLPC   H3S 5871   2.236   1.707  10.272 -0.0799 -0.5820  1.3938
   69SLPC   C24 5872   2.415   1.703  10.393  0.1896 -0.0102  0.0720
   69SLPC   H4R 5873   2.440   1.616  10.328 -1.2191  0.1469 -0.7099
   69SLPC   H4S 5874   2.393   1.667  10.496  1.5629  0.2808  0.4949
   69SLPC   C25 5875   2.539   1.786  10.406 -0.1365 -0.3954 -0.4163
   69SLPC   H5R 5876   2.612   1.718  10.457 -1.1760 -0.1735  1.4530
   69SLPC   H5S 5877   2.517   1.860  10.486 -0.6088 -2.0870  1.0993
   69SLPC   C26 5878   2.606   1.856  10.288 -0.6438  0.3963  0.2886
   69SLPC   H6R 5879   2.688   1.920  10.325  0.3873 -0.9520  0.4320
   69SLPC   H6S 5880   2.533   1.917  10.231  1.6857  1.0417 -2.1621
   69SLPC   C27 5881   2.675   1.750  10.207 -0.1610 -0.0133  0.7982
   69SLPC   H7R 5882   2.609   1.666  10.175  1.9539 -2.4315  2.3959
   69SLPC   H7S 5883   2.764   1.707  10.257  1.0441 -2.1996 -2.8245
   69SLPC   C28 5884   2.724   1.805  10.072  0.4513 -0.9297 -0.5394
   69SLPC   H8R 5885   2.824   1.846  10.099  0.1737 -0.7243  0.1659
   69SLPC   H8S 5886   2.650   1.881  10.041  0.1127 -2.6194 -4.6772
   69SLPC   C29 5887   2.742   1.704   9.958 -0.5203 -0.3637 -0.1697
   69SLPC   H9R 5888   2.836   1.651   9.979  0.0723  0.3347 -1.0181
   69SLPC  C210 5889   2.673   1.688   9.848 -0.1691 -0.7707  0.5739
   69SLPC  H10R 5890   2.720   1.618   9.779 -0.7780 -1.1181  0.5043
   69SLPC  C211 5891   2.551   1.773   9.803  0.0009  0.2021 -0.3692
   69SLPC  H11R 5892   2.570   1.806   9.699  0.7376  2.7431  0.5007
   69SLPC  H11S 5893   2.548   1.869   9.858  0.7148 -0.7765  1.4874
   69SLPC  C212 5894   2.416   1.698   9.813 -0.3696 -0.0149 -0.2396
   69SLPC  H12R 5895   2.420   1.599   9.860  1.1974  0.8100  1.4797
   69SLPC  C213 5896   2.307   1.748   9.757 -0.0885  0.1321  0.1718
   69SLPC  H13R 5897   2.210   1.700   9.776 -0.1926  0.1944 -0.2108
   69SLPC  C214 5898   2.298   1.869   9.664 -0.3186  0.1300  0.1644
   69SLPC  H14R 5899   2.403   1.896   9.637  0.4918 -0.0770  2.8114
   69SLPC  H14S 5900   2.243   1.958   9.701  0.1854  0.1808  0.8137
   69SLPC  C215 5901   2.237   1.824   9.534 -0.0690  0.3334  0.4320
   69SLPC  H15R 5902   2.280   1.729   9.494 -1.1272 -0.4055  1.0000
   69SLPC  H15S 5903   2.253   1.899   9.454 -3.2830  0.7896  0.1059
   69SLPC  C216 5904   2.086   1.807   9.548 -0.1900 -0.3245 -0.0709
   69SLPC  H16R 5905   2.039   1.891   9.604 -1.5736  0.6024 -2.4561
   69SLPC  H16S 5906   2.071   1.714   9.607  0.2048 -1.0056 -1.0128
   69SLPC  C217 5907   2.008   1.787   9.414 -0.4088  0.0731  0.6304
   69SLPC  H17R 5908   1.899   1.774   9.434 -0.5294 -0.1683 -0.1562
   69SLPC  H17S 5909   2.024   1.688   9.367 -0.4042  1.0708 -1.6169
   69SLPC  C218 5910   2.023   1.888   9.301  0.2346 -0.7423 -0.2333
   69SLPC  H18R 5911   2.131   1.899   9.279  0.0954 -1.5444 -1.3982
   69SLPC  H18S 5912   1.983   1.990   9.320 -0.8433 -0.8575 -1.7242
   69SLPC  H18T 5913   1.981   1.838   9.212  0.1790 -1.3001  0.0982
   69SLPC   C33 5914   1.769   2.042  10.087  0.1043  0.2669  0.1224
   69SLPC   H3X 5915   1.876   2.015  10.081  0.3084  1.3053 -1.5534
   69SLPC   H3Y 5916   1.763   2.152  10.101 -0.8060  0.3791 -1.0147
   69SLPC   C34 5917   1.708   2.012   9.944  0.1987  0.4754 -0.1136
   69SLPC   H4X 5918   1.598   2.027   9.940  0.0695 -0.0073  1.1907
   69SLPC   H4Y 5919   1.718   1.902   9.932 -0.7647  0.4422 -0.7100
   69SLPC   C35 5920   1.778   2.082   9.826 -0.2163  0.4338 -0.5533
   69SLPC   H5X 5921   1.888   2.074   9.841 -0.3829 -0.0866  0.4934
   69SLPC   H5Y 5922   1.757   2.190   9.842  0.4123  0.5296 -0.3705
   69SLPC   C36 5923   1.737   2.035   9.684 -0.3818  0.0366  0.4596
   69SLPC   H6X 5924   1.627   2.027   9.679 -0.2380 -1.6470 -0.9899
   69SLPC   H6Y 5925   1.775   1.933   9.662  2.6246  1.5661 -2.3526
   69SLPC   C37 5926   1.781   2.127   9.566  0.0108  0.2155 -0.2363
   69SLPC   H7X 5927   1.891   2.141   9.576  0.0383  1.3535 -1.7663
   69SLPC   H7Y 5928   1.743   2.230   9.584 -2.1398  0.3461 -4.4035
   69SLPC   C38 5929   1.734   2.090   9.431  0.2215 -0.2961  0.5432
   69SLPC   H8X 5930   1.624   2.081   9.432  0.0579  1.4168  0.0111
   69SLPC   H8Y 5931   1.789   1.999   9.397  1.0118  0.6989 -0.9424
   69SLPC   C39 5932   1.740   2.196   9.321  0.3585  1.0096 -0.4717
   69SLPC   H9X 5933   1.843   2.239   9.319  1.6178 -1.8018 -1.7647
   69SLPC   H9Y 5934   1.668   2.275   9.351 -0.5158  0.4573 -1.0680
   69SLPC  C310 5935   1.700   2.145   9.176 -0.1696 -0.1324 -0.6830
   69SLPC  H10X 5936   1.591   2.154   9.162  0.3919  1.3264 -7.3360
   69SLPC  H10Y 5937   1.744   2.043   9.169  1.7607  0.4801  1.2520
   69SLPC  C311 5938   1.757   2.236   9.071  0.2826  0.4243 -0.0563
   69SLPC  H11X 5939   1.867   2.227   9.060  0.3118 -1.1069  1.2452
   69SLPC  H11Y 5940   1.739   2.338   9.112  0.3744  1.1091 -1.6490
   69SLPC  C312 5941   1.699   2.232   8.928  0.4308 -0.2132 -0.0767
   69SLPC  H12X 5942   1.754   2.306   8.866 -0.3565  1.2517  0.9030
   69SLPC  H12Y 5943   1.594   2.267   8.940  1.4110  2.6301  1.1272
   69SLPC  C313 5944   1.689   2.093   8.856  0.3890  0.1626 -0.7187
   69SLPC  H13X 5945   1.626   2.038   8.929 -0.6310 -0.2294 -1.8615
   69SLPC  H13Y 5946   1.794   2.058   8.850 -0.0731 -1.0707 -2.0454
   69SLPC  C314 5947   1.621   2.099   8.721  0.2916 -0.8935  0.8894
   69SLPC  H14X 5948   1.667   2.183   8.665 -1.5268  0.6576  1.6131
   69SLPC  H14Y 5949   1.512   2.118   8.729  0.1290 -0.8945 -0.9949
   69SLPC  C315 5950   1.643   1.981   8.634 -0.0299 -0.3018  0.1895
   69SLPC  H15X 5951   1.623   1.885   8.687 -1.4676  0.1900  0.6006
   69SLPC  H15Y 5952   1.748   1.974   8.599  0.2549  1.8429  0.4782
   69SLPC  C316 5953   1.533   1.988   8.520 -0.4130 -0.1093 -0.3677
   69SLPC  H16X 5954   1.543   2.078   8.456 -2.0665  1.8317  1.9261
   69SLPC  H16Y 5955   1.439   1.988   8.579  1.0192  0.9307  2.0441
   69SLPC  C317 5956   1.527   1.857   8.437 -0.2146  0.9239 -0.3705
   69SLPC  H17X 5957   1.518   1.765   8.499 -2.6256  1.6270  0.4347
   69SLPC  H17Y 5958   1.622   1.846   8.380 -0.7367 -1.0562 -0.9558
   69SLPC  C318 5959   1.409   1.851   8.335 -0.3167  0.0662 -0.2616
   69SLPC  H18X 5960   1.439   1.917   8.251  0.0217 -0.5210 -0.6100
   69SLPC  H18Y 5961   1.318   1.888   8.387  0.9161  0.5641  1.6545
   69SLPC  H18Z 5962   1.405   1.746   8.299  1.0036  0.1603 -0.7159
   70SLPC     N 5963   2.279   0.993  11.386  0.0722 -0.0173 -0.2784
   70SLPC   C13 5964   2.244   1.139  11.361  0.0862  0.4640  0.4522
   70SLPC  H13A 5965   2.272   1.200  11.445 -0.1318  1.2789 -0.0603
   70SLPC  H13B 5966   2.291   1.162  11.267  2.3215 -0.0208  1.3835
   70SLPC  H13C 5967   2.138   1.142  11.340  0.6662  0.0180 -3.0242
   70SLPC   C14 5968   2.186   0.948  11.491 -0.2377 -0.4000  0.7541
   70SLPC  H14A 5969   2.214   0.850  11.527  2.0703  0.6875  2.1280
   70SLPC  H14B 5970   2.194   1.011  11.578  2.7334  0.4083 -0.0008
   70SLPC  H14C 5971   2.087   0.958  11.447  0.5470  1.5899 -0.7170
   70SLPC   C15 5972   2.419   0.984  11.433  0.3540  0.6547 -0.0054
   70SLPC  H15A 5973   2.474   1.044  11.363 -1.2476  1.7104 -0.4256
   70SLPC  H15B 5974   2.423   1.022  11.534  0.0330 -2.3926  1.2663
   70SLPC  H15C 5975   2.463   0.886  11.447  0.8193  1.1323  2.1900
   70SLPC   C12 5976   2.245   0.918  11.256 -0.4470  0.1953  0.1595
   70SLPC  H12A 5977   2.144   0.946  11.230 -1.3081 -1.6509  1.2868
   70SLPC  H12B 5978   2.253   0.811  11.266  0.1432  0.2241  0.0240
   70SLPC   C11 5979   2.325   0.951  11.132 -0.3796  0.4333 -0.8955
   70SLPC  H11A 5980   2.291   0.886  11.048 -2.1393 -1.7292  1.3547
   70SLPC  H11B 5981   2.433   0.925  11.144 -0.5043 -1.4247 -3.0433
   70SLPC     P 5982   2.393   1.159  10.982 -0.2612  0.2198  0.1785
   70SLPC   O13 5983   2.367   1.303  10.987  0.1892  0.1780 -0.4958
   70SLPC   O14 5984   2.534   1.110  10.981  0.0615  0.0141 -0.9033
   70SLPC   O12 5985   2.310   1.088  11.098  0.2099 -0.2826 -0.0757
   70SLPC   O11 5986   2.318   1.096  10.859  0.0518 -0.2181  0.5546
   70SLPC    C1 5987   2.360   1.116  10.727  0.1158  0.2929  0.3568
   70SLPC    HA 5988   2.275   1.071  10.670 -1.2595  1.2803  1.5636
   70SLPC    HB 5989   2.375   1.223  10.702  2.4763  0.6481  2.7974
   70SLPC    C2 5990   2.478   1.037  10.680 -0.0165 -0.8290  0.2410
   70SLPC    HS 5991   2.574   1.064  10.730  0.5333 -2.0589 -0.1097
   70SLPC   O21 5992   2.512   1.066  10.539  0.0858 -0.5597  0.8208
   70SLPC   C21 5993   2.579   1.174  10.513 -0.6831 -0.3023  0.1186
   70SLPC   O22 5994   2.634   1.242  10.593 -0.2381  0.1728 -0.2962
   70SLPC   C22 5995   2.592   1.185  10.358  0.0085  0.9372 -0.9623
   70SLPC   H2R 5996   2.627   1.085  10.325 -1.6562 -1.0634  2.6709
   70SLPC   H2S 5997   2.493   1.213  10.314 -2.5195 -0.1450  3.4079
   70SLPC    C3 5998   2.465   0.888  10.706 -0.2764  0.1100  0.2956
   70SLPC    HX 5999   2.463   0.887  10.817 -0.4545  0.1074  0.2923
   70SLPC    HY 6000   2.555   0.831  10.676  0.4478  1.0034  0.7014
   70SLPC   O31 6001   2.346   0.833  10.650  0.2536  0.1140  0.1383
   70SLPC   C31 6002   2.338   0.706  10.639 -0.5320 -0.2351  0.5758
   70SLPC   O32 6003   2.425   0.627  10.678 -0.3886  0.0501  0.2032
   70SLPC   C32 6004   2.213   0.658  10.566 -0.1010  1.0250 -0.2827
   70SLPC   H2X 6005   2.176   0.741  10.502 -0.5500  0.7113 -0.4343
   70SLPC   H2Y 6006   2.143   0.624  10.645  0.3470  2.2672  0.6908
   70SLPC   C23 6007   2.701   1.279  10.312  0.2240 -0.7176  0.3688
   70SLPC   H3R 6008   2.793   1.249  10.366  1.6968 -0.8549 -2.0928
   70SLPC   H3S 6009   2.681   1.387  10.332 -0.3264 -0.8683  0.6410
   70SLPC   C24 6010   2.747   1.275  10.170  0.1024 -0.4728  0.3789
   70SLPC   H4R 6011   2.775   1.168  10.155 -0.1036 -0.3426 -1.0266
   70SLPC   H4S 6012   2.834   1.341  10.153 -0.5738 -0.0376 -1.6415
   70SLPC   C25 6013   2.646   1.301  10.057  0.1575 -0.2959  0.9375
   70SLPC   H5R 6014   2.601   1.402  10.062 -0.6128 -0.6534  1.3874
   70SLPC   H5S 6015   2.564   1.227  10.069 -0.9817  0.9434  1.0245
   70SLPC   C26 6016   2.708   1.291   9.909 -0.7669 -0.6643 -0.0023
   70SLPC   H6R 6017   2.743   1.190   9.879  1.2761  0.9175 -3.6081
   70SLPC   H6S 6018   2.795   1.359   9.897 -2.0326  0.8894 -0.9333
   70SLPC   C27 6019   2.614   1.339   9.795 -0.0741 -0.4452  0.7284
   70SLPC   H7R 6020   2.586   1.446   9.801  1.5155 -0.0211  0.9457
   70SLPC   H7S 6021   2.515   1.288   9.796 -0.8454  1.0229  0.8387
   70SLPC   C28 6022   2.675   1.309   9.655  0.2610  0.0328 -0.2269
   70SLPC   H8R 6023   2.591   1.342   9.591  0.1972 -0.5186 -0.4330
   70SLPC   H8S 6024   2.694   1.200   9.644 -0.5932 -0.0504 -0.9563
   70SLPC   C29 6025   2.806   1.390   9.630  0.1793  0.7966  0.1129
   70SLPC   H9R 6026   2.876   1.370   9.713 -0.1984 -0.9517  0.0332
   70SLPC  C210 6027   2.837   1.465   9.528 -0.3997  0.3869 -0.2379
   70SLPC  H10R 6028   2.935   1.515   9.522 -0.2355 -0.1299 -2.6867
   70SLPC  C211 6029   2.746   1.499   9.408  0.1627  0.0115  0.1510
   70SLPC  H11R 6030   2.679   1.414   9.381  1.0344 -0.6536  0.0352
   70SLPC  H11S 6031   2.820   1.517   9.327 -2.9333 -0.5596 -3.0701
   70SLPC  C212 6032   2.658   1.620   9.427  0.1667  0.8106  0.1050
   70SLPC  H12R 6033   2.645   1.667   9.526 -0.7209  3.1621 -1.0507
   70SLPC  C213 6034   2.602   1.677   9.317  0.4264 -0.3594 -0.9213
   70SLPC  H13R 6035   2.548   1.771   9.340  0.2177 -0.6470 -0.1962
   70SLPC  C214 6036   2.617   1.630   9.177  0.1342 -0.1040  0.2289
   70SLPC  H14R 6037   2.532   1.562   9.155  1.0871 -1.6509  1.1321
   70SLPC  H14S 6038   2.704   1.564   9.162 -0.0037 -0.4162  0.7696
   70SLPC  C215 6039   2.622   1.735   9.065  0.1267 -0.3975 -0.1785
   70SLPC  H15R 6040   2.688   1.818   9.099 -2.9823  2.4612 -0.5120
   70SLPC  H15S 6041   2.517   1.769   9.049 -0.1775  0.4069  2.9063
   70SLPC  C216 6042   2.662   1.675   8.928  0.0098 -0.1061  0.2359
   70SLPC  H16R 6043   2.570   1.622   8.896 -0.7752  1.1320  0.3813
   70SLPC  H16S 6044   2.754   1.615   8.944  2.0626  2.5492 -0.8100
   70SLPC  C217 6045   2.711   1.781   8.824  0.1496  0.2027  0.8519
   70SLPC  H17R 6046   2.741   1.745   8.724 -0.3878  1.9608  0.0143
   70SLPC  H17S 6047   2.796   1.837   8.869 -0.4209  1.5846  0.2663
   70SLPC  C218 6048   2.609   1.898   8.810  0.8770  0.1352  0.5705
   70SLPC  H18R 6049   2.589   1.950   8.906  3.2799  1.5464  0.3746
   70SLPC  H18S 6050   2.507   1.870   8.775  1.6291 -1.4570 -0.4964
   70SLPC  H18T 6051   2.657   1.979   8.751 -0.4618  0.3318 -0.3010
   70SLPC   C33 6052   2.226   0.535  10.467  0.2499  0.0553  0.5074
   70SLPC   H3X 6053   2.243   0.442  10.526 -1.2685 -0.6158 -0.0538
   70SLPC   H3Y 6054   2.315   0.555  10.403 -0.0141  0.1402  0.1587
   70SLPC   C34 6055   2.112   0.535  10.371  0.5275  0.4811  0.1229
   70SLPC   H4X 6056   2.104   0.625  10.307 -0.6416 -0.0449 -0.5063
   70SLPC   H4Y 6057   2.020   0.536  10.433  1.1897 -2.3253  1.3241
   70SLPC   C35 6058   2.106   0.408  10.277 -0.5953  0.7883  0.5529
   70SLPC   H5X 6059   2.004   0.377  10.243 -0.6455  0.5024  0.9520
   70SLPC   H5Y 6060   2.127   0.326  10.350  0.8017  1.1262  0.5568
   70SLPC   C36 6061   2.199   0.401  10.157  0.7195 -0.1947  0.1689
   70SLPC   H6X 6062   2.193   0.296  10.121  2.6590 -1.5554  3.3847
   70SLPC   H6Y 6063   2.302   0.408  10.198  0.4755  0.2568  0.7192
   70SLPC   C37 6064   2.162   0.516  10.064 -0.4421 -0.4148 -0.1369
   70SLPC   H7X 6065   2.206   0.614  10.091 -0.3498 -0.5187  0.0885
   70SLPC   H7Y 6066   2.052   0.534  10.072 -0.9157 -1.4904 -2.9146
   70SLPC   C38 6067   2.208   0.482   9.918  0.3861  0.3776 -0.4220
   70SLPC   H8X 6068   2.183   0.375   9.901  1.9865 -0.7413  3.2773
   70SLPC   H8Y 6069   2.318   0.490   9.909  0.2304  1.9658 -1.4290
   70SLPC   C39 6070   2.126   0.576   9.823 -0.2842 -0.2126 -0.3528
   70SLPC   H9X 6071   2.162   0.681   9.832 -0.4538 -0.3079  2.0103
   70SLPC   H9Y 6072   2.018   0.574   9.850 -0.7922  3.1323 -1.6447
   70SLPC  C310 6073   2.147   0.521   9.683  0.1213  0.1886  0.4548
   70SLPC  H10X 6074   2.090   0.429   9.659 -0.4303  1.0442 -1.7300
   70SLPC  H10Y 6075   2.255   0.498   9.674 -0.0689 -0.0303 -2.0510
   70SLPC  C311 6076   2.106   0.623   9.581 -0.2056  0.4310 -0.1718
   70SLPC  H11X 6077   2.020   0.670   9.632  1.4249  0.5649  2.6830
   70SLPC  H11Y 6078   2.076   0.574   9.486  0.1466  0.2206 -0.1783
   70SLPC  C312 6079   2.209   0.739   9.560  0.2024 -0.2042  0.2233
   70SLPC  H12X 6080   2.300   0.715   9.501  0.6511 -1.3945  1.3533
   70SLPC  H12Y 6081   2.257   0.764   9.658 -0.5619  0.2166  0.4945
   70SLPC  C313 6082   2.147   0.872   9.511  0.7319 -0.0739  0.3964
   70SLPC  H13X 6083   2.070   0.915   9.579  0.9243  1.3809 -0.2560
   70SLPC  H13Y 6084   2.086   0.847   9.422  0.3594  0.1758  0.5810
   70SLPC  C314 6085   2.256   0.975   9.488 -0.5842  0.4273  0.2405
   70SLPC  H14X 6086   2.336   0.935   9.421 -0.9307 -3.5025  1.9260
   70SLPC  H14Y 6087   2.302   0.979   9.589 -2.5703 -0.3667  1.2289
   70SLPC  C315 6088   2.211   1.113   9.448 -0.2802  0.7864 -0.6734
   70SLPC  H15X 6089   2.112   1.120   9.498 -0.2136  2.1120 -0.6958
   70SLPC  H15Y 6090   2.177   1.114   9.342 -0.8909  2.5607 -0.5022
   70SLPC  C316 6091   2.299   1.228   9.480 -0.3088 -0.0631  0.0455
   70SLPC  H16X 6092   2.360   1.209   9.572  2.2027 -0.5489 -1.6066
   70SLPC  H16Y 6093   2.237   1.320   9.483 -2.8467 -1.6243 -1.6421
   70SLPC  C317 6094   2.403   1.261   9.364 -0.2901  0.2351  0.3351
   70SLPC  H17X 6095   2.445   1.361   9.389 -1.4715  0.2374  2.6092
   70SLPC  H17Y 6096   2.345   1.268   9.269  1.3430  0.8180 -0.6634
   70SLPC  C318 6097   2.529   1.163   9.366 -0.0817 -0.0969 -0.9571
   70SLPC  H18X 6098   2.507   1.057   9.342  1.5096 -0.8578  0.7352
   70SLPC  H18Y 6099   2.568   1.176   9.470 -2.0530 -2.1200  0.1225
   70SLPC  H18Z 6100   2.604   1.200   9.294  1.1690 -0.8526 -0.0840
   71SLPC     N 6101   2.446   4.843  10.737  0.5339  0.4125 -0.7162
   71SLPC   C13 6102   2.539   4.957  10.760  0.1645  0.6830 -0.1256
   71SLPC  H13A 6103   2.601   4.975  10.674  0.7422  0.0636  0.1507
   71SLPC  H13B 6104   2.483   5.048  10.775  0.7128  1.0088 -0.0217
   71SLPC  H13C 6105   2.612   4.936  10.837  1.2305 -1.5468 -1.6273
   71SLPC   C14 6106   2.516   4.707  10.745  0.6487 -0.9818  0.2925
   71SLPC  H14A 6107   2.444   4.630  10.719 -0.5436  0.4239 -0.7237
   71SLPC  H14B 6108   2.600   4.715  10.678  0.4157  3.3842  0.2488
   71SLPC  H14C 6109   2.544   4.677  10.845 -0.3904 -3.8744 -0.1864
   71SLPC   C15 6110   2.389   4.844  10.595  0.7128  0.8113  0.6020
   71SLPC  H15A 6111   2.300   4.783  10.595  0.5340  1.0554  1.7732
   71SLPC  H15B 6112   2.361   4.947  10.577  0.4775  0.4965 -1.0007
   71SLPC  H15C 6113   2.456   4.808  10.518 -1.3077 -1.9718 -0.0123
   71SLPC   C12 6114   2.329   4.850  10.831  0.0007 -0.2399 -0.6569
   71SLPC  H12A 6115   2.356   4.841  10.935 -0.0319  0.5390 -0.5761
   71SLPC  H12B 6116   2.267   4.766  10.802 -0.0679 -0.3709 -0.1504
   71SLPC   C11 6117   2.231   4.968  10.819 -0.6519 -0.1875  0.4755
   71SLPC  H11A 6118   2.150   4.940  10.889 -2.3045 -1.0316 -1.6426
   71SLPC  H11B 6119   2.195   4.966  10.713  3.3785 -1.8164 -1.0671
   71SLPC     P 6120   2.269   5.226  10.759  0.3521 -0.0975 -0.1558
   71SLPC   O13 6121   2.126   5.242  10.750 -0.1378  0.5467  0.4500
   71SLPC   O14 6122   2.358   5.338  10.798 -0.2237  0.4792 -0.7073
   71SLPC   O12 6123   2.291   5.099  10.852  0.3574 -0.0784  0.5602
   71SLPC   O11 6124   2.317   5.174  10.619 -0.6020  0.1023 -0.0313
   71SLPC    C1 6125   2.290   5.252  10.499 -0.3540  0.3243 -0.8400
   71SLPC    HA 6126   2.180   5.269  10.501 -0.9386 -2.6584  2.9937
   71SLPC    HB 6127   2.338   5.351  10.518  1.1489 -0.6483  0.7057
   71SLPC    C2 6128   2.340   5.189  10.375  0.3045 -0.0489  0.4420
   71SLPC    HS 6129   2.329   5.251  10.283  1.7039 -1.2904 -0.6221
   71SLPC   O21 6130   2.283   5.055  10.360 -0.0347 -0.3800  0.2235
   71SLPC   C21 6131   2.156   5.057  10.330  0.5622 -0.4240 -0.1574
   71SLPC   O22 6132   2.090   5.160  10.297 -0.4263  0.2900 -0.0497
   71SLPC   C22 6133   2.101   4.916  10.341 -0.3763  0.4851  0.8254
   71SLPC   H2R 6134   2.184   4.849  10.310 -1.3230  0.8489 -2.8958
   71SLPC   H2S 6135   2.074   4.885  10.444 -1.2424 -0.7644  0.2447
   71SLPC    C3 6136   2.490   5.168  10.384  0.4554  0.2095  0.2976
   71SLPC    HX 6137   2.542   5.121  10.298  2.1197  1.5637  0.5130
   71SLPC    HY 6138   2.509   5.112  10.478  1.1510  1.3759  0.8759
   71SLPC   O31 6139   2.549   5.299  10.413 -0.4766  0.3393  0.1421
   71SLPC   C31 6140   2.681   5.303  10.409  0.4422 -0.2777 -0.2491
   71SLPC   O32 6141   2.755   5.202  10.410 -0.1540 -0.2370 -0.2711
   71SLPC   C32 6142   2.721   5.444  10.407 -0.5667 -0.6824  0.4584
   71SLPC   H2X 6143   2.829   5.453  10.430  0.1571 -1.2889 -2.3707
   71SLPC   H2Y 6144   2.657   5.491  10.485 -0.5581  0.9594 -0.4828
   71SLPC   C23 6145   1.977   4.909  10.248  0.5691 -0.4735  0.4121
   71SLPC   H3R 6146   1.911   4.996  10.268  1.4478  0.3397 -0.1568
   71SLPC   H3S 6147   1.921   4.813  10.256 -0.1373 -0.2821 -1.5161
   71SLPC   C24 6148   2.007   4.926  10.101  0.1168  0.4958  0.8324
   71SLPC   H4R 6149   2.060   4.839  10.057  0.9442  2.3674 -2.1796
   71SLPC   H4S 6150   2.068   5.014  10.072 -0.5774  0.4487 -0.9026
   71SLPC   C25 6151   1.891   4.935  10.000 -0.6425  0.5494  0.2561
   71SLPC   H5R 6152   1.828   5.024  10.020 -1.5713  0.1964 -0.9902
   71SLPC   H5S 6153   1.829   4.842  10.000  2.7874 -1.9535  0.8986
   71SLPC   C26 6154   1.938   4.962   9.856 -0.0308  0.1002  0.0770
   71SLPC   H6R 6155   2.003   4.879   9.822  0.2712 -0.1987  1.3122
   71SLPC   H6S 6156   1.993   5.058   9.853  4.0573 -2.0680 -1.6160
   71SLPC   C27 6157   1.816   4.947   9.754 -0.4953 -0.3700  0.2710
   71SLPC   H7R 6158   1.745   4.873   9.797  2.3968 -3.1076  0.7007
   71SLPC   H7S 6159   1.864   4.907   9.662 -1.6578 -1.8403  0.2608
   71SLPC   C28 6160   1.749   5.078   9.707  0.2808 -0.5391 -0.2316
   71SLPC   H8R 6161   1.710   5.130   9.797 -1.7942 -0.6104 -1.0374
   71SLPC   H8S 6162   1.657   5.063   9.647 -0.3336 -0.8381  0.7792
   71SLPC   C29 6163   1.848   5.175   9.639  0.2967 -0.6158  0.4191
   71SLPC   H9R 6164   1.927   5.224   9.699  0.5166 -0.5025  0.0358
   71SLPC  C210 6165   1.840   5.221   9.513  0.4245 -0.2536 -0.3093
   71SLPC  H10R 6166   1.934   5.263   9.475  0.0458  1.7993  0.8751
   71SLPC  C211 6167   1.731   5.191   9.405 -0.3617  0.0477  0.2574
   71SLPC  H11R 6168   1.679   5.286   9.380 -1.8823 -0.9092 -0.3617
   71SLPC  H11S 6169   1.653   5.125   9.450 -0.1482  0.2328  0.9155
   71SLPC  C212 6170   1.786   5.114   9.278 -0.5498 -0.2863 -0.1994
   71SLPC  H12R 6171   1.852   5.029   9.301 -0.5339 -0.4015 -0.6665
   71SLPC  C213 6172   1.772   5.157   9.149  0.4700 -0.2028  0.2251
   71SLPC  H13R 6173   1.806   5.094   9.066  2.2415  0.5007  0.3879
   71SLPC  C214 6174   1.683   5.276   9.114  0.5485 -0.0576 -0.0881
   71SLPC  H14R 6175   1.735   5.368   9.150 -0.6334  1.2206 -1.4847
   71SLPC  H14S 6176   1.580   5.269   9.157 -0.5517 -0.4696 -2.6182
   71SLPC  C215 6177   1.668   5.312   8.963 -0.0110 -0.4551  0.0206
   71SLPC  H15R 6178   1.766   5.355   8.932 -0.3980 -0.0087 -0.5973
   71SLPC  H15S 6179   1.601   5.397   8.942  0.4790  0.0802  0.5961
   71SLPC  C216 6180   1.648   5.197   8.856 -1.4311  0.1186  1.0722
   71SLPC  H16R 6181   1.542   5.164   8.854 -1.2976 -0.2561  0.1111
   71SLPC  H16S 6182   1.711   5.109   8.882 -0.4213 -0.0772 -1.7363
   71SLPC  C217 6183   1.677   5.244   8.711  0.2765  0.9086  0.0790
   71SLPC  H17R 6184   1.782   5.279   8.712 -0.4673  3.3518 -0.2646
   71SLPC  H17S 6185   1.611   5.331   8.693 -1.1465  0.2459  1.7774
   71SLPC  C218 6186   1.666   5.132   8.608  0.3750 -0.1343  0.0180
   71SLPC  H18R 6187   1.561   5.105   8.587  0.6997 -2.0404  0.6426
   71SLPC  H18S 6188   1.716   5.036   8.636  0.1021 -0.3577 -0.2588
   71SLPC  H18T 6189   1.709   5.173   8.515 -1.1368  1.3131 -0.0891
   71SLPC   C33 6190   2.706   5.506  10.272 -0.0473  0.3710  0.1709
   71SLPC   H3X 6191   2.710   5.616  10.288  2.0155  0.3873 -0.2124
   71SLPC   H3Y 6192   2.601   5.490  10.239  0.8360 -2.3769 -1.6153
   71SLPC   C34 6193   2.809   5.452  10.173 -0.2174  0.0971 -0.9028
   71SLPC   H4X 6194   2.819   5.341  10.171  1.6110  0.0812  2.0678
   71SLPC   H4Y 6195   2.910   5.483  10.209  0.6242 -1.6027 -1.6560
   71SLPC   C35 6196   2.771   5.496  10.031 -0.0781 -1.0352  0.1483
   71SLPC   H5X 6197   2.856   5.464   9.967 -2.6315 -0.9396 -3.5519
   71SLPC   H5Y 6198   2.763   5.605  10.012 -0.2480 -1.3180 -1.5585
   71SLPC   C36 6199   2.641   5.419   9.984  0.4339 -0.1146  0.0922
   71SLPC   H6X 6200   2.553   5.438  10.050 -0.3258 -1.9181 -0.3507
   71SLPC   H6Y 6201   2.661   5.310   9.994 -2.4565 -0.7810 -0.5864
   71SLPC   C37 6202   2.605   5.463   9.835  0.8604  0.3199 -0.3428
   71SLPC   H7X 6203   2.595   5.574   9.830 -1.8916  0.1494 -0.4761
   71SLPC   H7Y 6204   2.503   5.421   9.819  0.8035 -0.6829  2.1662
   71SLPC   C38 6205   2.708   5.403   9.742  0.7650 -0.9204 -0.6885
   71SLPC   H8X 6206   2.740   5.307   9.786 -0.0225 -0.3437  1.2259
   71SLPC   H8Y 6207   2.793   5.473   9.731 -0.6961  0.8449 -1.5044
   71SLPC   C39 6208   2.650   5.356   9.611 -0.0908 -0.6528 -0.2677
   71SLPC   H9X 6209   2.550   5.308   9.619 -0.9152  1.1613  0.6564
   71SLPC   H9Y 6210   2.718   5.277   9.570  1.9251  0.0774  1.4711
   71SLPC  C310 6211   2.656   5.481   9.513 -0.3236  0.2040 -0.1349
   71SLPC  H10X 6212   2.752   5.537   9.514  0.1481 -0.5285  1.9123
   71SLPC  H10Y 6213   2.583   5.555   9.552 -0.2220  1.0527 -1.4968
   71SLPC  C311 6214   2.617   5.432   9.372  0.3354  0.2225 -0.9037
   71SLPC  H11X 6215   2.513   5.393   9.378  1.3909 -3.0030 -1.6502
   71SLPC  H11Y 6216   2.678   5.343   9.345  2.0052  1.2487 -0.6172
   71SLPC  C312 6217   2.622   5.546   9.268  0.6173  0.4986  1.0036
   71SLPC  H12X 6218   2.726   5.583   9.261  1.0734 -0.9687 -1.1967
   71SLPC  H12Y 6219   2.549   5.623   9.302 -1.4326 -0.4180 -1.0496
   71SLPC  C313 6220   2.596   5.510   9.122  0.2429  0.7078 -0.4115
   71SLPC  H13X 6221   2.515   5.435   9.112 -0.4991  1.0534  2.3168
   71SLPC  H13Y 6222   2.686   5.465   9.074 -0.1348  0.4463 -0.8805
   71SLPC  C314 6223   2.544   5.627   9.039 -0.8694 -0.0511  0.1836
   71SLPC  H14X 6224   2.549   5.594   8.933 -1.6153  0.1487  0.0791
   71SLPC  H14Y 6225   2.615   5.711   9.058  0.7579 -0.9358 -1.6369
   71SLPC  C315 6226   2.397   5.671   9.071  0.2859 -0.9449 -0.2073
   71SLPC  H15X 6227   2.383   5.695   9.179  2.6097 -0.8099  0.1233
   71SLPC  H15Y 6228   2.328   5.591   9.038 -1.5833  0.1337  0.8839
   71SLPC  C316 6229   2.364   5.786   8.976  0.4186 -0.3710 -0.0131
   71SLPC  H16X 6230   2.407   5.762   8.877 -0.2140 -1.7954  0.0254
   71SLPC  H16Y 6231   2.409   5.876   9.023  1.3892 -1.2256  0.7563
   71SLPC  C317 6232   2.213   5.808   8.962 -0.0772  0.3329  0.1893
   71SLPC  H17X 6233   2.160   5.806   9.060 -0.9412  0.7168 -0.2521
   71SLPC  H17Y 6234   2.182   5.725   8.896  4.0561 -1.3879  0.1336
   71SLPC  C318 6235   2.187   5.936   8.887 -0.5559 -0.0771 -0.0701
   71SLPC  H18X 6236   2.249   6.023   8.918  0.3223 -0.2463 -1.2825
   71SLPC  H18Y 6237   2.079   5.962   8.883 -0.2481  1.8500  2.0324
   71SLPC  H18Z 6238   2.215   5.920   8.781  2.2364 -2.5010  0.8869
   72SLPC     N 6239   0.901   0.935  11.205 -0.2832  0.0513  0.3232
   72SLPC   C13 6240   0.965   0.813  11.156 -0.0951  0.4985  0.9025
   72SLPC  H13A 6241   1.045   0.792  11.225  0.1925 -0.9721  0.1611
   72SLPC  H13B 6242   0.896   0.730  11.153  0.6480 -0.1494  1.2337
   72SLPC  H13C 6243   1.009   0.818  11.057 -2.7977  2.1359 -0.3436
   72SLPC   C14 6244   0.998   1.050  11.185 -0.9226  0.0745 -0.4076
   72SLPC  H14A 6245   1.095   1.021  11.225 -1.2225 -1.6917 -0.8875
   72SLPC  H14B 6246   1.009   1.077  11.081 -0.7021 -0.2088 -0.4588
   72SLPC  H14C 6247   0.956   1.141  11.223 -1.7245 -0.9943  1.3831
   72SLPC   C15 6248   0.888   0.927  11.355  0.2279 -0.3561  0.7144
   72SLPC  H15A 6249   0.848   0.829  11.380 -1.0825 -0.1535 -0.4868
   72SLPC  H15B 6250   0.978   0.964  11.401 -0.9699  1.8574  1.4507
   72SLPC  H15C 6251   0.801   0.982  11.389 -1.0965 -2.9750  1.9206
   72SLPC   C12 6252   0.769   0.946  11.139  0.5736 -0.0938 -0.8492
   72SLPC  H12A 6253   0.723   1.030  11.190 -0.5510 -1.3437  0.2638
   72SLPC  H12B 6254   0.707   0.863  11.170  0.3239  0.6088  0.6431
   72SLPC   C11 6255   0.763   0.961  10.985  0.4992  0.3427  0.3571
   72SLPC  H11A 6256   0.653   0.960  10.974  0.4957  1.3127  0.1817
   72SLPC  H11B 6257   0.795   0.871  10.929 -0.7168  1.3073 -1.9950
   72SLPC     P 6258   0.744   1.221  10.949 -0.0023  0.2200  0.4239
   72SLPC   O13 6259   0.608   1.206  10.900  0.2872 -0.8009  0.4111
   72SLPC   O14 6260   0.745   1.259  11.089  0.4798 -0.0029 -0.9237
   72SLPC   O12 6261   0.821   1.083  10.940  0.9201 -0.1860  0.3853
   72SLPC   O11 6262   0.829   1.335  10.867  0.3227 -0.4146  0.5925
   72SLPC    C1 6263   0.848   1.337  10.722  0.3435 -0.1317 -0.5073
   72SLPC    HA 6264   0.874   1.236  10.685  1.4667 -0.5721  1.3497
   72SLPC    HB 6265   0.761   1.382  10.669 -0.4429  0.1765  0.9733
   72SLPC    C2 6266   0.972   1.434  10.704 -0.5858  0.8552  0.4997
   72SLPC    HS 6267   0.927   1.536  10.706  0.8952  1.5359  2.1849
   72SLPC   O21 6268   1.036   1.400  10.583 -0.4551 -0.1819 -0.3011
   72SLPC   C21 6269   1.031   1.487  10.490  0.1246 -0.3869  1.1408
   72SLPC   O22 6270   0.991   1.603  10.504  0.5279 -0.1202  0.4285
   72SLPC   C22 6271   1.099   1.427  10.366 -0.4617  0.7095 -0.2543
   72SLPC   H2R 6272   1.207   1.443  10.384 -0.0436 -0.6668 -1.4123
   72SLPC   H2S 6273   1.088   1.317  10.367  1.6734  0.4421  1.2348
   72SLPC    C3 6274   1.079   1.423  10.817  1.0971 -0.3595 -0.2082
   72SLPC    HX 6275   1.077   1.317  10.851 -0.2692  0.1321  1.3737
   72SLPC    HY 6276   1.042   1.480  10.905  2.6557  1.4828 -0.6684
   72SLPC   O31 6277   1.207   1.462  10.776  0.2685 -0.7312 -0.2964
   72SLPC   C31 6278   1.243   1.588  10.785  0.0622 -0.2847  0.2807
   72SLPC   O32 6279   1.182   1.673  10.845  0.6378 -1.2313 -0.1379
   72SLPC   C32 6280   1.368   1.595  10.696  0.1739  1.5213  0.2491
   72SLPC   H2X 6281   1.358   1.531  10.605 -0.8867  0.3155  1.1710
   72SLPC   H2Y 6282   1.452   1.544  10.748 -0.1016 -1.7912 -2.2355
   72SLPC   C23 6283   1.051   1.484  10.228 -0.4700 -0.2820 -0.1661
   72SLPC   H3R 6284   1.087   1.590  10.224 -2.7547  0.4854 -1.9674
   72SLPC   H3S 6285   0.943   1.497  10.210 -0.1719  0.8849 -1.2889
   72SLPC   C24 6286   1.117   1.408  10.120 -0.2976  0.0606  0.4685
   72SLPC   H4R 6287   1.104   1.298  10.118  2.2257 -0.3052 -0.5320
   72SLPC   H4S 6288   1.227   1.421  10.133 -0.0333 -1.8616  0.4358
   72SLPC   C25 6289   1.061   1.465   9.991 -0.3902  0.2072 -0.4697
   72SLPC   H5R 6290   1.093   1.571   9.976 -1.6967  0.7599  0.4950
   72SLPC   H5S 6291   0.951   1.462  10.002 -0.4214  0.3854 -0.7277
   72SLPC   C26 6292   1.112   1.369   9.880 -0.4252 -0.3234  0.2080
   72SLPC   H6R 6293   1.042   1.285   9.861 -2.3564  1.5804 -1.6867
   72SLPC   H6S 6294   1.213   1.333   9.908 -0.1735  0.0781 -0.1765
   72SLPC   C27 6295   1.137   1.452   9.751 -0.2423 -0.1687  0.5158
   72SLPC   H7R 6296   1.224   1.517   9.773  0.9654 -1.4391 -0.3586
   72SLPC   H7S 6297   1.038   1.497   9.726 -0.0322  0.6484  1.1106
   72SLPC   C28 6298   1.187   1.361   9.639  0.2180  0.7644  0.0020
   72SLPC   H8R 6299   1.101   1.295   9.612  1.3408 -1.3498  1.3613
   72SLPC   H8S 6300   1.267   1.296   9.678  0.5705  2.1983  1.7587
   72SLPC   C29 6301   1.237   1.436   9.526 -0.0688 -0.1412  0.5056
   72SLPC   H9R 6302   1.333   1.483   9.548 -0.5821  1.5874 -0.7270
   72SLPC  C210 6303   1.183   1.448   9.405 -0.4653  0.3129 -0.5525
   72SLPC  H10R 6304   1.232   1.524   9.342  1.4382 -0.3532  0.0500
   72SLPC  C211 6305   1.051   1.392   9.357  0.3778  0.8634 -0.2840
   72SLPC  H11R 6306   0.972   1.466   9.332 -2.0723 -1.7557 -0.8549
   72SLPC  H11S 6307   0.999   1.335   9.437  0.7228  1.3244  0.2827
   72SLPC  C212 6308   1.083   1.307   9.232 -1.0539 -0.4862  0.8755
   72SLPC  H12R 6309   1.120   1.207   9.258 -0.0366  0.2179  2.2766
   72SLPC  C213 6310   1.080   1.340   9.099  0.1452 -0.0193 -0.8605
   72SLPC  H13R 6311   1.100   1.258   9.028 -1.3149  0.7792 -2.2520
   72SLPC  C214 6312   1.042   1.465   9.026 -0.5014 -0.0050  0.4422
   72SLPC  H14R 6313   0.971   1.531   9.081  1.5539  2.7617 -0.0370
   72SLPC  H14S 6314   1.001   1.443   8.925 -2.0788  3.5338  0.1551
   72SLPC  C215 6315   1.166   1.550   9.006  0.1085 -0.0054 -0.4660
   72SLPC  H15R 6316   1.217   1.498   8.922 -0.9105 -2.7211  0.4764
   72SLPC  H15S 6317   1.226   1.549   9.100 -0.2094  0.6854 -0.2465
   72SLPC  C216 6318   1.126   1.697   8.981 -0.0911 -0.8427  0.0175
   72SLPC  H16R 6319   1.090   1.741   9.076  2.2546 -1.1865  1.1377
   72SLPC  H16S 6320   1.052   1.699   8.898  0.7626 -0.9197 -0.7728
   72SLPC  C217 6321   1.259   1.778   8.949  0.7171 -0.0444 -0.3384
   72SLPC  H17R 6322   1.325   1.741   9.030  1.4965  0.5850 -0.6705
   72SLPC  H17S 6323   1.237   1.886   8.960 -0.5448 -0.4701  2.1291
   72SLPC  C218 6324   1.324   1.760   8.810 -0.3463 -0.0634 -0.5962
   72SLPC  H18R 6325   1.262   1.784   8.720 -0.6615  1.1923 -0.0586
   72SLPC  H18S 6326   1.349   1.652   8.795  0.6928  0.2551 -1.2612
   72SLPC  H18T 6327   1.418   1.818   8.809 -0.0312 -0.5689 -0.3544
   72SLPC   C33 6328   1.391   1.746  10.670 -0.1781  0.2647 -0.2376
   72SLPC   H3X 6329   1.496   1.753  10.632 -0.0886  0.6022  0.0725
   72SLPC   H3Y 6330   1.392   1.802  10.765 -2.6173  0.0121 -0.0104
   72SLPC   C34 6331   1.291   1.808  10.570 -0.0187  0.4767 -0.9116
   72SLPC   H4X 6332   1.307   1.917  10.591  0.1863  0.4045 -0.6839
   72SLPC   H4Y 6333   1.191   1.791  10.615 -0.4106  0.3499 -1.8038
   72SLPC   C35 6334   1.310   1.768  10.422  0.1870 -0.4410 -0.1901
   72SLPC   H5X 6335   1.295   1.659  10.407  1.2979 -1.1303  2.8716
   72SLPC   H5Y 6336   1.419   1.780  10.404 -0.0056 -2.2235 -3.3274
   72SLPC   C36 6337   1.236   1.857  10.333  0.4737 -0.3651  0.3037
   72SLPC   H6X 6338   1.226   1.955  10.383  0.4127  0.5362 -1.3847
   72SLPC   H6Y 6339   1.136   1.810  10.317  0.5358  0.7414 -5.6879
   72SLPC   C37 6340   1.296   1.875  10.193  0.5001  0.3734  0.6583
   72SLPC   H7X 6341   1.390   1.934  10.202  0.5484  0.8024 -1.8753
   72SLPC   H7Y 6342   1.229   1.936  10.128  0.2489 -0.1363  0.4349
   72SLPC   C38 6343   1.343   1.742  10.132 -0.1460 -0.2973  0.2921
   72SLPC   H8X 6344   1.266   1.665  10.111  0.5486 -0.1938 -3.2694
   72SLPC   H8Y 6345   1.412   1.686  10.200  1.7476 -1.8794 -2.6865
   72SLPC   C39 6346   1.410   1.751   9.994 -0.7387 -1.4726 -0.0040
   72SLPC   H9X 6347   1.433   1.654   9.945 -0.9302 -0.8388 -1.3962
   72SLPC   H9Y 6348   1.506   1.806  10.011 -1.2023 -0.3990 -0.7418
   72SLPC  C310 6349   1.320   1.842   9.895 -0.1352  0.4642 -0.2064
   72SLPC  H10X 6350   1.321   1.944   9.938 -2.3612  0.2423  0.4857
   72SLPC  H10Y 6351   1.213   1.814   9.901 -0.2172  0.6506 -0.7510
   72SLPC  C311 6352   1.375   1.826   9.766 -0.3288  0.0531  0.5704
   72SLPC  H11X 6353   1.354   1.723   9.730 -0.0781 -0.1417  0.9866
   72SLPC  H11Y 6354   1.484   1.842   9.757 -0.3259  1.3153  2.2159
   72SLPC  C312 6355   1.315   1.915   9.659 -0.0716  0.0258  0.4430
   72SLPC  H12X 6356   1.309   2.022   9.685 -0.4858  0.2820 -0.6548
   72SLPC  H12Y 6357   1.211   1.880   9.644 -1.0516  2.3255  1.4575
   72SLPC  C313 6358   1.408   1.911   9.525 -0.5608 -0.0740 -0.2995
   72SLPC  H13X 6359   1.501   1.967   9.553 -1.5261  1.3377  0.2174
   72SLPC  H13Y 6360   1.362   1.978   9.449  1.1611 -0.6723 -1.9467
   72SLPC  C314 6361   1.447   1.773   9.473  0.5824  1.4627 -0.0435
   72SLPC  H14X 6362   1.357   1.727   9.427  1.7046  0.6310 -1.5043
   72SLPC  H14Y 6363   1.482   1.706   9.554 -2.7452  0.6984  0.9054
   72SLPC  C315 6364   1.558   1.778   9.369 -0.0719 -0.2084 -0.1348
   72SLPC  H15X 6365   1.660   1.797   9.410  0.0809 -0.4914 -0.3712
   72SLPC  H15Y 6366   1.534   1.868   9.309 -3.4762 -0.7693  0.2146
   72SLPC  C316 6367   1.561   1.664   9.260 -0.1409 -1.3479 -0.0491
   72SLPC  H16X 6368   1.456   1.627   9.257 -1.2399  1.5978 -1.9077
   72SLPC  H16Y 6369   1.636   1.589   9.294  0.2959 -0.9533 -0.1287
   72SLPC  C317 6370   1.592   1.722   9.122  0.1056 -0.6828 -0.2329
   72SLPC  H17X 6371   1.523   1.807   9.102 -1.0503 -1.4396  0.4146
   72SLPC  H17Y 6372   1.567   1.652   9.039 -0.4108 -0.1459 -0.5444
   72SLPC  C318 6373   1.734   1.767   9.104 -0.2490  0.0586 -0.6069
   72SLPC  H18X 6374   1.807   1.690   9.073 -0.2304 -1.1195  2.0914
   72SLPC  H18Y 6375   1.772   1.806   9.202  1.9334 -2.2135 -0.4400
   72SLPC  H18Z 6376   1.748   1.848   9.029 -0.7494  0.5702 -0.1521
   73SLPC     N 6377   1.901   2.406  10.892  0.2259  0.1251 -0.7819
   73SLPC   C13 6378   1.991   2.283  10.859  0.0969 -0.3626 -0.3561
   73SLPC  H13A 6379   2.002   2.273  10.752  1.0654 -0.3614 -0.2696
   73SLPC  H13B 6380   2.089   2.292  10.903 -0.6428  0.7629  1.1490
   73SLPC  H13C 6381   1.943   2.195  10.897  0.5598  0.6405  2.7962
   73SLPC   C14 6382   1.971   2.538  10.868 -0.6379 -0.2516 -1.0009
   73SLPC  H14A 6383   2.026   2.520  10.776 -0.5521  0.3388 -1.0650
   73SLPC  H14B 6384   1.911   2.626  10.855  0.8594  1.5515  2.8109
   73SLPC  H14C 6385   2.040   2.552  10.950 -0.1189  1.0881 -1.6365
   73SLPC   C15 6386   1.866   2.404  11.037 -0.7310 -0.8738  0.2328
   73SLPC  H15A 6387   1.845   2.301  11.065 -2.5487 -0.1615  1.7346
   73SLPC  H15B 6388   1.950   2.439  11.094  0.0765 -2.3299 -0.0012
   73SLPC  H15C 6389   1.782   2.470  11.056 -0.7236 -0.7004 -0.3297
   73SLPC   C12 6390   1.763   2.394  10.829 -0.2623  0.4211  0.6577
   73SLPC  H12A 6391   1.780   2.386  10.722 -1.4767  0.5295  0.4468
   73SLPC  H12B 6392   1.708   2.486  10.843  0.0580  0.8853 -0.8830
   73SLPC   C11 6393   1.668   2.279  10.869  0.8465 -0.7519  0.0031
   73SLPC  H11A 6394   1.732   2.188  10.874  2.0003  0.1042  1.4079
   73SLPC  H11B 6395   1.586   2.261  10.795 -2.3400  1.1138  2.8035
   73SLPC     P 6396   1.497   2.372  11.024 -0.0854 -0.0829 -0.1102
   73SLPC   O13 6397   1.402   2.278  11.091 -0.0593  0.4565 -0.1651
   73SLPC   O14 6398   1.535   2.490  11.108  0.0755 -0.2113  0.3462
   73SLPC   O12 6399   1.622   2.290  11.001 -0.2595 -0.1182 -0.3747
   73SLPC   O11 6400   1.438   2.420  10.883 -0.3721  0.0689  0.3833
   73SLPC    C1 6401   1.351   2.326  10.807 -0.9964  0.3191  0.3751
   73SLPC    HA 6402   1.394   2.224  10.814  1.2494  1.2111  0.4712
   73SLPC    HB 6403   1.252   2.336  10.858 -0.7677  1.6213  0.6107
   73SLPC    C2 6404   1.353   2.371  10.661  0.2632  0.5065  0.3596
   73SLPC    HS 6405   1.455   2.352  10.620  0.1423  1.2142 -0.3171
   73SLPC   O21 6406   1.306   2.514  10.649  0.2337  0.8077  0.8008
   73SLPC   C21 6407   1.362   2.582  10.546 -0.6535  0.4750 -0.2101
   73SLPC   O22 6408   1.451   2.544  10.472 -0.2682 -0.1790 -0.2804
   73SLPC   C22 6409   1.296   2.719  10.538  0.0837 -0.2969 -0.0585
   73SLPC   H2R 6410   1.185   2.716  10.543  0.0827 -0.0586  0.0813
   73SLPC   H2S 6411   1.327   2.753  10.639 -0.6067  1.2700 -0.3383
   73SLPC    C3 6412   1.248   2.280  10.584 -0.3172  0.3544 -0.2622
   73SLPC    HX 6413   1.151   2.292  10.636  0.4846  1.3517  1.0466
   73SLPC    HY 6414   1.269   2.170  10.586 -0.0692  0.4102  0.2962
   73SLPC   O31 6415   1.236   2.322  10.447 -0.1147  0.5337 -0.0718
   73SLPC   C31 6416   1.330   2.277  10.363  0.2007 -0.4526  0.3320
   73SLPC   O32 6417   1.417   2.197  10.389  0.5616  0.3078  0.7415
   73SLPC   C32 6418   1.298   2.343  10.235 -0.6422  0.1694 -0.0811
   73SLPC   H2X 6419   1.286   2.450  10.263 -0.4131 -0.2499  1.6751
   73SLPC   H2Y 6420   1.194   2.319  10.205 -0.1317 -0.6368 -1.2940
   73SLPC   C23 6421   1.345   2.801  10.421  0.3694  0.1070 -0.5385
   73SLPC   H3R 6422   1.454   2.821  10.434  0.0882  2.9827 -1.7256
   73SLPC   H3S 6423   1.311   2.905  10.437 -0.2877 -0.2968  0.8013
   73SLPC   C24 6424   1.303   2.744  10.286  0.1504 -0.1521 -0.6082
   73SLPC   H4R 6425   1.195   2.727  10.273 -0.5527  1.6212  2.0921
   73SLPC   H4S 6426   1.367   2.656  10.265  1.3903  0.8364 -1.1439
   73SLPC   C25 6427   1.333   2.844  10.175  0.4395 -0.6864  0.2801
   73SLPC   H5R 6428   1.442   2.864  10.175  0.4285 -0.6117 -0.2028
   73SLPC   H5S 6429   1.290   2.944  10.198  1.4999 -0.3693  0.9072
   73SLPC   C26 6430   1.284   2.785  10.041 -0.4443 -0.2185 -0.7293
   73SLPC   H6R 6431   1.173   2.785  10.034 -0.4083  2.5814 -3.6583
   73SLPC   H6S 6432   1.323   2.681  10.034 -3.0475 -1.3614  0.3746
   73SLPC   C27 6433   1.338   2.857   9.916 -0.7729  0.0337  0.6192
   73SLPC   H7R 6434   1.448   2.854   9.934 -0.6507 -0.3289 -0.1585
   73SLPC   H7S 6435   1.313   2.965   9.912 -1.3013 -0.1031 -2.7903
   73SLPC   C28 6436   1.299   2.790   9.779 -0.2934  0.4003 -0.2913
   73SLPC   H8R 6437   1.188   2.794   9.783 -0.3146  2.3680 -1.4253
   73SLPC   H8S 6438   1.332   2.683   9.779 -1.7082 -0.1425  2.6241
   73SLPC   C29 6439   1.348   2.860   9.657  0.3091  0.5003 -0.0675
   73SLPC   H9R 6440   1.417   2.944   9.675 -0.7955  0.9770  2.5409
   73SLPC  C210 6441   1.315   2.823   9.524  0.2476 -0.0269  0.1776
   73SLPC  H10R 6442   1.341   2.887   9.439 -2.1508  0.1892 -0.4719
   73SLPC  C211 6443   1.217   2.708   9.503 -0.5706 -0.0181 -0.2942
   73SLPC  H11R 6444   1.111   2.741   9.502 -1.3934 -2.3767  1.1893
   73SLPC  H11S 6445   1.221   2.636   9.587  1.7438 -0.3632 -0.6503
   73SLPC  C212 6446   1.257   2.646   9.369 -0.6475 -0.3590  0.6478
   73SLPC  H12R 6447   1.335   2.569   9.376 -0.0282  0.3164  1.3816
   73SLPC  C213 6448   1.212   2.673   9.245  0.4876 -0.0936 -0.2182
   73SLPC  H13R 6449   1.244   2.610   9.161 -0.3099 -0.2474 -0.4065
   73SLPC  C214 6450   1.106   2.770   9.208 -0.5466 -0.8005 -0.5309
   73SLPC  H14R 6451   1.142   2.871   9.237 -1.4425 -0.5848 -0.1074
   73SLPC  H14S 6452   1.006   2.760   9.256 -0.0384 -0.1155  0.7240
   73SLPC  C215 6453   1.087   2.781   9.061 -0.1641  0.4294  0.1312
   73SLPC  H15R 6454   1.006   2.854   9.039 -1.3109 -1.4716 -2.4474
   73SLPC  H15S 6455   1.040   2.684   9.033 -0.1441  0.0029  1.5262
   73SLPC  C216 6456   1.210   2.826   8.989 -0.4119  0.3439  0.7127
   73SLPC  H16R 6457   1.288   2.747   8.991 -2.4359 -1.7766  3.1552
   73SLPC  H16S 6458   1.244   2.918   9.041 -0.2606 -0.3900  1.9394
   73SLPC  C217 6459   1.162   2.859   8.844 -0.6451 -0.4915 -0.1008
   73SLPC  H17R 6460   1.084   2.937   8.850  2.0052  2.3326 -0.0444
   73SLPC  H17S 6461   1.107   2.771   8.803 -1.0171 -1.1402  1.7203
   73SLPC  C218 6462   1.267   2.919   8.748  0.1000 -0.7718 -0.2995
   73SLPC  H18R 6463   1.347   2.985   8.786 -1.1499  1.0122 -0.6355
   73SLPC  H18S 6464   1.220   2.985   8.673  0.5598 -0.1413 -0.0407
   73SLPC  H18T 6465   1.322   2.839   8.694 -0.1689  0.7073 -2.8789
   73SLPC   C33 6466   1.392   2.309  10.114 -0.3926 -0.1913  0.6502
   73SLPC   H3X 6467   1.404   2.199  10.121  0.3369 -0.0884  1.1245
   73SLPC   H3Y 6468   1.493   2.352  10.133  0.3681 -2.4510  2.0818
   73SLPC   C34 6469   1.324   2.347   9.979 -0.3716  0.1592 -0.1775
   73SLPC   H4X 6470   1.304   2.456   9.989 -2.4848 -0.1874 -0.0357
   73SLPC   H4Y 6471   1.226   2.296   9.964 -0.3335 -0.1278  0.4880
   73SLPC   C35 6472   1.405   2.324   9.856 -0.0014  0.2734 -0.3085
   73SLPC   H5X 6473   1.456   2.225   9.859 -0.7415 -0.1121  1.8897
   73SLPC   H5Y 6474   1.481   2.404   9.856 -1.4904  1.7434 -0.3029
   73SLPC   C36 6475   1.311   2.325   9.740  0.0174 -0.4475  0.4473
   73SLPC   H6X 6476   1.244   2.413   9.747 -0.8010 -1.0491  0.2727
   73SLPC   H6Y 6477   1.250   2.234   9.757  1.6571 -1.8638 -0.8799
   73SLPC   C37 6478   1.379   2.308   9.600 -0.2503 -0.3838 -0.4376
   73SLPC   H7X 6479   1.453   2.226   9.613 -0.1476 -0.4516 -1.3702
   73SLPC   H7Y 6480   1.428   2.405   9.574 -2.4564  1.3004  1.2166
   73SLPC   C38 6481   1.277   2.287   9.491  0.2615 -0.2283 -0.4993
   73SLPC   H8X 6482   1.214   2.379   9.490 -2.0889 -1.7308  0.4348
   73SLPC   H8Y 6483   1.205   2.206   9.517  1.0670 -0.7842  0.0352
   73SLPC   C39 6484   1.337   2.276   9.351 -0.0648 -0.1177 -0.2519
   73SLPC   H9X 6485   1.438   2.232   9.367 -0.0130  0.2471  0.4711
   73SLPC   H9Y 6486   1.357   2.377   9.308 -0.5679  0.9200  1.8263
   73SLPC  C310 6487   1.246   2.187   9.258 -0.5669 -0.0904  0.4590
   73SLPC  H10X 6488   1.147   2.236   9.268  0.5280  1.9643  1.8753
   73SLPC  H10Y 6489   1.246   2.082   9.293 -3.7387 -0.5801 -0.6992
   73SLPC  C311 6490   1.280   2.186   9.108  0.1023 -0.7389 -0.2900
   73SLPC  H11X 6491   1.209   2.123   9.049 -0.3866  1.8059 -2.6360
   73SLPC  H11Y 6492   1.380   2.143   9.084 -0.3327 -1.5891 -0.6584
   73SLPC  C312 6493   1.275   2.320   9.030 -0.7626 -0.4431 -0.1876
   73SLPC  H12X 6494   1.335   2.386   9.096 -0.8786  1.9106 -2.2643
   73SLPC  H12Y 6495   1.170   2.352   9.047 -0.1043  1.6663  0.1601
   73SLPC  C313 6496   1.311   2.310   8.881  0.0069 -0.2533 -0.0370
   73SLPC  H13X 6497   1.381   2.224   8.869 -0.2031 -0.5650  0.9356
   73SLPC  H13Y 6498   1.359   2.405   8.850  1.2984 -0.9955 -0.4313
   73SLPC  C314 6499   1.192   2.285   8.787 -0.7528  0.2401 -0.1220
   73SLPC  H14X 6500   1.119   2.214   8.831 -1.6875  2.3778  1.9697
   73SLPC  H14Y 6501   1.233   2.234   8.697  0.3341 -0.9749  1.0151
   73SLPC  C315 6502   1.116   2.414   8.759 -0.0457  0.4288 -0.6682
   73SLPC  H15X 6503   1.183   2.472   8.692  1.0671 -1.0654 -0.9237
   73SLPC  H15Y 6504   1.108   2.476   8.850  2.1719  1.3709 -1.0517
   73SLPC  C316 6505   0.980   2.387   8.692 -0.6009 -0.1414 -0.1303
   73SLPC  H16X 6506   0.922   2.322   8.761 -2.2726  1.9291  0.5280
   73SLPC  H16Y 6507   0.992   2.331   8.597 -0.3740 -0.3598  0.0271
   73SLPC  C317 6508   0.897   2.513   8.659 -0.1837 -0.4139 -0.8195
   73SLPC  H17X 6509   0.959   2.572   8.588  1.6085 -1.0201  0.1796
   73SLPC  H17Y 6510   0.886   2.575   8.751  2.2368  1.5813 -1.7752
   73SLPC  C318 6511   0.755   2.487   8.601 -0.0606  0.0844  0.8247
   73SLPC  H18X 6512   0.697   2.577   8.570 -1.7016 -1.4843 -0.9023
   73SLPC  H18Y 6513   0.686   2.434   8.670 -0.3873  2.6834  2.6695
   73SLPC  H18Z 6514   0.758   2.424   8.510  1.5088  1.2800 -0.0156
   74SLPC     N 6515   5.059   4.760  10.935 -0.1393  0.6597  0.1673
   74SLPC   C13 6516   4.952   4.661  10.882 -0.5983 -0.1134 -0.2876
   74SLPC  H13A 6517   4.927   4.587  10.956 -2.3070  0.8690  0.1749
   74SLPC  H13B 6518   4.864   4.718  10.858 -0.4919 -0.2488 -1.0043
   74SLPC  H13C 6519   4.998   4.620  10.793  1.7485  1.5511  0.0514
   74SLPC   C14 6520   5.186   4.715  10.891 -0.1339  0.6672  0.3732
   74SLPC  H14A 6521   5.268   4.772  10.932  0.4450 -0.2309  0.5017
   74SLPC  H14B 6522   5.207   4.613  10.921  0.8350  1.2817  1.9083
   74SLPC  H14C 6523   5.195   4.713  10.784  2.6809 -1.4908  0.5154
   74SLPC   C15 6524   5.058   4.751  11.089 -0.1597  0.2427 -0.1840
   74SLPC  H15A 6525   5.058   4.652  11.134 -0.8040 -0.6893 -2.1172
   74SLPC  H15B 6526   5.144   4.800  11.133  1.1322 -2.2727  0.3073
   74SLPC  H15C 6527   4.974   4.807  11.127  0.2961  1.5543 -1.0226
   74SLPC   C12 6528   5.026   4.906  10.897  0.3929  0.1384  0.0481
   74SLPC  H12A 6529   5.033   4.921  10.790 -0.4882  0.7296  0.0618
   74SLPC  H12B 6530   5.106   4.968  10.936  1.5321 -0.7680 -0.7499
   74SLPC   C11 6531   4.897   4.972  10.943 -0.5766 -0.4727 -0.0989
   74SLPC  H11A 6532   4.898   5.079  10.914  0.5295 -0.7265 -1.1122
   74SLPC  H11B 6533   4.910   4.962  11.053  2.0420 -3.0205 -0.5332
   74SLPC     P 6534   4.700   4.924  10.774 -0.2313  0.0522 -0.1676
   74SLPC   O13 6535   4.712   4.797  10.700 -0.1192  0.0244  0.5071
   74SLPC   O14 6536   4.567   4.976  10.811  0.3087  0.1863 -0.0344
   74SLPC   O12 6537   4.780   4.907  10.908 -0.1514  1.2441  0.0543
   74SLPC   O11 6538   4.784   5.035  10.700 -0.4202  0.1423  0.1273
   74SLPC    C1 6539   4.717   5.151  10.645  0.3268  0.0179 -0.0503
   74SLPC    HA 6540   4.631   5.119  10.582  0.0765 -1.9496  1.1881
   74SLPC    HB 6541   4.674   5.213  10.726  0.3333 -1.3584  1.0262
   74SLPC    C2 6542   4.811   5.245  10.567 -0.3195  0.3993 -0.3187
   74SLPC    HS 6543   4.746   5.321  10.519  0.3098 -0.9131 -3.5526
   74SLPC   O21 6544   4.881   5.170  10.465  0.4920 -0.1982 -0.2790
   74SLPC   C21 6545   4.801   5.146  10.362  0.0775  0.6389  0.7692
   74SLPC   O22 6546   4.700   5.209  10.335  0.3259 -0.1431  0.0278
   74SLPC   C22 6547   4.840   5.009  10.297 -0.1009  0.5389 -0.5816
   74SLPC   H2R 6548   4.942   4.988  10.335  0.7312  0.4944 -2.6982
   74SLPC   H2S 6549   4.775   4.931  10.342 -1.8463  3.4109  2.2469
   74SLPC    C3 6550   4.918   5.310  10.657  0.5756  0.3676  0.3297
   74SLPC    HX 6551   4.989   5.235  10.699  1.3428  1.4865  1.0715
   74SLPC    HY 6552   4.874   5.348  10.751  0.5069  1.4302 -0.1222
   74SLPC   O31 6553   4.998   5.403  10.580 -0.4314 -0.1516 -0.4702
   74SLPC   C31 6554   4.945   5.521  10.561 -0.5288  0.2733 -0.3849
   74SLPC   O32 6555   4.840   5.554  10.615 -0.4888 -0.8224  0.5480
   74SLPC   C32 6556   5.020   5.603  10.463 -0.2558 -0.4934  0.1576
   74SLPC   H2X 6557   4.957   5.601  10.372 -2.3706  0.9614  1.5092
   74SLPC   H2Y 6558   5.115   5.556  10.431  0.5879 -0.8255  2.9170
   74SLPC   C23 6559   4.838   4.996  10.143 -0.7918  0.9624 -0.5351
   74SLPC   H3R 6560   4.896   4.907  10.111  0.5387  1.8646 -0.7082
   74SLPC   H3S 6561   4.881   5.080  10.085  0.0215  0.2067 -1.0507
   74SLPC   C24 6562   4.692   4.977  10.094  0.4732  0.5650 -0.4407
   74SLPC   H4R 6563   4.626   5.064  10.110 -0.4220 -0.5467  2.8099
   74SLPC   H4S 6564   4.638   4.903  10.157 -4.9930  1.3762 -3.5725
   74SLPC   C25 6565   4.678   4.937   9.948 -0.4193  0.4535  0.2212
   74SLPC   H5R 6566   4.748   4.852   9.933 -1.2770 -0.1974 -0.1803
   74SLPC   H5S 6567   4.713   5.016   9.878  0.5913  1.1259  1.4391
   74SLPC   C26 6568   4.540   4.887   9.908  0.2805  0.2004 -1.1468
   74SLPC   H6R 6569   4.458   4.953   9.944 -2.7791 -2.8244 -1.9611
   74SLPC   H6S 6570   4.522   4.788   9.956 -0.2163  0.2454 -1.2339
   74SLPC   C27 6571   4.543   4.849   9.762 -0.4595  0.1310 -0.1391
   74SLPC   H7R 6572   4.611   4.761   9.768 -1.0445 -0.3574 -0.6428
   74SLPC   H7S 6573   4.599   4.933   9.715 -0.3835  0.3963  0.4096
   74SLPC   C28 6574   4.418   4.805   9.688 -0.1651  0.2447 -0.0693
   74SLPC   H8R 6575   4.351   4.892   9.672 -1.0125 -0.3683  0.0706
   74SLPC   H8S 6576   4.358   4.732   9.747 -0.2785  0.7487  0.4456
   74SLPC   C29 6577   4.463   4.729   9.568 -0.0273 -0.2253  1.0372
   74SLPC   H9R 6578   4.480   4.621   9.585 -0.7178  0.0085  3.7954
   74SLPC  C210 6579   4.483   4.775   9.444  0.2936  0.2609  0.4670
   74SLPC  H10R 6580   4.529   4.709   9.370  1.9971  0.4400  1.3150
   74SLPC  C211 6581   4.459   4.924   9.398  0.6974 -0.4360 -0.1529
   74SLPC  H11R 6582   4.467   4.984   9.491  0.4450 -0.3946 -0.1566
   74SLPC  H11S 6583   4.356   4.935   9.358  0.7394 -0.2889 -0.2203
   74SLPC  C212 6584   4.556   4.979   9.300  0.3245 -0.4991 -0.1474
   74SLPC  H12R 6585   4.655   4.997   9.344  0.2815  1.5996 -0.8199
   74SLPC  C213 6586   4.535   4.998   9.173 -0.7578  0.0192  0.5640
   74SLPC  H13R 6587   4.613   5.040   9.108 -0.3686  0.9574  1.6019
   74SLPC  C214 6588   4.416   4.957   9.096  0.1261 -0.0527  0.0906
   74SLPC  H14R 6589   4.328   5.006   9.144 -0.3093  1.3044 -1.9614
   74SLPC  H14S 6590   4.401   4.847   9.102 -0.5860 -0.1120 -1.8786
   74SLPC  C215 6591   4.404   4.988   8.952  0.0173 -0.7291  0.5356
   74SLPC  H15R 6592   4.480   4.925   8.902 -0.1101 -0.0477 -0.5529
   74SLPC  H15S 6593   4.428   5.096   8.946  3.8007 -1.4766 -1.0176
   74SLPC  C216 6594   4.280   4.956   8.869 -0.6562 -0.5163  0.2744
   74SLPC  H16R 6595   4.199   4.994   8.934 -0.1732  0.0250  0.5657
   74SLPC  H16S 6596   4.264   4.850   8.840 -3.1508 -0.2373  0.3789
   74SLPC  C217 6597   4.272   5.047   8.748 -0.7475  0.1505 -0.0298
   74SLPC  H17R 6598   4.363   5.010   8.695 -0.2024  0.1835  0.8624
   74SLPC  H17S 6599   4.306   5.150   8.771 -2.4517  0.8106 -0.3070
   74SLPC  C218 6600   4.138   5.041   8.674  0.0874 -0.1803  0.4178
   74SLPC  H18R 6601   4.097   4.940   8.656  0.1951 -0.1467 -0.0287
   74SLPC  H18S 6602   4.164   5.091   8.578  0.3914 -0.8435  0.1516
   74SLPC  H18T 6603   4.059   5.101   8.724  0.8243  1.5194 -0.3587
   74SLPC   C33 6604   5.026   5.752  10.510 -0.1145 -0.3443 -0.0045
   74SLPC   H3X 6605   5.095   5.756  10.597  0.3897  0.4388 -0.4244
   74SLPC   H3Y 6606   4.925   5.782  10.543  0.0808 -0.8584  1.0866
   74SLPC   C34 6607   5.066   5.867  10.410 -0.0146  0.1757  0.9237
   74SLPC   H4X 6608   5.162   5.845  10.359  0.4699  1.8208  1.0665
   74SLPC   H4Y 6609   5.076   5.972  10.444 -1.5639  0.2874  1.1000
   74SLPC   C35 6610   4.966   5.877  10.290 -0.9421  0.0392  0.1791
   74SLPC   H5X 6611   4.867   5.901  10.336 -0.9746  1.7564 -0.7265
   74SLPC   H5Y 6612   4.946   5.777  10.245 -1.2742  0.9522 -1.7592
   74SLPC   C36 6613   5.005   5.976  10.183 -0.0796  0.2791 -0.2777
   74SLPC   H6X 6614   5.104   5.950  10.141 -0.3291  0.2366 -0.8500
   74SLPC   H6Y 6615   5.026   6.076  10.227 -0.5499  0.5169 -0.5884
   74SLPC   C37 6616   4.887   6.000  10.085  0.3859 -0.9347  0.9425
   74SLPC   H7X 6617   4.891   6.103  10.045 -1.1257 -0.6379  1.5115
   74SLPC   H7Y 6618   4.793   6.002  10.144  0.0606  0.2170  0.4145
   74SLPC   C38 6619   4.883   5.889   9.983  0.3169  0.2086  0.1647
   74SLPC   H8X 6620   4.875   5.787  10.026  2.6858  0.7707  2.1673
   74SLPC   H8Y 6621   4.979   5.884   9.926  0.9042  1.1397  1.0523
   74SLPC   C39 6622   4.774   5.897   9.883 -0.3068 -0.9960 -0.3495
   74SLPC   H9X 6623   4.806   5.978   9.814  1.7775 -0.4629  1.1276
   74SLPC   H9Y 6624   4.676   5.931   9.923  0.1467  2.7772 -2.0528
   74SLPC  C310 6625   4.748   5.779   9.798 -0.0403  0.0124 -0.2030
   74SLPC  H10X 6626   4.699   5.691   9.846 -1.8955 -1.2519 -4.0536
   74SLPC  H10Y 6627   4.841   5.727   9.766 -1.5441 -2.1671 -1.2439
   74SLPC  C311 6628   4.668   5.814   9.674 -0.6322  0.1678 -0.0735
   74SLPC  H11X 6629   4.726   5.889   9.616 -0.1249  0.1507  0.4058
   74SLPC  H11Y 6630   4.575   5.865   9.707 -0.1421  0.8957  0.2054
   74SLPC  C312 6631   4.617   5.698   9.590 -0.1837 -0.4889 -0.0877
   74SLPC  H12X 6632   4.560   5.628   9.654 -0.1027  1.9680  2.8584
   74SLPC  H12Y 6633   4.705   5.641   9.552 -0.5651 -1.3386  0.2690
   74SLPC  C313 6634   4.528   5.749   9.473 -0.2723  0.3748 -0.3075
   74SLPC  H13X 6635   4.576   5.829   9.413  0.9938 -1.5688 -2.0077
   74SLPC  H13Y 6636   4.432   5.795   9.506 -0.8100  0.9439 -2.5399
   74SLPC  C314 6637   4.483   5.640   9.378 -0.3195 -0.1592  0.1588
   74SLPC  H14X 6638   4.419   5.564   9.426  1.4584 -1.8949 -0.0901
   74SLPC  H14Y 6639   4.571   5.577   9.351 -0.3084 -0.0474 -0.0749
   74SLPC  C315 6640   4.414   5.691   9.247 -0.5180  0.0720  0.2432
   74SLPC  H15X 6641   4.471   5.776   9.204 -0.5487  0.7547  1.4867
   74SLPC  H15Y 6642   4.313   5.728   9.273 -0.1832  0.7939  0.5420
   74SLPC  C316 6643   4.383   5.583   9.141 -0.8253  0.1215  0.5798
   74SLPC  H16X 6644   4.319   5.636   9.067  0.3971 -1.0250 -1.3847
   74SLPC  H16Y 6645   4.311   5.510   9.184 -0.0318 -0.2376  1.3210
   74SLPC  C317 6646   4.497   5.502   9.080 -0.9162 -0.7253  0.2725
   74SLPC  H17X 6647   4.472   5.407   9.028  0.7678  0.3738 -2.7984
   74SLPC  H17Y 6648   4.566   5.477   9.163 -0.1344  1.0769  0.2120
   74SLPC  C318 6649   4.570   5.584   8.971 -0.1615 -0.4771 -0.3374
   74SLPC  H18X 6650   4.642   5.518   8.919  1.1834 -1.1856  2.2566
   74SLPC  H18Y 6651   4.619   5.678   9.001  1.3040 -1.3162 -0.0188
   74SLPC  H18Z 6652   4.489   5.609   8.899 -0.9144 -2.1153 -0.1109
   75SLPC     N 6653   0.954   3.372   6.368  0.0850  0.0958  0.3110
   75SLPC   C13 6654   0.964   3.487   6.464  0.0427 -0.4219 -0.3363
   75SLPC  H13A 6655   0.971   3.576   6.403  1.3201 -1.0184 -1.1072
   75SLPC  H13B 6656   0.878   3.490   6.529  0.2819  0.0266 -0.0322
   75SLPC  H13C 6657   1.050   3.476   6.529  0.0188  0.4816 -0.1375
   75SLPC   C14 6658   0.867   3.420   6.263 -0.1508  0.2969 -0.0907
   75SLPC  H14A 6659   0.886   3.522   6.233 -1.2589  0.8058  0.8422
   75SLPC  H14B 6660   0.869   3.349   6.182  1.7265 -0.8536  0.8961
   75SLPC  H14C 6661   0.768   3.429   6.304  0.5683  0.2816  1.7582
   75SLPC   C15 6662   0.905   3.255   6.441  0.6580 -0.6600 -0.7466
   75SLPC  H15A 6663   0.969   3.235   6.527 -1.9776  1.6315  1.9602
   75SLPC  H15B 6664   0.809   3.265   6.488  1.1888  1.5073 -0.0420
   75SLPC  H15C 6665   0.902   3.165   6.382 -2.9386 -1.6176  0.6131
   75SLPC   C12 6666   1.093   3.337   6.310  0.4365  0.7051  0.0363
   75SLPC  H12A 6667   1.150   3.296   6.391  1.1698 -0.3479 -0.9787
   75SLPC  H12B 6668   1.137   3.432   6.284  1.3597  0.9723  2.3879
   75SLPC   C11 6669   1.095   3.226   6.193  0.8490 -0.3512  0.3928
   75SLPC  H11A 6670   1.197   3.234   6.150  0.8505  1.9743  0.6889
   75SLPC  H11B 6671   1.033   3.250   6.104  3.3985  0.5601 -1.2329
   75SLPC     P 6672   1.161   3.004   6.339  0.3453  0.0896 -0.0468
   75SLPC   O13 6673   1.059   2.937   6.424  0.3903 -0.0727 -0.2618
   75SLPC   O14 6674   1.262   2.922   6.269 -0.2755 -0.2978  0.1316
   75SLPC   O12 6675   1.070   3.097   6.241  0.1456  0.0050 -0.2539
   75SLPC   O11 6676   1.222   3.111   6.440 -0.2474  0.1845  0.1561
   75SLPC    C1 6677   1.364   3.150   6.425  0.5719  0.2050 -0.4034
   75SLPC    HA 6678   1.416   3.118   6.333  0.8482 -3.4164  0.8564
   75SLPC    HB 6679   1.365   3.261   6.430  0.5317  0.2591 -1.5352
   75SLPC    C2 6680   1.453   3.104   6.549  0.5413  0.2845 -0.2401
   75SLPC    HS 6681   1.464   2.993   6.545  0.2578  0.2013  0.9167
   75SLPC   O21 6682   1.390   3.141   6.674 -0.2316 -0.4477  0.6813
   75SLPC   C21 6683   1.374   3.044   6.766  0.7575 -0.3314  0.5332
   75SLPC   O22 6684   1.406   2.929   6.755 -0.2691 -0.2160  0.1068
   75SLPC   C22 6685   1.316   3.107   6.887  1.0504 -1.1160 -0.1383
   75SLPC   H2R 6686   1.211   3.140   6.868  1.1618 -1.1930 -0.9412
   75SLPC   H2S 6687   1.320   3.032   6.969  1.5129 -3.2170 -1.9772
   75SLPC    C3 6688   1.599   3.152   6.540 -0.3631 -0.3266 -0.8779
   75SLPC    HX 6689   1.605   3.259   6.512  3.7398 -0.3813 -0.8337
   75SLPC    HY 6690   1.636   3.097   6.450  1.0842  1.2794 -1.3174
   75SLPC   O31 6691   1.678   3.119   6.657  0.2881  0.9052 -0.0170
   75SLPC   C31 6692   1.750   3.002   6.647 -0.0336 -0.3185  0.3637
   75SLPC   O32 6693   1.743   2.925   6.551 -0.0740 -0.5042 -0.1317
   75SLPC   C32 6694   1.820   2.965   6.777  0.5936 -0.8244  0.5579
   75SLPC   H2X 6695   1.829   3.059   6.835 -0.5243 -1.5864  2.0221
   75SLPC   H2Y 6696   1.928   2.947   6.758  0.6339 -0.6658  0.6368
   75SLPC   C23 6697   1.396   3.229   6.951  0.2808  0.7114  0.4061
   75SLPC   H3R 6698   1.333   3.283   7.026 -0.7090  2.9981 -1.9081
   75SLPC   H3S 6699   1.413   3.307   6.873 -1.3056  1.2366  0.5413
   75SLPC   C24 6700   1.530   3.166   7.007 -0.0383 -0.7385  0.2068
   75SLPC   H4R 6701   1.584   3.129   6.917  1.7429 -0.7099  1.2174
   75SLPC   H4S 6702   1.522   3.087   7.084  2.4224  1.2131  2.6802
   75SLPC   C25 6703   1.616   3.286   7.069 -0.1517 -0.8557  0.1144
   75SLPC   H5R 6704   1.548   3.330   7.145 -1.5905  0.0748 -1.6180
   75SLPC   H5S 6705   1.633   3.362   6.990 -0.5724 -1.5108 -0.6258
   75SLPC   C26 6706   1.737   3.241   7.156  0.1692  0.1040  0.8390
   75SLPC   H6R 6707   1.803   3.329   7.175 -0.5560  0.5429  1.3531
   75SLPC   H6S 6708   1.798   3.178   7.088  1.3050  0.9776  1.0235
   75SLPC   C27 6709   1.694   3.156   7.282  0.2871 -0.0655 -0.1709
   75SLPC   H7R 6710   1.787   3.113   7.326 -0.6059 -0.9782  0.8745
   75SLPC   H7S 6711   1.623   3.073   7.261  0.2092 -0.3774  1.2183
   75SLPC   C28 6712   1.624   3.247   7.388  0.5544  0.2893 -0.1863
   75SLPC   H8R 6713   1.531   3.282   7.338  1.3257  1.9951 -0.4792
   75SLPC   H8S 6714   1.694   3.331   7.406 -0.9143  1.6591 -0.6870
   75SLPC   C29 6715   1.598   3.161   7.516  0.5699 -0.5148 -0.3398
   75SLPC   H9R 6716   1.519   3.086   7.501 -0.3524 -0.0219  1.6684
   75SLPC  C210 6717   1.657   3.176   7.635  0.4177 -0.0282  0.0517
   75SLPC  H10R 6718   1.641   3.102   7.715 -1.5641 -1.7079 -1.7673
   75SLPC  C211 6719   1.762   3.283   7.673  0.7528  0.1590 -0.1914
   75SLPC  H11R 6720   1.719   3.385   7.682 -0.9452 -0.5117 -0.3964
   75SLPC  H11S 6721   1.834   3.304   7.590  1.4090 -0.2008  0.2796
   75SLPC  C212 6722   1.832   3.250   7.802  0.4946 -0.6987  0.1466
   75SLPC  H12R 6723   1.941   3.254   7.797  0.5104 -0.1837  0.8162
   75SLPC  C213 6724   1.773   3.243   7.923  0.4195 -0.2475  0.3540
   75SLPC  H13R 6725   1.841   3.214   8.004  2.9466  1.9524 -0.8293
   75SLPC  C214 6726   1.631   3.263   7.960  0.2585 -0.4300 -0.1427
   75SLPC  H14R 6727   1.561   3.286   7.877 -0.5721  2.0520  1.1518
   75SLPC  H14S 6728   1.634   3.358   8.017 -1.4707 -1.4401  1.7967
   75SLPC  C215 6729   1.560   3.156   8.037  0.2528 -0.2395 -0.5561
   75SLPC  H15R 6730   1.572   3.051   8.005 -0.6942 -0.7274  0.6115
   75SLPC  H15S 6731   1.454   3.187   8.030  0.7685  1.4456 -1.8130
   75SLPC  C216 6732   1.620   3.157   8.181  0.0411  0.1219 -0.1874
   75SLPC  H16R 6733   1.607   3.260   8.221 -1.5475 -0.5441  1.1307
   75SLPC  H16S 6734   1.727   3.133   8.163  0.3715  2.5735 -2.0491
   75SLPC  C217 6735   1.555   3.054   8.274 -0.1882 -0.7707  0.4041
   75SLPC  H17R 6736   1.595   3.055   8.378  0.2320 -1.7863  0.2636
   75SLPC  H17S 6737   1.584   2.953   8.237 -1.1292 -1.2313  0.9126
   75SLPC  C218 6738   1.405   3.059   8.278  0.2511 -0.5144  0.0366
   75SLPC  H18R 6739   1.357   2.982   8.343 -1.1191  0.0939 -0.2050
   75SLPC  H18S 6740   1.371   3.039   8.174  1.5714 -1.3699 -0.2485
   75SLPC  H18T 6741   1.363   3.158   8.308 -0.2260 -0.4867 -0.7089
   75SLPC   C33 6742   1.747   2.859   6.867 -0.1832  0.2638 -0.2482
   75SLPC   H3X 6743   1.640   2.890   6.866  0.6279  3.3300 -0.6198
   75SLPC   H3Y 6744   1.755   2.756   6.825 -1.2512  0.4258 -0.9028
   75SLPC   C34 6745   1.787   2.866   7.018  0.2727 -0.2550  0.0664
   75SLPC   H4X 6746   1.773   2.971   7.049  0.5973  0.1048 -0.9866
   75SLPC   H4Y 6747   1.895   2.846   7.036  0.1182 -1.4732 -0.2659
   75SLPC   C35 6748   1.709   2.783   7.114  0.7675  0.5715 -0.4949
   75SLPC   H5X 6749   1.706   2.677   7.083 -1.1003  0.6121 -0.5645
   75SLPC   H5Y 6750   1.604   2.818   7.124 -0.3432 -2.5281 -0.4699
   75SLPC   C36 6751   1.767   2.796   7.260 -0.1435 -0.1419 -0.0417
   75SLPC   H6X 6752   1.782   2.904   7.280 -0.8260 -0.0425 -0.0369
   75SLPC   H6Y 6753   1.864   2.744   7.270  0.0651  0.2144 -0.1900
   75SLPC   C37 6754   1.663   2.762   7.368  0.1808 -0.4233 -0.9045
   75SLPC   H7X 6755   1.635   2.655   7.369  2.5404 -1.1091  0.8571
   75SLPC   H7Y 6756   1.577   2.827   7.345  1.0579  0.4101 -1.9380
   75SLPC   C38 6757   1.710   2.806   7.505 -0.1848  0.5347 -0.4657
   75SLPC   H8X 6758   1.763   2.903   7.497 -0.0093  0.4549 -0.2844
   75SLPC   H8Y 6759   1.784   2.734   7.547 -1.4414 -1.2851 -1.2416
   75SLPC   C39 6760   1.592   2.808   7.602  0.0384  0.3288  0.6278
   75SLPC   H9X 6761   1.515   2.735   7.569  0.6613  0.6016 -1.6018
   75SLPC   H9Y 6762   1.539   2.906   7.602 -0.6891  0.0815  4.2479
   75SLPC  C310 6763   1.633   2.775   7.749 -0.8367  0.1799 -0.4255
   75SLPC  H10X 6764   1.712   2.846   7.782 -0.9599  0.0798  0.0916
   75SLPC  H10Y 6765   1.687   2.678   7.744  1.0596  1.0778  1.0251
   75SLPC  C311 6766   1.531   2.766   7.855 -0.0007 -0.2682 -0.5221
   75SLPC  H11X 6767   1.455   2.690   7.826 -1.1413  0.5990  0.1148
   75SLPC  H11Y 6768   1.476   2.863   7.861  0.8423  0.2178 -0.4343
   75SLPC  C312 6769   1.591   2.720   7.985  0.0250  1.2929 -0.6362
   75SLPC  H12X 6770   1.651   2.802   8.030 -0.3665  1.3566 -0.2180
   75SLPC  H12Y 6771   1.650   2.626   7.987 -0.8604  0.7289  1.3735
   75SLPC  C313 6772   1.484   2.682   8.090  0.1308  0.7039  0.0323
   75SLPC  H13X 6773   1.435   2.590   8.052  0.2624  0.3480  0.7064
   75SLPC  H13Y 6774   1.426   2.776   8.095  0.7433  1.0808  0.1184
   75SLPC  C314 6775   1.538   2.646   8.227  0.4839 -0.3238  0.7983
   75SLPC  H14X 6776   1.582   2.737   8.274 -1.7530  1.5515 -0.5721
   75SLPC  H14Y 6777   1.616   2.568   8.213 -0.2546 -0.7476 -1.3283
   75SLPC  C315 6778   1.429   2.595   8.325  0.9290 -0.1067 -0.2998
   75SLPC  H15X 6779   1.356   2.540   8.262 -0.2900  0.6838  0.3887
   75SLPC  H15Y 6780   1.372   2.680   8.368 -0.5373  0.0488 -2.3579
   75SLPC  C316 6781   1.489   2.512   8.445  0.2389 -0.1905 -0.9636
   75SLPC  H16X 6782   1.540   2.424   8.399  0.5071 -0.4556 -0.1711
   75SLPC  H16Y 6783   1.403   2.470   8.501  0.1351 -0.5623 -1.3933
   75SLPC  C317 6784   1.581   2.585   8.546 -0.4049  1.3670 -0.3340
   75SLPC  H17X 6785   1.517   2.665   8.590 -1.6658 -0.2340  0.8444
   75SLPC  H17Y 6786   1.661   2.616   8.476 -0.0043 -0.1358 -0.5667
   75SLPC  C318 6787   1.651   2.487   8.650  1.0414  0.6759  0.0715
   75SLPC  H18X 6788   1.712   2.417   8.588  2.2951 -0.0777  2.0700
   75SLPC  H18Y 6789   1.571   2.429   8.701  3.4679 -2.2740  0.8086
   75SLPC  H18Z 6790   1.714   2.546   8.719 -0.0214  0.9756  0.8091
   76SLPC     N 6791   3.506   6.060   6.324 -0.6143 -0.4990  0.4761
   76SLPC   C13 6792   3.550   5.976   6.442 -0.5611  0.1907  0.2564
   76SLPC  H13A 6793   3.622   5.898   6.422 -0.2105  0.5889 -0.0332
   76SLPC  H13B 6794   3.602   6.035   6.517  1.2285 -0.2725 -0.5669
   76SLPC  H13C 6795   3.465   5.933   6.494 -0.2259  1.2223  1.7210
   76SLPC   C14 6796   3.630   6.104   6.253 -0.3320 -0.3332  0.2562
   76SLPC  H14A 6797   3.609   6.176   6.174  3.3211  1.3350  0.5817
   76SLPC  H14B 6798   3.695   6.152   6.325  2.2174  0.8802 -2.6196
   76SLPC  H14C 6799   3.684   6.024   6.204 -0.3228 -0.1843  0.0206
   76SLPC   C15 6800   3.412   6.170   6.367 -0.2470 -0.5311 -0.8283
   76SLPC  H15A 6801   3.457   6.237   6.439 -1.3090  2.2108 -2.5774
   76SLPC  H15B 6802   3.365   6.230   6.290 -1.7565  0.4420  0.7670
   76SLPC  H15C 6803   3.337   6.119   6.426 -1.7156 -0.1597 -2.2879
   76SLPC   C12 6804   3.423   5.969   6.231  0.5963  0.0070  0.3376
   76SLPC  H12A 6805   3.487   5.892   6.190  0.0899 -0.6264  0.7053
   76SLPC  H12B 6806   3.395   6.020   6.140 -0.0135  0.4963  0.7915
   76SLPC   C11 6807   3.296   5.905   6.285 -0.0147  0.6240  0.7978
   76SLPC  H11A 6808   3.256   5.836   6.207 -0.8104 -1.3966  2.8470
   76SLPC  H11B 6809   3.215   5.981   6.284  1.1966  1.9608 -0.6050
   76SLPC     P 6810   3.204   5.747   6.478  0.5607  0.4009 -0.0355
   76SLPC   O13 6811   3.175   5.629   6.395  0.0954  0.3278  0.1707
   76SLPC   O14 6812   3.242   5.718   6.619 -0.0576  0.3367 -0.4368
   76SLPC   O12 6813   3.319   5.834   6.409  0.4700  0.6198  0.5166
   76SLPC   O11 6814   3.088   5.860   6.472 -1.2826  0.3418  0.8472
   76SLPC    C1 6815   3.115   5.981   6.551 -0.3305 -0.0951 -0.1999
   76SLPC    HA 6816   3.220   6.001   6.581 -0.5976 -0.0019  0.7055
   76SLPC    HB 6817   3.094   6.065   6.482 -0.4727  0.2224  0.2258
   76SLPC    C2 6818   3.017   5.998   6.670 -0.0383 -0.6279  0.0996
   76SLPC    HS 6819   3.040   6.096   6.717  2.7612 -2.5440  3.0532
   76SLPC   O21 6820   3.035   5.901   6.772  0.4336  0.0386 -0.2978
   76SLPC   C21 6821   3.145   5.914   6.840  0.2888  0.5672 -0.2832
   76SLPC   O22 6822   3.225   6.009   6.825  0.6034  0.5032  0.2057
   76SLPC   C22 6823   3.179   5.787   6.924 -0.4677 -0.4978  0.0535
   76SLPC   H2R 6824   3.138   5.699   6.870  1.6431 -1.6864  0.3083
   76SLPC   H2S 6825   3.288   5.773   6.932 -0.0747  1.8444 -0.5032
   76SLPC    C3 6826   2.866   6.002   6.628  0.6160  0.5270 -0.2188
   76SLPC    HX 6827   2.856   5.907   6.572 -1.3801  0.4631  0.1715
   76SLPC    HY 6828   2.856   6.092   6.564  0.7277  0.8788  0.2514
   76SLPC   O31 6829   2.785   6.019   6.746  0.0514  0.0891 -0.2328
   76SLPC   C31 6830   2.715   5.916   6.796  0.4741  0.1372 -0.2276
   76SLPC   O32 6831   2.685   5.813   6.739 -0.2050  0.1053  0.4021
   76SLPC   C32 6832   2.663   5.960   6.932 -0.2570  0.3348  0.2154
   76SLPC   H2X 6833   2.648   6.070   6.917  3.1971  0.8179 -0.4738
   76SLPC   H2Y 6834   2.739   5.933   7.008 -2.4521 -0.9826  2.0760
   76SLPC   C23 6835   3.127   5.824   7.062  0.7487  0.4419 -0.7804
   76SLPC   H3R 6836   3.017   5.812   7.060  0.5997  1.6910 -2.2150
   76SLPC   H3S 6837   3.152   5.930   7.085 -1.2543  0.9158 -0.6547
   76SLPC   C24 6838   3.186   5.746   7.176 -0.3929 -0.4793  0.9570
   76SLPC   H4R 6839   3.296   5.755   7.159 -0.4182 -1.0815  0.4085
   76SLPC   H4S 6840   3.166   5.638   7.156 -0.6728  0.1523 -2.9802
   76SLPC   C25 6841   3.128   5.792   7.308  0.7619  0.3045 -0.4492
   76SLPC   H5R 6842   3.019   5.815   7.299  0.3127 -0.2228  2.4996
   76SLPC   H5S 6843   3.170   5.889   7.342 -0.4912  1.3586 -1.7659
   76SLPC   C26 6844   3.144   5.695   7.434  0.1712 -0.1077  0.3138
   76SLPC   H6R 6845   3.241   5.643   7.418 -1.4806 -3.0665 -0.9796
   76SLPC   H6S 6846   3.069   5.613   7.436  1.1027 -0.9847  2.5028
   76SLPC   C27 6847   3.126   5.765   7.570  0.2567 -0.6797  0.2106
   76SLPC   H7R 6848   3.032   5.825   7.564  1.6991  1.5001 -3.4013
   76SLPC   H7S 6849   3.204   5.844   7.565  0.3363 -0.8409 -3.0274
   76SLPC   C28 6850   3.141   5.678   7.698  0.0599 -0.1902  0.1140
   76SLPC   H8R 6851   3.067   5.596   7.688 -1.5426  1.1065  0.9756
   76SLPC   H8S 6852   3.246   5.642   7.708  0.2104  0.1776 -0.1209
   76SLPC   C29 6853   3.091   5.755   7.816  0.2070  1.2327 -0.2759
   76SLPC   H9R 6854   2.994   5.806   7.806 -0.8834 -0.9574 -1.6496
   76SLPC  C210 6855   3.157   5.760   7.934 -0.5174 -0.3051  0.4354
   76SLPC  H10R 6856   3.114   5.814   8.020 -0.9113  0.5426 -0.2724
   76SLPC  C211 6857   3.288   5.679   7.970  0.5925 -0.8156  0.4296
   76SLPC  H11R 6858   3.363   5.714   7.895  1.1082  1.7599  2.0339
   76SLPC  H11S 6859   3.272   5.570   7.956 -2.4961 -0.4179  0.1282
   76SLPC  C212 6860   3.346   5.708   8.103  0.2570  0.3934  0.1679
   76SLPC  H12R 6861   3.345   5.817   8.117 -1.2059  0.4584 -0.2154
   76SLPC  C213 6862   3.397   5.623   8.197  0.3313 -0.3153  0.2302
   76SLPC  H13R 6863   3.438   5.653   8.294  0.2606  1.1679 -0.1737
   76SLPC  C214 6864   3.401   5.469   8.194  0.0969  0.2414  0.5910
   76SLPC  H14R 6865   3.506   5.445   8.169 -0.7048 -1.4246 -1.4238
   76SLPC  H14S 6866   3.331   5.432   8.116 -2.6996  3.7847  1.1060
   76SLPC  C215 6867   3.356   5.408   8.324 -0.6292 -0.1425 -0.2929
   76SLPC  H15R 6868   3.250   5.433   8.344 -0.7285  0.8161 -1.8143
   76SLPC  H15S 6869   3.424   5.436   8.407  0.2782  0.5988 -1.2466
   76SLPC  C216 6870   3.364   5.260   8.317  0.1505 -0.2989 -0.1194
   76SLPC  H16R 6871   3.467   5.235   8.287  0.9628  0.0965  2.1134
   76SLPC  H16S 6872   3.301   5.227   8.232  1.0043  0.5426 -1.1036
   76SLPC  C217 6873   3.332   5.195   8.453  0.3200 -0.1277 -0.2906
   76SLPC  H17R 6874   3.224   5.205   8.476  0.3853  0.3583 -0.2012
   76SLPC  H17S 6875   3.370   5.260   8.535 -0.5811 -0.1603  0.1618
   76SLPC  C218 6876   3.363   5.050   8.452 -0.3231 -0.2349 -0.1330
   76SLPC  H18R 6877   3.318   5.014   8.357  0.7321 -0.2550 -0.6417
   76SLPC  H18S 6878   3.336   5.006   8.551  5.2177 -1.7577  1.0479
   76SLPC  H18T 6879   3.469   5.025   8.429 -0.1194  1.2124 -0.8513
   76SLPC   C33 6880   2.529   5.903   6.988 -0.3289 -0.6617  0.8196
   76SLPC   H3X 6881   2.528   5.792   6.977  1.6407 -0.6383 -0.2070
   76SLPC   H3Y 6882   2.451   5.949   6.924  1.1740 -0.5066 -1.0005
   76SLPC   C34 6883   2.500   5.953   7.127 -0.3928  0.0287 -0.3332
   76SLPC   H4X 6884   2.491   6.064   7.133 -0.7323 -0.0295  0.3761
   76SLPC   H4Y 6885   2.589   5.933   7.190  0.5409  1.1699 -1.2491
   76SLPC   C35 6886   2.382   5.888   7.203  0.2598 -0.8182 -0.4563
   76SLPC   H5X 6887   2.364   5.781   7.177 -2.1758 -0.5705 -0.0663
   76SLPC   H5Y 6888   2.296   5.952   7.173  0.6888 -0.0121 -0.0018
   76SLPC   C36 6889   2.403   5.900   7.353 -0.1844  0.2593  0.4443
   76SLPC   H6X 6890   2.497   5.847   7.379 -1.7419 -1.7085  2.4427
   76SLPC   H6Y 6891   2.322   5.852   7.413  1.5170 -1.3531  1.5480
   76SLPC   C37 6892   2.424   6.044   7.401  0.3287 -0.5580 -0.6125
   76SLPC   H7X 6893   2.333   6.102   7.374  1.3421  1.9699  1.0179
   76SLPC   H7Y 6894   2.518   6.090   7.363  0.7698 -0.6338  0.3493
   76SLPC   C38 6895   2.434   6.052   7.554  1.1058 -0.4487 -0.5995
   76SLPC   H8X 6896   2.527   6.009   7.597  1.7770  1.0823 -0.4713
   76SLPC   H8Y 6897   2.339   5.999   7.579  1.0802  0.4842  1.4920
   76SLPC   C39 6898   2.408   6.195   7.607  0.0627  0.3045 -0.7625
   76SLPC   H9X 6899   2.354   6.265   7.540 -0.2467 -0.6516 -1.5511
   76SLPC   H9Y 6900   2.510   6.237   7.618 -0.4781  1.2835  1.0589
   76SLPC  C310 6901   2.351   6.192   7.754 -0.7988  0.1259  0.4923
   76SLPC  H10X 6902   2.409   6.109   7.800  2.2272  1.4441 -0.6358
   76SLPC  H10Y 6903   2.247   6.158   7.738 -0.1240 -0.8309 -2.7130
   76SLPC  C311 6904   2.363   6.323   7.830  0.6516  0.0111  0.4954
   76SLPC  H11X 6905   2.287   6.395   7.793 -0.3239 -0.9666  0.5344
   76SLPC  H11Y 6906   2.461   6.369   7.803  0.3444 -1.1902 -3.2013
   76SLPC  C312 6907   2.346   6.316   7.987 -0.0148  0.8050  0.8796
   76SLPC  H12X 6908   2.244   6.274   8.004  1.1977 -2.2138  1.2069
   76SLPC  H12Y 6909   2.346   6.417   8.034 -2.3339  0.0338  2.7849
   76SLPC  C313 6910   2.457   6.235   8.052 -0.1623 -0.5502 -0.3366
   76SLPC  H13X 6911   2.561   6.252   8.017  0.2268  0.2934  1.1418
   76SLPC  H13Y 6912   2.437   6.128   8.032 -0.4084 -0.7072  0.6950
   76SLPC  C314 6913   2.445   6.240   8.209  0.5465 -0.0141 -0.4229
   76SLPC  H14X 6914   2.343   6.205   8.236  1.0495  0.5097  2.5266
   76SLPC  H14Y 6915   2.440   6.345   8.245  2.3694  0.4115 -1.2706
   76SLPC  C315 6916   2.545   6.165   8.296 -0.3957  0.6162  0.2559
   76SLPC  H15X 6917   2.653   6.183   8.278 -0.0696 -2.6283 -1.8252
   76SLPC  H15Y 6918   2.541   6.054   8.289 -1.3033  0.5010  2.0445
   76SLPC  C316 6919   2.522   6.199   8.453 -0.1772  0.2342 -0.0860
   76SLPC  H16X 6920   2.539   6.306   8.476  0.0003  0.0498  0.6605
   76SLPC  H16Y 6921   2.602   6.143   8.506  1.7629  1.2334 -1.8140
   76SLPC  C317 6922   2.385   6.152   8.507 -0.3290 -0.0771  0.1557
   76SLPC  H17X 6923   2.371   6.043   8.491  0.2158 -0.3086  1.1724
   76SLPC  H17Y 6924   2.300   6.199   8.453  0.1096 -1.0287 -1.4436
   76SLPC  C318 6925   2.353   6.169   8.655  0.4396  1.1100 -0.0974
   76SLPC  H18X 6926   2.389   6.271   8.684 -1.5547  1.5524  1.0230
   76SLPC  H18Y 6927   2.410   6.096   8.717  2.1911  1.6582 -0.9768
   76SLPC  H18Z 6928   2.244   6.167   8.675  0.0019 -0.7623 -2.3459
   77SLPC     N 6929   0.071   0.059   5.861 -0.2364  0.3955  0.3471
   77SLPC   C13 6930   0.087  -0.037   5.974 -0.7723  0.3448 -0.7249
   77SLPC  H13A 6931  -0.016  -0.060   5.996 -1.2873  0.4174 -2.8692
   77SLPC  H13B 6932   0.143  -0.126   5.948 -0.5318  0.7926 -1.8035
   77SLPC  H13C 6933   0.120   0.015   6.063 -1.0293  0.0002 -0.4223
   77SLPC   C14 6934  -0.040   0.005   5.774  0.3713 -0.4179 -0.1039
   77SLPC  H14A 6935  -0.009  -0.084   5.723 -2.6752 -1.2248 -0.7330
   77SLPC  H14B 6936  -0.127  -0.009   5.837  1.6857 -1.7211  1.5077
   77SLPC  H14C 6937  -0.073   0.073   5.697 -0.0035 -0.4009  0.0697
   77SLPC   C15 6938   0.197   0.056   5.777 -0.3771 -0.0209 -0.3687
   77SLPC  H15A 6939   0.193  -0.012   5.693  0.8430 -0.4017 -0.1427
   77SLPC  H15B 6940   0.215   0.154   5.736 -0.1572  0.6146  1.2183
   77SLPC  H15C 6941   0.280   0.025   5.839 -0.4045 -0.3343 -0.4836
   77SLPC   C12 6942   0.040   0.197   5.911 -0.5179 -0.0119  0.1313
   77SLPC  H12A 6943   0.001   0.253   5.827  0.6516  1.3331  0.4625
   77SLPC  H12B 6944   0.124   0.250   5.952 -2.6739  4.4316 -0.5686
   77SLPC   C11 6945  -0.081   0.204   6.015 -0.4458 -0.5031 -0.3754
   77SLPC  H11A 6946  -0.168   0.152   5.970 -1.0176 -0.2590  0.4177
   77SLPC  H11B 6947  -0.116   0.307   6.037 -3.5090 -1.1674 -1.6901
   77SLPC     P 6948   0.055   0.203   6.233 -0.1234 -0.0913 -0.2081
   77SLPC   O13 6949   0.192   0.183   6.178 -0.3864 -0.1191  0.1466
   77SLPC   O14 6950   0.003   0.340   6.256 -0.0695 -0.2742 -0.4117
   77SLPC   O12 6951  -0.053   0.132   6.133  0.0130 -0.3907  0.2398
   77SLPC   O11 6952   0.044   0.117   6.366 -0.8175  0.6632  0.0005
   77SLPC    C1 6953  -0.072   0.131   6.442 -0.2392 -0.4967 -0.7226
   77SLPC    HA 6954  -0.166   0.162   6.391 -0.0314  1.5185  0.0388
   77SLPC    HB 6955  -0.103   0.038   6.495 -1.9810  0.1883 -0.4444
   77SLPC    C2 6956  -0.055   0.237   6.556  0.0942  0.4242  0.5880
   77SLPC    HS 6957  -0.001   0.319   6.505 -0.7141 -1.4515 -3.7532
   77SLPC   O21 6958   0.019   0.164   6.659 -0.1646 -0.3754  0.4245
   77SLPC   C21 6959   0.085   0.245   6.747 -0.0378  0.5639  0.6120
   77SLPC   O22 6960   0.076   0.364   6.746 -0.3936 -0.7190 -0.2893
   77SLPC   C22 6961   0.179   0.162   6.830 -0.1476 -0.0608 -0.5946
   77SLPC   H2R 6962   0.221   0.072   6.779  1.4227 -0.7121  1.6879
   77SLPC   H2S 6963   0.253   0.232   6.874  2.1725 -1.8751 -1.4206
   77SLPC    C3 6964  -0.186   0.286   6.611  0.1234 -0.2815  0.2864
   77SLPC    HX 6965  -0.249   0.330   6.530 -1.2563 -0.1488  1.3803
   77SLPC    HY 6966  -0.166   0.368   6.682  1.3277  0.9019 -1.3650
   77SLPC   O31 6967  -0.260   0.180   6.667  0.4021 -0.4340 -1.0260
   77SLPC   C31 6968  -0.384   0.213   6.718  0.4777  0.3832  1.2700
   77SLPC   O32 6969  -0.427   0.327   6.713  0.0756  0.0218  0.3608
   77SLPC   C32 6970  -0.443   0.084   6.786 -0.0712  0.7993  0.7183
   77SLPC   H2X 6971  -0.394  -0.006   6.744 -0.1087  2.0995 -2.3198
   77SLPC   H2Y 6972  -0.553   0.079   6.771  0.2347  1.3255 -2.3758
   77SLPC   C23 6973   0.093   0.116   6.954 -0.8136  0.2962  0.2566
   77SLPC   H3R 6974   0.012   0.049   6.918  0.8619 -2.3093  1.0528
   77SLPC   H3S 6975   0.055   0.212   6.994  0.2970  1.4588 -1.3521
   77SLPC   C24 6976   0.170   0.054   7.071  0.1357 -0.2312  0.3327
   77SLPC   H4R 6977   0.263   0.007   7.033 -0.7021 -1.7814  0.1069
   77SLPC   H4S 6978   0.105  -0.025   7.114 -1.6451  1.4761  0.9587
   77SLPC   C25 6979   0.191   0.149   7.192 -0.0305 -0.1904  0.0853
   77SLPC   H5R 6980   0.106   0.214   7.221  1.3511  1.2490  1.1155
   77SLPC   H5S 6981   0.267   0.223   7.160 -0.2729 -0.5512 -1.3679
   77SLPC   C26 6982   0.211   0.066   7.317  0.6681  0.2387  0.2243
   77SLPC   H6R 6983   0.286  -0.015   7.302  3.8995  2.8576  1.1163
   77SLPC   H6S 6984   0.131   0.007   7.366  1.6961 -1.5941 -0.1903
   77SLPC   C27 6985   0.277   0.159   7.426 -0.5234  0.1609  0.6963
   77SLPC   H7R 6986   0.207   0.244   7.443  1.5523  2.5392 -1.5922
   77SLPC   H7S 6987   0.375   0.197   7.388  0.3432 -1.5000  1.1909
   77SLPC   C28 6988   0.304   0.086   7.558  0.0366 -0.1024  0.7274
   77SLPC   H8R 6989   0.379   0.010   7.526 -0.7172  0.9397 -4.4721
   77SLPC   H8S 6990   0.219   0.030   7.602  0.8306 -1.4164  0.6707
   77SLPC   C29 6991   0.331   0.166   7.681 -0.1749 -0.0487 -0.0298
   77SLPC   H9R 6992   0.239   0.219   7.712 -1.7982 -1.4078 -2.2298
   77SLPC  C210 6993   0.454   0.195   7.727  0.2093  0.5579  0.2333
   77SLPC  H10R 6994   0.468   0.259   7.815  2.0764 -1.3784  1.4209
   77SLPC  C211 6995   0.577   0.133   7.665 -0.1561 -0.0132  0.4363
   77SLPC  H11R 6996   0.587   0.160   7.558  2.5326 -0.3383  0.5553
   77SLPC  H11S 6997   0.574   0.022   7.668  1.3710 -0.1018 -0.4530
   77SLPC  C212 6998   0.705   0.174   7.731  0.2393 -0.4229  0.4920
   77SLPC  H12R 6999   0.750   0.264   7.687 -1.2829 -0.6765 -1.6939
   77SLPC  C213 7000   0.773   0.117   7.832  0.5610  0.6038  0.0430
   77SLPC  H13R 7001   0.864   0.148   7.885  1.2945 -1.7000  0.2426
   77SLPC  C214 7002   0.728  -0.014   7.893  0.3942  0.1803  0.1651
   77SLPC  H14R 7003   0.623  -0.045   7.876  0.3285  0.8388 -0.6455
   77SLPC  H14S 7004   0.726   0.007   8.002 -1.0446  2.5358 -0.2630
   77SLPC  C215 7005   0.818  -0.128   7.853 -0.9672 -1.1616  0.0040
   77SLPC  H15R 7006   0.923  -0.091   7.849 -1.5091  0.4075 -0.2663
   77SLPC  H15S 7007   0.799  -0.159   7.748  1.5995  0.0842 -0.9068
   77SLPC  C216 7008   0.802  -0.246   7.943 -0.0526  0.4110  0.2880
   77SLPC  H16R 7009   0.699  -0.284   7.923 -0.4230  0.1369  2.5131
   77SLPC  H16S 7010   0.793  -0.213   8.049 -0.4091 -2.5931  1.2786
   77SLPC  C217 7011   0.901  -0.356   7.918  0.0086  0.4420  0.0156
   77SLPC  H17R 7012   0.875  -0.442   7.983 -1.5604  1.6849  1.0888
   77SLPC  H17S 7013   1.002  -0.320   7.944  0.6652 -1.1559 -0.1798
   77SLPC  C218 7014   0.910  -0.411   7.774 -0.1026  0.4816 -0.3003
   77SLPC  H18R 7015   0.944  -0.328   7.709  0.4081  2.0088  1.8182
   77SLPC  H18S 7016   0.817  -0.458   7.735  0.5350  0.1790 -1.5060
   77SLPC  H18T 7017   0.993  -0.485   7.763  0.7139  1.7120 -3.7861
   77SLPC   C33 7018  -0.418   0.075   6.939  0.2445 -0.4540  0.0616
   77SLPC   H3X 7019  -0.462  -0.018   6.980  1.1896 -1.3276 -0.8779
   77SLPC   H3Y 7020  -0.473   0.160   6.985 -0.7954 -1.8964  1.6201
   77SLPC   C34 7021  -0.276   0.091   6.981  0.5360  0.6347  0.0029
   77SLPC   H4X 7022  -0.256   0.198   6.959 -0.2552  0.8138  0.0927
   77SLPC   H4Y 7023  -0.215   0.024   6.918  1.0015  1.9038 -0.9488
   77SLPC   C35 7024  -0.246   0.050   7.128 -0.0822  0.0009  0.0459
   77SLPC   H5X 7025  -0.159  -0.019   7.133 -0.0633  0.0691  0.7266
   77SLPC   H5Y 7026  -0.325  -0.001   7.188 -0.8807  3.8331  2.6346
   77SLPC   C36 7027  -0.199   0.171   7.209 -0.5053  0.1461 -0.9012
   77SLPC   H6X 7028  -0.099   0.203   7.174  0.0613  0.6013  1.0274
   77SLPC   H6Y 7029  -0.167   0.131   7.307 -1.8532  1.0204 -0.0652
   77SLPC   C37 7030  -0.284   0.295   7.233  0.3481  0.1437  0.1247
   77SLPC   H7X 7031  -0.383   0.264   7.274 -0.0982  1.1008 -0.1977
   77SLPC   H7Y 7032  -0.299   0.337   7.131 -2.1477 -1.3472 -0.2134
   77SLPC   C38 7033  -0.228   0.399   7.333 -0.3177  0.2195  0.0744
   77SLPC   H8X 7034  -0.290   0.491   7.340 -1.8311 -0.6627 -0.9251
   77SLPC   H8Y 7035  -0.122   0.425   7.314 -0.0979 -0.7461 -0.0890
   77SLPC   C39 7036  -0.228   0.350   7.480 -0.6654 -0.3531  0.0040
   77SLPC   H9X 7037  -0.170   0.256   7.486  1.1986  0.8336  1.8439
   77SLPC   H9Y 7038  -0.331   0.326   7.514 -0.4592  2.4741  3.2925
   77SLPC  C310 7039  -0.160   0.441   7.575 -0.7296 -0.2696  0.3445
   77SLPC  H10X 7040  -0.220   0.532   7.595  0.7980  0.3201  2.6998
   77SLPC  H10Y 7041  -0.073   0.483   7.519 -0.5902  0.2249  0.9331
   77SLPC  C311 7042  -0.113   0.373   7.705  0.0733  0.0704  0.3180
   77SLPC  H11X 7043  -0.054   0.281   7.685  1.8437  1.2392 -0.1867
   77SLPC  H11Y 7044  -0.203   0.341   7.761  0.9396 -1.6026  0.8143
   77SLPC  C312 7045  -0.029   0.465   7.786 -0.2886  0.2630 -0.0195
   77SLPC  H12X 7046  -0.078   0.563   7.775  0.8804  0.8628 -0.0537
   77SLPC  H12Y 7047   0.067   0.480   7.731 -1.1448  1.8206 -1.1427
   77SLPC  C313 7048  -0.002   0.409   7.928 -0.3525  0.7956  0.1008
   77SLPC  H13X 7049   0.065   0.321   7.920  2.2199  2.5724  0.8705
   77SLPC  H13Y 7050  -0.095   0.395   7.988  0.1695  2.4845  1.3829
   77SLPC  C314 7051   0.078   0.505   8.020  0.5703  0.4240 -0.5119
   77SLPC  H14X 7052   0.038   0.606   7.998  0.3260  0.7662  1.3107
   77SLPC  H14Y 7053   0.187   0.496   7.999  1.0897  1.0803  1.6121
   77SLPC  C315 7054   0.056   0.476   8.169  0.1565  0.6447 -0.3801
   77SLPC  H15X 7055   0.084   0.369   8.182  1.6983  1.0122 -0.5090
   77SLPC  H15Y 7056  -0.054   0.486   8.184 -0.0232 -1.6455  0.2442
   77SLPC  C316 7057   0.116   0.577   8.264 -0.2036  0.8538 -0.5240
   77SLPC  H16X 7058   0.052   0.667   8.256 -0.7348  0.6289  0.9098
   77SLPC  H16Y 7059   0.216   0.607   8.228 -0.9352  0.6706 -2.8461
   77SLPC  C317 7060   0.140   0.508   8.396 -0.2331 -0.4896 -0.6657
   77SLPC  H17X 7061   0.201   0.579   8.456 -3.1649  2.4042 -0.8033
   77SLPC  H17Y 7062   0.192   0.411   8.381 -0.4897 -0.8113  0.4196
   77SLPC  C318 7063   0.016   0.489   8.486 -0.2865  1.0389 -0.0231
   77SLPC  H18X 7064  -0.074   0.473   8.423  0.2190  1.3292 -0.8419
   77SLPC  H18Y 7065   0.003   0.574   8.556 -1.0807  0.0113  1.1119
   77SLPC  H18Z 7066   0.025   0.392   8.540 -0.3045  2.1972  2.1388
   78SLPC     N 7067   1.812   1.239   6.215 -0.1683 -0.0842 -0.3531
   78SLPC   C13 7068   1.788   1.156   6.091  0.1839 -0.3899  0.1063
   78SLPC  H13A 7069   1.781   1.052   6.117  0.6114 -0.5153 -0.2776
   78SLPC  H13B 7070   1.701   1.191   6.038  0.5597  0.6929  0.1752
   78SLPC  H13C 7071   1.868   1.179   6.022 -0.2130 -0.2475 -0.3091
   78SLPC   C14 7072   1.704   1.200   6.311  0.3939 -0.1593  0.1922
   78SLPC  H14A 7073   1.606   1.205   6.265  0.6173  0.1674 -0.2477
   78SLPC  H14B 7074   1.719   1.100   6.351  0.6229  0.4173  1.5952
   78SLPC  H14C 7075   1.710   1.267   6.396  0.7272  0.5998 -0.4243
   78SLPC   C15 7076   1.802   1.385   6.186  0.9754  0.0362  0.0862
   78SLPC  H15A 7077   1.784   1.437   6.279 -0.6771 -1.6371  0.7820
   78SLPC  H15B 7078   1.893   1.415   6.137  0.6432 -0.6911 -1.0100
   78SLPC  H15C 7079   1.725   1.411   6.115  3.5500 -0.1519 -3.0172
   78SLPC   C12 7080   1.950   1.197   6.273  0.0749  0.0988 -0.0850
   78SLPC  H12A 7081   1.977   1.262   6.355 -0.7275  1.3293 -0.7500
   78SLPC  H12B 7082   2.029   1.217   6.202 -1.6818 -2.2412 -2.9107
   78SLPC   C11 7083   1.964   1.048   6.317 -0.4866 -0.6728  0.6145
   78SLPC  H11A 7084   1.882   1.036   6.392 -2.7686 -1.9767 -1.9132
   78SLPC  H11B 7085   2.068   1.054   6.356 -0.1850 -0.6651 -0.1861
   78SLPC     P 7086   1.978   0.803   6.248  0.1786 -0.0988 -0.2638
   78SLPC   O13 7087   1.969   0.723   6.121  0.2577 -0.6686 -0.5556
   78SLPC   O14 7088   2.099   0.786   6.331  0.0042 -0.7054  0.5286
   78SLPC   O12 7089   1.944   0.951   6.215 -0.2227 -0.3067  0.2050
   78SLPC   O11 7090   1.858   0.766   6.336 -0.3275  0.1392 -0.2380
   78SLPC    C1 7091   1.848   0.770   6.478  0.1086 -1.2978 -0.2543
   78SLPC    HA 7092   1.951   0.782   6.519 -0.3814 -0.6310  0.8410
   78SLPC    HB 7093   1.779   0.851   6.509  3.9796  1.8886  0.9440
   78SLPC    C2 7094   1.792   0.634   6.521 -0.1334  0.5579 -0.4894
   78SLPC    HS 7095   1.750   0.592   6.428  0.4685  2.1543 -1.5166
   78SLPC   O21 7096   1.702   0.654   6.635  0.5493 -0.1615  0.2505
   78SLPC   C21 7097   1.577   0.686   6.613  0.2001 -0.1619  0.5476
   78SLPC   O22 7098   1.527   0.705   6.501 -0.0983 -0.6597  0.4004
   78SLPC   C22 7099   1.515   0.715   6.746  0.1368 -0.0485  0.7126
   78SLPC   H2R 7100   1.467   0.619   6.776  0.7406 -0.8206 -0.6839
   78SLPC   H2S 7101   1.596   0.741   6.818  0.2447  1.2400  0.1569
   78SLPC    C3 7102   1.912   0.548   6.567 -0.2006 -0.4278 -0.6485
   78SLPC    HX 7103   1.948   0.585   6.665 -0.4861 -1.5999 -0.0728
   78SLPC    HY 7104   1.989   0.556   6.487  0.7066 -0.1578  0.2358
   78SLPC   O31 7105   1.875   0.413   6.584 -0.1653 -0.0380  0.2543
   78SLPC   C31 7106   1.977   0.327   6.594  0.3402  0.2406 -0.2679
   78SLPC   O32 7107   2.094   0.359   6.599  0.0995  1.1386 -0.0611
   78SLPC   C32 7108   1.918   0.190   6.601  0.3307  0.2332 -0.4267
   78SLPC   H2X 7109   1.864   0.179   6.505  0.5853  2.7245 -0.9054
   78SLPC   H2Y 7110   1.848   0.189   6.687  0.5117  0.5307 -0.2766
   78SLPC   C23 7111   1.421   0.840   6.737  0.3382  0.4495  0.4935
   78SLPC   H3R 7112   1.403   0.862   6.630  2.4227  1.7235  0.3468
   78SLPC   H3S 7113   1.473   0.931   6.775  0.6975 -0.2057  1.6326
   78SLPC   C24 7114   1.284   0.831   6.801 -0.4742 -0.2337  0.6806
   78SLPC   H4R 7115   1.301   0.840   6.911 -0.2365  0.8932  0.5607
   78SLPC   H4S 7116   1.239   0.732   6.775 -0.6645 -0.0229  0.2059
   78SLPC   C25 7117   1.194   0.946   6.761  1.0583  0.4662 -0.6661
   78SLPC   H5R 7118   1.184   0.947   6.650  1.0324  2.9381 -0.7157
   78SLPC   H5S 7119   1.238   1.046   6.785  0.8766 -0.0538  2.2425
   78SLPC   C26 7120   1.055   0.941   6.829 -0.0169  1.0176 -0.5649
   78SLPC   H6R 7121   1.007   0.841   6.821 -0.1452  1.0862 -0.6444
   78SLPC   H6S 7122   0.991   1.007   6.767 -1.9749 -1.3130 -1.1679
   78SLPC   C27 7123   1.063   0.989   6.974 -0.8186  0.0572 -0.1066
   78SLPC   H7R 7124   1.140   1.068   6.984 -0.2537 -0.4518 -0.4253
   78SLPC   H7S 7125   1.101   0.898   7.025  1.3222 -0.1638 -1.9614
   78SLPC   C28 7126   0.929   1.042   7.026 -0.5203 -0.2423 -0.1983
   78SLPC   H8R 7127   0.911   1.147   6.994 -2.8089 -0.8033 -0.8828
   78SLPC   H8S 7128   0.951   1.052   7.134  1.5389 -1.4006 -0.4501
   78SLPC   C29 7129   0.814   0.956   6.994 -0.1777 -0.0783  0.2271
   78SLPC   H9R 7130   0.784   0.974   6.890  1.0632  1.8279  0.1591
   78SLPC  C210 7131   0.733   0.881   7.070  0.2872  0.6013 -0.0855
   78SLPC  H10R 7132   0.657   0.819   7.021  0.4693  1.6274 -1.7305
   78SLPC  C211 7133   0.740   0.850   7.221 -0.1402  0.4380  0.7470
   78SLPC  H11R 7134   0.835   0.795   7.234  0.0918  1.0655  1.7888
   78SLPC  H11S 7135   0.663   0.774   7.246 -0.5697  0.9241  0.9347
   78SLPC  C212 7136   0.727   0.965   7.311  0.0689  0.0817  0.4779
   78SLPC  H12R 7137   0.715   1.066   7.270 -2.6773 -0.4113 -0.0978
   78SLPC  C213 7138   0.724   0.954   7.447 -0.9298 -0.0504  0.1914
   78SLPC  H13R 7139   0.694   1.042   7.505 -0.1773  2.2659 -2.6331
   78SLPC  C214 7140   0.756   0.839   7.526 -1.0734 -0.4048 -0.1298
   78SLPC  H14R 7141   0.765   0.753   7.456  1.6227  1.2062 -1.9502
   78SLPC  H14S 7142   0.680   0.815   7.603  2.5153 -0.8015  3.5837
   78SLPC  C215 7143   0.891   0.869   7.593  0.6200 -0.0468  0.0350
   78SLPC  H15R 7144   0.882   0.956   7.660 -1.1808 -0.8886  0.9657
   78SLPC  H15S 7145   0.974   0.894   7.523  0.1237 -1.3980 -1.1056
   78SLPC  C216 7146   0.941   0.741   7.664 -0.3335  0.5097 -0.0387
   78SLPC  H16R 7147   0.988   0.673   7.590  1.0364  0.3378  0.9260
   78SLPC  H16S 7148   0.857   0.682   7.706  0.1384 -0.3680 -0.2998
   78SLPC  C217 7149   1.041   0.768   7.773 -0.7081 -0.4417 -0.5945
   78SLPC  H17R 7150   0.993   0.841   7.842  1.5919  0.5017  0.1393
   78SLPC  H17S 7151   1.137   0.807   7.733  0.3382 -2.6113 -0.3584
   78SLPC  C218 7152   1.092   0.646   7.852  0.1800 -0.3319 -0.4768
   78SLPC  H18R 7153   1.136   0.572   7.781 -2.1509 -0.2359 -2.1423
   78SLPC  H18S 7154   1.009   0.595   7.905  1.2020 -0.0690  1.4335
   78SLPC  H18T 7155   1.162   0.669   7.935  0.0034 -0.8195 -0.1855
   78SLPC   C33 7156   2.036   0.089   6.605  0.5525 -0.0781  0.5393
   78SLPC   H3X 7157   2.106   0.123   6.685 -1.6205  2.3025  1.5349
   78SLPC   H3Y 7158   2.087   0.099   6.507 -1.1036 -0.7167 -0.4292
   78SLPC   C34 7159   2.005  -0.053   6.623  0.7565  0.4244 -0.3093
   78SLPC   H4X 7160   2.098  -0.111   6.635 -0.3892 -1.5969 -0.7718
   78SLPC   H4Y 7161   1.964  -0.088   6.525 -1.6843  1.5071  0.2462
   78SLPC   C35 7162   1.907  -0.102   6.734  0.5404 -0.4015  0.3771
   78SLPC   H5X 7163   1.856  -0.195   6.700  1.1817 -0.2199 -1.1621
   78SLPC   H5Y 7164   1.835  -0.022   6.762  0.1168 -0.8912  0.7050
   78SLPC   C36 7165   1.982  -0.144   6.863  0.1929  0.2659 -0.0483
   78SLPC   H6X 7166   2.033  -0.052   6.898 -1.2547  1.5432 -1.1254
   78SLPC   H6Y 7167   2.052  -0.224   6.832  0.0097 -0.2590  0.8671
   78SLPC   C37 7168   1.891  -0.197   6.975  0.4608 -0.8307  0.3078
   78SLPC   H7X 7169   1.958  -0.255   7.043  0.2601 -1.8350 -0.3309
   78SLPC   H7Y 7170   1.827  -0.274   6.927 -0.0948  0.3698 -0.9622
   78SLPC   C38 7171   1.803  -0.088   7.045  0.2942  0.0219 -0.3334
   78SLPC   H8X 7172   1.711  -0.137   7.084  1.5137 -0.0617  2.6610
   78SLPC   H8Y 7173   1.775  -0.007   6.974  0.7296  0.0353 -0.4936
   78SLPC   C39 7174   1.877  -0.015   7.158  0.1800  0.1425 -0.3281
   78SLPC   H9X 7175   1.811   0.068   7.192  1.3984  0.0985  2.3642
   78SLPC   H9Y 7176   1.968   0.030   7.113  0.7776 -2.9692 -2.5229
   78SLPC  C310 7177   1.916  -0.110   7.274 -0.1510 -0.0234 -0.7922
   78SLPC  H10X 7178   2.015  -0.155   7.252 -0.1083  0.1234 -0.9018
   78SLPC  H10Y 7179   1.850  -0.199   7.283 -0.3121  0.0358 -1.3775
   78SLPC  C311 7180   1.897  -0.034   7.410  0.5276 -0.5720 -0.5075
   78SLPC  H11X 7181   1.791  -0.001   7.414  0.6623 -0.2487  1.3025
   78SLPC  H11Y 7182   1.963   0.054   7.401  2.1311 -1.8669 -2.0508
   78SLPC  C312 7183   1.936  -0.111   7.537 -0.8198 -0.7977  0.4206
   78SLPC  H12X 7184   2.045  -0.133   7.535 -0.8158 -0.9769  1.6881
   78SLPC  H12Y 7185   1.886  -0.209   7.548 -3.5177  0.6809  2.5395
   78SLPC  C313 7186   1.904  -0.029   7.666 -0.1568  0.2497 -0.7146
   78SLPC  H13X 7187   1.808  -0.065   7.709  0.2837 -2.7544 -1.9507
   78SLPC  H13Y 7188   1.910   0.081   7.653 -0.6994  0.4226  0.3766
   78SLPC  C314 7189   2.004  -0.056   7.776  0.1321  0.0679 -0.0434
   78SLPC  H14X 7190   2.096   0.001   7.753 -0.5060  1.6433  1.0675
   78SLPC  H14Y 7191   2.036  -0.162   7.776 -2.0872 -0.6814  1.1948
   78SLPC  C315 7192   1.956  -0.018   7.919  0.2640  0.1387  0.2587
   78SLPC  H15X 7193   2.035  -0.033   7.996 -0.1680  0.2996  0.7402
   78SLPC  H15Y 7194   1.880  -0.095   7.945  1.8575 -1.5171  0.1985
   78SLPC  C316 7195   1.880   0.115   7.930  0.5850  0.0133  0.6348
   78SLPC  H16X 7196   1.804   0.123   7.849  1.3109  3.6161  0.1256
   78SLPC  H16Y 7197   1.961   0.187   7.902  1.0707 -0.7185  0.1281
   78SLPC  C317 7198   1.817   0.137   8.063 -0.7367 -0.0715 -0.2062
   78SLPC  H17X 7199   1.899   0.127   8.138 -2.2006  1.4900  1.6991
   78SLPC  H17Y 7200   1.748   0.055   8.093 -0.2432 -0.9602 -1.4421
   78SLPC  C318 7201   1.750   0.270   8.082  0.4147 -0.2442 -0.5666
   78SLPC  H18X 7202   1.665   0.275   8.010 -0.2071 -3.5185 -0.2300
   78SLPC  H18Y 7203   1.814   0.356   8.056  2.9538 -1.4603  1.2095
   78SLPC  H18Z 7204   1.717   0.274   8.188  0.1272  0.9680 -0.6922
   79SLPC     N 7205   4.356   1.173   5.933 -0.3508 -0.3829 -0.0997
   79SLPC   C13 7206   4.296   1.212   5.809 -0.1201  0.7688  0.0794
   79SLPC  H13A 7207   4.326   1.310   5.776  0.2734 -0.0036 -2.0242
   79SLPC  H13B 7208   4.322   1.150   5.725  0.6397  0.9086  0.2031
   79SLPC  H13C 7209   4.189   1.220   5.828  0.0986  0.9105  1.3832
   79SLPC   C14 7210   4.502   1.171   5.917  0.0505  0.2201 -0.2527
   79SLPC  H14A 7211   4.522   1.115   5.827  0.6092 -0.3810  0.2336
   79SLPC  H14B 7212   4.543   1.270   5.913 -0.3381  0.3772 -0.4384
   79SLPC  H14C 7213   4.542   1.110   5.997 -1.0347 -0.1082  0.0715
   79SLPC   C15 7214   4.309   1.031   5.963  0.1767 -0.8111  0.0486
   79SLPC  H15A 7215   4.203   1.037   5.944  0.5510  0.4197 -1.9206
   79SLPC  H15B 7216   4.353   0.964   5.891  0.3785  1.3789 -1.9792
   79SLPC  H15C 7217   4.325   0.994   6.063  1.8601 -0.4851 -0.0638
   79SLPC   C12 7218   4.310   1.265   6.041  0.8445  0.3113 -0.0328
   79SLPC  H12A 7219   4.204   1.251   6.051  0.8344  0.2362 -0.2630
   79SLPC  H12B 7220   4.329   1.368   6.016 -0.1125  0.9618  1.6903
   79SLPC   C11 7221   4.376   1.253   6.181 -0.3799 -0.0520 -0.5292
   79SLPC  H11A 7222   4.352   1.334   6.253 -1.9143 -0.2763 -0.7678
   79SLPC  H11B 7223   4.484   1.276   6.162 -0.5472  2.0639  0.6923
   79SLPC     P 7224   4.227   1.095   6.326 -0.1766 -0.3047  0.4245
   79SLPC   O13 7225   4.125   1.187   6.280 -0.2494  0.2252  0.4598
   79SLPC   O14 7226   4.198   0.948   6.323 -0.0469  0.5098  0.3439
   79SLPC   O12 7227   4.364   1.121   6.241 -0.3612  0.0120 -0.0097
   79SLPC   O11 7228   4.265   1.125   6.477  0.3732 -0.1471 -0.4097
   79SLPC    C1 7229   4.375   1.192   6.523 -0.1440  0.7266  0.0276
   79SLPC    HA 7230   4.465   1.134   6.494  0.2699  1.1731  0.4240
   79SLPC    HB 7231   4.377   1.295   6.482  1.0492 -0.2883 -2.7229
   79SLPC    C2 7232   4.366   1.187   6.674 -0.1560  0.5139  0.4094
   79SLPC    HS 7233   4.451   1.244   6.719 -1.0076  0.5344  2.0834
   79SLPC   O21 7234   4.367   1.056   6.724  0.1579 -0.3134 -0.3490
   79SLPC   C21 7235   4.481   0.985   6.711  0.1949 -1.4597  0.9174
   79SLPC   O22 7236   4.593   1.037   6.693 -0.6287 -0.9563  0.3615
   79SLPC   C22 7237   4.455   0.842   6.764  0.3435  0.3324  0.1719
   79SLPC   H2R 7238   4.351   0.813   6.741  0.2989  0.8366 -0.2920
   79SLPC   H2S 7239   4.522   0.776   6.705  0.0374  0.4496 -0.3163
   79SLPC    C3 7240   4.229   1.247   6.713  0.0641 -0.2244  0.1997
   79SLPC    HX 7241   4.140   1.183   6.696 -0.2845  0.2305  0.2755
   79SLPC    HY 7242   4.210   1.333   6.646  3.4270 -0.6307 -1.4624
   79SLPC   O31 7243   4.242   1.286   6.856 -0.3903 -0.4263 -0.5349
   79SLPC   C31 7244   4.188   1.197   6.940 -0.1561  0.0507  0.6434
   79SLPC   O32 7245   4.123   1.098   6.914  0.2597  0.7659 -0.1182
   79SLPC   C32 7246   4.231   1.225   7.079  0.2757  0.3021 -0.2867
   79SLPC   H2X 7247   4.335   1.262   7.081  0.8339 -1.1846  2.0510
   79SLPC   H2Y 7248   4.221   1.127   7.132  2.6515  0.0768 -0.1617
   79SLPC   C23 7249   4.500   0.820   6.915  0.2845 -0.3227 -0.2593
   79SLPC   H3R 7250   4.608   0.839   6.934  0.6331 -1.1924 -1.2251
   79SLPC   H3S 7251   4.473   0.717   6.948  0.4481 -1.2061 -2.6870
   79SLPC   C24 7252   4.431   0.913   7.020 -0.0879  0.2340 -0.9565
   79SLPC   H4R 7253   4.324   0.893   6.996  0.0069 -1.2195 -0.2525
   79SLPC   H4S 7254   4.462   1.019   7.004 -0.0449  0.1949 -1.1359
   79SLPC   C25 7255   4.467   0.863   7.159  0.4064 -0.4087 -0.5814
   79SLPC   H5R 7256   4.576   0.862   7.181  0.3006  0.4665  0.0321
   79SLPC   H5S 7257   4.437   0.757   7.172 -0.0812 -0.1102  0.9713
   79SLPC   C26 7258   4.390   0.944   7.265 -0.0223  0.4828  0.6259
   79SLPC   H6R 7259   4.283   0.953   7.236 -0.5781 -2.2048  1.5460
   79SLPC   H6S 7260   4.422   1.051   7.266 -1.4198  0.9244  1.9190
   79SLPC   C27 7261   4.394   0.880   7.402  0.4446 -0.1887  0.1583
   79SLPC   H7R 7262   4.482   0.813   7.415 -1.0411 -2.4943 -1.0599
   79SLPC   H7S 7263   4.304   0.816   7.411 -0.2958  0.7635 -0.2786
   79SLPC   C28 7264   4.375   0.982   7.523 -0.6515  0.0787  0.6053
   79SLPC   H8R 7265   4.447   1.060   7.490  0.8232 -0.3836  2.4702
   79SLPC   H8S 7266   4.413   0.946   7.622 -0.6075 -0.1927  0.4914
   79SLPC   C29 7267   4.237   1.051   7.530  0.5702  0.4910 -0.7150
   79SLPC   H9R 7268   4.151   1.002   7.482  0.3375 -0.8870  0.9939
   79SLPC  C210 7269   4.216   1.149   7.626  0.0797  0.8686  0.1216
   79SLPC  H10R 7270   4.109   1.172   7.637 -0.3352 -1.0207  0.5091
   79SLPC  C211 7271   4.311   1.207   7.719 -0.7111  0.2705 -0.0371
   79SLPC  H11R 7272   4.414   1.192   7.681 -0.5723 -1.4548  0.8929
   79SLPC  H11S 7273   4.317   1.155   7.818  0.0687  1.2626  0.4543
   79SLPC  C212 7274   4.288   1.356   7.741  0.3587  0.3334 -0.4818
   79SLPC  H12R 7275   4.308   1.425   7.658 -0.3876  0.1988 -0.7830
   79SLPC  C213 7276   4.237   1.413   7.851  0.7208 -0.2266 -1.3420
   79SLPC  H13R 7277   4.225   1.523   7.853  0.1733 -0.2608 -2.2364
   79SLPC  C214 7278   4.195   1.335   7.970 -0.7769 -0.3287 -0.6019
   79SLPC  H14R 7279   4.280   1.282   8.019 -0.1814 -0.1077 -1.3611
   79SLPC  H14S 7280   4.131   1.245   7.961  1.3653 -2.0668  0.5715
   79SLPC  C215 7281   4.130   1.428   8.074 -0.1902 -0.2708  0.5587
   79SLPC  H15R 7282   4.035   1.456   8.024  1.1037  0.6569 -1.5280
   79SLPC  H15S 7283   4.193   1.519   8.073 -1.4873  0.6336  0.2573
   79SLPC  C216 7284   4.122   1.372   8.213 -0.9561 -0.3860  0.0086
   79SLPC  H16R 7285   4.221   1.351   8.258 -0.5031  0.0792 -0.7512
   79SLPC  H16S 7286   4.072   1.273   8.205  1.7902 -2.0036  1.3048
   79SLPC  C217 7287   4.037   1.465   8.301 -0.6163  1.2586 -0.7449
   79SLPC  H17R 7288   3.933   1.476   8.265 -0.7944  0.0483 -0.6332
   79SLPC  H17S 7289   4.079   1.568   8.299  1.3587  0.5712  1.0226
   79SLPC  C218 7290   4.041   1.412   8.449  0.0334  0.4824  0.6630
   79SLPC  H18R 7291   3.978   1.489   8.499  1.5439  0.8804  2.0603
   79SLPC  H18S 7292   4.147   1.406   8.482 -0.7836 -2.0809  3.2004
   79SLPC  H18T 7293   3.996   1.312   8.468 -0.6000  0.8299  1.0348
   79SLPC   C33 7294   4.151   1.324   7.156  0.4711  0.4211 -0.6068
   79SLPC   H3X 7295   4.139   1.418   7.098 -2.2057 -0.4398 -1.5929
   79SLPC   H3Y 7296   4.201   1.330   7.256  0.4132  0.6825 -0.5933
   79SLPC   C34 7297   4.006   1.284   7.185 -0.0179  0.5126 -0.6405
   79SLPC   H4X 7298   4.008   1.193   7.249 -0.7372  0.9674  0.0569
   79SLPC   H4Y 7299   3.948   1.264   7.092  0.5943  1.3655 -1.2274
   79SLPC   C35 7300   3.932   1.390   7.261 -0.0631 -0.1595 -0.5634
   79SLPC   H5X 7301   3.829   1.352   7.275  0.7629 -1.4078  3.0805
   79SLPC   H5Y 7302   3.928   1.480   7.195 -1.0236 -0.4601 -0.9243
   79SLPC   C36 7303   3.991   1.422   7.401  0.2742  0.4030  0.2197
   79SLPC   H6X 7304   4.088   1.476   7.390  0.7574  0.4989  3.7142
   79SLPC   H6Y 7305   4.008   1.333   7.466  0.9027  1.1115  1.0609
   79SLPC   C37 7306   3.897   1.508   7.481  0.0637 -0.3578  0.0772
   79SLPC   H7X 7307   3.808   1.448   7.509  0.2763 -1.6508 -1.8938
   79SLPC   H7Y 7308   3.854   1.583   7.411 -1.0072 -0.0075  1.0651
   79SLPC   C38 7309   3.965   1.575   7.605  0.0220 -0.8306  0.0964
   79SLPC   H8X 7310   4.047   1.645   7.577  0.2188 -0.7966  0.7264
   79SLPC   H8Y 7311   4.004   1.493   7.669  0.7320 -0.9728 -0.5025
   79SLPC   C39 7312   3.863   1.655   7.695 -0.9552  1.2280  0.3726
   79SLPC   H9X 7313   3.772   1.593   7.708  0.6693 -0.9729  1.9253
   79SLPC   H9Y 7314   3.836   1.747   7.639 -1.5164  1.7981  1.5416
   79SLPC  C310 7315   3.934   1.688   7.827 -0.5141  0.3870  0.4249
   79SLPC  H10X 7316   4.037   1.726   7.807 -1.2711  1.0214 -3.0423
   79SLPC  H10Y 7317   3.946   1.598   7.891 -0.0254  0.3594  0.3016
   79SLPC  C311 7318   3.861   1.793   7.917 -0.5410  0.3166  0.0170
   79SLPC  H11X 7319   3.866   1.893   7.869  1.4301 -0.0279 -0.5743
   79SLPC  H11Y 7320   3.931   1.795   8.003 -1.0103 -0.6748  0.4315
   79SLPC  C312 7321   3.719   1.752   7.964 -0.0492 -1.1071 -0.4468
   79SLPC  H12X 7322   3.723   1.645   7.993  1.6619 -1.3133 -1.3226
   79SLPC  H12Y 7323   3.649   1.765   7.879 -1.0398 -2.1725  0.1782
   79SLPC  C313 7324   3.667   1.830   8.094 -0.1065  0.8871 -0.3392
   79SLPC  H13X 7325   3.562   1.799   8.115 -1.3249  3.3055 -2.2259
   79SLPC  H13Y 7326   3.655   1.939   8.074 -0.9665  1.1008  1.2418
   79SLPC  C314 7327   3.752   1.806   8.220 -0.1991  0.6364  0.2407
   79SLPC  H14X 7328   3.859   1.817   8.192  0.1614  0.6164  1.5204
   79SLPC  H14Y 7329   3.749   1.701   8.257 -1.0468  0.8428  0.7800
   79SLPC  C315 7330   3.721   1.910   8.329 -1.1345  0.3962  0.7724
   79SLPC  H15X 7331   3.744   2.014   8.296  2.1433 -0.1655  0.9155
   79SLPC  H15Y 7332   3.798   1.897   8.407  2.2298  1.2216 -2.1198
   79SLPC  C316 7333   3.585   1.876   8.396 -0.5066  0.1871  0.0952
   79SLPC  H16X 7334   3.570   1.767   8.411 -0.2863  0.1834  0.2779
   79SLPC  H16Y 7335   3.507   1.927   8.334  0.0504  1.6284  0.5416
   79SLPC  C317 7336   3.561   1.943   8.526 -0.3895  0.2215  0.2629
   79SLPC  H17X 7337   3.591   1.891   8.620 -2.6281  1.5819  1.8326
   79SLPC  H17Y 7338   3.450   1.940   8.521 -0.4132  2.0815 -1.4761
   79SLPC  C318 7339   3.602   2.091   8.533 -0.0263 -0.0225  0.0428
   79SLPC  H18X 7340   3.571   2.143   8.439 -0.5892  0.2369  0.3664
   79SLPC  H18Y 7341   3.708   2.112   8.556 -0.9377  1.9647  2.9701
   79SLPC  H18Z 7342   3.540   2.136   8.613 -1.7078 -1.2937 -0.4751
   80SLPC     N 7343   1.149   0.709   6.324  0.4380 -0.3195 -0.1753
   80SLPC   C13 7344   1.035   0.774   6.263  0.5220  0.4446 -0.2473
   80SLPC  H13A 7345   0.966   0.799   6.342 -0.6374 -0.0090 -1.0768
   80SLPC  H13B 7346   1.066   0.871   6.227 -0.3336  0.9058  0.2336
   80SLPC  H13C 7347   0.983   0.712   6.191  2.4343 -2.2682  0.5398
   80SLPC   C14 7348   1.192   0.779   6.452 -0.1362  0.0187  0.2319
   80SLPC  H14A 7349   1.276   0.725   6.494 -0.3205 -1.8340 -1.6290
   80SLPC  H14B 7350   1.215   0.882   6.431  0.1081  0.1357  1.0291
   80SLPC  H14C 7351   1.114   0.785   6.526 -0.6325 -0.8888 -0.2073
   80SLPC   C15 7352   1.265   0.701   6.232 -0.0180  0.9124 -0.2711
   80SLPC  H15A 7353   1.244   0.631   6.152  0.3155 -0.6220  0.9184
   80SLPC  H15B 7354   1.295   0.798   6.198  0.8140  0.6561 -0.2843
   80SLPC  H15C 7355   1.356   0.667   6.279  0.7846  1.3956 -1.4345
   80SLPC   C12 7356   1.103   0.565   6.344 -0.4126 -0.8592  0.9971
   80SLPC  H12A 7357   1.058   0.534   6.251 -1.0610  1.8944  0.3117
   80SLPC  H12B 7358   1.017   0.563   6.409 -0.7459 -2.0820  0.5568
   80SLPC   C11 7359   1.206   0.463   6.387 -0.6562  0.0815  0.1827
   80SLPC  H11A 7360   1.147   0.376   6.422 -1.8070 -0.4420 -2.7739
   80SLPC  H11B 7361   1.265   0.507   6.470 -2.5748  0.6932  1.2636
   80SLPC     P 7362   1.407   0.321   6.292  0.0837  0.0127  0.4465
   80SLPC   O13 7363   1.358   0.181   6.291 -0.3622 -0.1677 -0.1866
   80SLPC   O14 7364   1.509   0.337   6.181  0.1998  0.4802 -0.2908
   80SLPC   O12 7365   1.289   0.424   6.280 -0.4138  0.7508 -0.2390
   80SLPC   O11 7366   1.466   0.358   6.434 -0.1423  0.3082 -0.0277
   80SLPC    C1 7367   1.515   0.273   6.533  1.0097 -0.2420 -0.0472
   80SLPC    HA 7368   1.548   0.181   6.480  1.0740  0.0641 -0.5418
   80SLPC    HB 7369   1.596   0.332   6.581  0.9482  0.9736 -1.3633
   80SLPC    C2 7370   1.406   0.230   6.632  0.5582 -0.2598  0.2669
   80SLPC    HS 7371   1.326   0.192   6.565  0.5683  0.3996 -0.1379
   80SLPC   O21 7372   1.363   0.345   6.708  0.2197 -0.0599  0.0548
   80SLPC   C21 7373   1.239   0.329   6.762  0.0477 -0.3521 -0.0260
   80SLPC   O22 7374   1.170   0.228   6.748 -0.1965  0.1330  0.4986
   80SLPC   C22 7375   1.191   0.460   6.819  0.1972 -0.5838 -0.3350
   80SLPC   H2R 7376   1.282   0.505   6.865  0.8240 -2.3426  0.2271
   80SLPC   H2S 7377   1.154   0.533   6.745  0.4332  1.8102  1.7586
   80SLPC    C3 7378   1.450   0.114   6.723  0.4046 -0.1950  0.4061
   80SLPC    HX 7379   1.461   0.018   6.667  2.1277 -0.1371  0.5821
   80SLPC    HY 7380   1.370   0.090   6.795  0.6764 -0.0091  0.7703
   80SLPC   O31 7381   1.579   0.137   6.784  0.7893 -0.0780  0.2830
   80SLPC   C31 7382   1.566   0.201   6.903 -0.1486  0.5923  1.0315
   80SLPC   O32 7383   1.469   0.191   6.980 -0.1434 -0.2991 -0.2079
   80SLPC   C32 7384   1.690   0.274   6.934  0.1557 -0.4059  0.0477
   80SLPC   H2X 7385   1.773   0.238   6.869  1.6818  2.2328  0.4083
   80SLPC   H2Y 7386   1.705   0.257   7.042 -0.4610 -0.0264  0.2000
   80SLPC   C23 7387   1.071   0.445   6.925 -0.3395 -0.1689  0.2860
   80SLPC   H3R 7388   1.001   0.367   6.888 -0.3497 -0.3891  0.7674
   80SLPC   H3S 7389   1.011   0.538   6.926 -0.7340 -0.4211  0.5429
   80SLPC   C24 7390   1.105   0.423   7.068 -0.0907  0.5894 -0.3938
   80SLPC   H4R 7391   1.210   0.455   7.089 -0.4281  0.5307  1.5754
   80SLPC   H4S 7392   1.122   0.314   7.083  0.9491  1.0271  2.3419
   80SLPC   C25 7393   1.013   0.471   7.188 -0.0550 -0.0918 -0.5157
   80SLPC   H5R 7394   1.012   0.582   7.186  2.3406  0.0415  1.4418
   80SLPC   H5S 7395   1.064   0.452   7.284 -2.8857 -1.6458  0.8057
   80SLPC   C26 7396   0.873   0.398   7.207 -0.2960  0.0289 -0.0334
   80SLPC   H6R 7397   0.889   0.290   7.228  0.8963  0.5944  2.4341
   80SLPC   H6S 7398   0.832   0.420   7.106 -0.1878 -2.3306 -0.6552
   80SLPC   C27 7399   0.805   0.461   7.322  0.1338  0.7361 -0.0434
   80SLPC   H7R 7400   0.790   0.566   7.291 -2.9981  0.5102  0.4084
   80SLPC   H7S 7401   0.870   0.462   7.413  1.8856  2.3266 -1.2509
   80SLPC   C28 7402   0.662   0.401   7.354 -0.0703  0.2612 -0.1428
   80SLPC   H8R 7403   0.678   0.293   7.376 -0.7279  0.6525  2.6760
   80SLPC   H8S 7404   0.593   0.417   7.269 -0.9603  0.0289  0.5283
   80SLPC   C29 7405   0.607   0.473   7.473  0.1979 -0.5458  0.4258
   80SLPC   H9R 7406   0.675   0.478   7.559  2.8406 -0.4248 -1.5422
   80SLPC  C210 7407   0.478   0.520   7.479  0.3017 -0.2341  0.1968
   80SLPC  H10R 7408   0.436   0.566   7.569 -0.1506  1.9385 -1.0493
   80SLPC  C211 7409   0.390   0.529   7.354 -0.1985  0.5918 -0.4294
   80SLPC  H11R 7410   0.375   0.430   7.306 -0.7291  0.3864  0.1470
   80SLPC  H11S 7411   0.442   0.595   7.281 -1.7030  2.6532  0.2464
   80SLPC  C212 7412   0.250   0.578   7.386  0.2071 -0.0703  0.2784
   80SLPC  H12R 7413   0.212   0.581   7.489 -2.3110  0.9202 -0.6064
   80SLPC  C213 7414   0.159   0.604   7.289 -0.3225  0.0514 -0.1253
   80SLPC  H13R 7415   0.056   0.632   7.317 -0.1510 -0.2618  0.8437
   80SLPC  C214 7416   0.178   0.593   7.139  0.1447  0.3218 -0.1346
   80SLPC  H14R 7417   0.276   0.543   7.126 -0.5834 -1.3921  0.6367
   80SLPC  H14S 7418   0.200   0.692   7.093  1.3170  1.0778  1.9066
   80SLPC  C215 7419   0.082   0.512   7.057  0.0589 -0.4124  0.2909
   80SLPC  H15R 7420   0.079   0.404   7.086  1.4421 -1.4079 -2.8775
   80SLPC  H15S 7421   0.124   0.516   6.955  0.0364 -2.7935  0.1347
   80SLPC  C216 7422  -0.058   0.575   7.056 -0.2663 -0.6552  0.0833
   80SLPC  H16R 7423  -0.035   0.684   7.047  1.0807 -0.9200  0.0730
   80SLPC  H16S 7424  -0.116   0.556   7.149 -0.5460  2.9655  0.7934
   80SLPC  C217 7425  -0.141   0.531   6.930 -0.5911  0.2855  0.5026
   80SLPC  H17R 7426  -0.151   0.421   6.924  0.5396  0.0708  1.9807
   80SLPC  H17S 7427  -0.075   0.549   6.843 -1.0106  0.1048  0.1450
   80SLPC  C218 7428  -0.279   0.589   6.911 -0.0078  0.3807 -0.3918
   80SLPC  H18R 7429  -0.319   0.543   6.818 -1.1771 -3.0367  1.6361
   80SLPC  H18S 7430  -0.269   0.699   6.898 -1.4591  0.4476 -1.0390
   80SLPC  H18T 7431  -0.352   0.570   6.992 -0.8678 -0.1103 -1.2605
   80SLPC   C33 7432   1.651   0.427   6.920 -0.0111 -0.4639 -0.5404
   80SLPC   H3X 7433   1.562   0.454   6.980  1.2063  3.8428 -0.3372
   80SLPC   H3Y 7434   1.629   0.450   6.814 -0.2702  0.2275 -0.3409
   80SLPC   C34 7435   1.755   0.532   6.970  0.2686 -0.0428  0.0519
   80SLPC   H4X 7436   1.725   0.627   6.919 -1.4023 -0.4709  0.1925
   80SLPC   H4Y 7437   1.861   0.513   6.943 -0.7195 -0.6590 -4.1503
   80SLPC   C35 7438   1.732   0.558   7.119 -0.6118  0.5491 -0.7238
   80SLPC   H5X 7439   1.798   0.490   7.177 -0.0462  0.7708 -1.0954
   80SLPC   H5Y 7440   1.627   0.534   7.148 -0.9143  0.8390 -1.5607
   80SLPC   C36 7441   1.784   0.695   7.169 -0.1243  0.5738 -0.0993
   80SLPC   H6X 7442   1.736   0.781   7.118 -0.9401  0.2229  0.0565
   80SLPC   H6Y 7443   1.891   0.707   7.142  0.7146 -2.4881  1.4325
   80SLPC   C37 7444   1.777   0.705   7.324 -0.1945  0.5851 -0.1512
   80SLPC   H7X 7445   1.853   0.640   7.372  1.3391  2.0680 -0.4637
   80SLPC   H7Y 7446   1.681   0.658   7.353  0.2386 -0.2331 -0.0051
   80SLPC   C38 7447   1.796   0.846   7.382 -0.1206  0.1178  0.0879
   80SLPC   H8X 7448   1.698   0.892   7.356  0.3216  0.0408 -1.8766
   80SLPC   H8Y 7449   1.873   0.907   7.330  1.7327  0.0115  2.5442
   80SLPC   C39 7450   1.833   0.859   7.530  0.0763  0.0889  0.3403
   80SLPC   H9X 7451   1.944   0.855   7.540  0.1587  2.4242  1.0429
   80SLPC   H9Y 7452   1.774   0.777   7.576  2.4625 -1.8845  0.1552
   80SLPC  C310 7453   1.800   0.986   7.602 -0.8597 -0.3007 -0.5469
   80SLPC  H10X 7454   1.693   1.006   7.577 -0.5938  0.4945 -1.0681
   80SLPC  H10Y 7455   1.868   1.063   7.561 -0.6929 -0.8534 -1.3238
   80SLPC  C311 7456   1.815   0.971   7.751 -0.1468 -0.7495  0.1030
   80SLPC  H11X 7457   1.921   0.975   7.785 -0.6813  1.2153  1.7449
   80SLPC  H11Y 7458   1.770   0.874   7.779 -0.8926 -1.8193 -4.1631
   80SLPC  C312 7459   1.746   1.093   7.813  0.1849  0.1656  0.1356
   80SLPC  H12X 7460   1.646   1.094   7.765  0.5603 -3.2922 -1.0218
   80SLPC  H12Y 7461   1.799   1.186   7.784 -0.8397  1.0655  1.1036
   80SLPC  C313 7462   1.723   1.089   7.962  0.0567 -0.6781  0.3854
   80SLPC  H13X 7463   1.666   0.997   7.987 -2.6752  0.9799  0.6782
   80SLPC  H13Y 7464   1.657   1.173   7.994 -1.1215 -1.3471 -0.1841
   80SLPC  C314 7465   1.854   1.092   8.052 -0.6619  0.3707 -0.6605
   80SLPC  H14X 7466   1.894   1.195   8.037 -0.8407  0.1813 -2.6032
   80SLPC  H14Y 7467   1.930   1.029   8.002  0.9505  1.1688  0.6621
   80SLPC  C315 7468   1.833   1.059   8.199  0.2141 -0.3020 -0.4114
   80SLPC  H15X 7469   1.736   1.107   8.225  0.4847  0.5874 -0.9981
   80SLPC  H15Y 7470   1.906   1.120   8.256 -0.0802  0.0848 -0.4395
   80SLPC  C316 7471   1.830   0.907   8.235 -0.6167  0.1794 -0.4447
   80SLPC  H16X 7472   1.935   0.874   8.240 -0.1255  1.7749  2.6171
   80SLPC  H16Y 7473   1.787   0.854   8.147  0.1803  1.0945 -1.4119
   80SLPC  C317 7474   1.767   0.872   8.372  0.3080  0.2571 -0.4777
   80SLPC  H17X 7475   1.727   0.769   8.358 -0.4795  0.7468 -2.0661
   80SLPC  H17Y 7476   1.672   0.929   8.386  0.0374  0.3150 -2.2688
   80SLPC  C318 7477   1.869   0.886   8.487 -0.0638  0.4171  0.0581
   80SLPC  H18X 7478   1.816   0.870   8.584 -1.3834  3.6266  0.0081
   80SLPC  H18Y 7479   1.910   0.989   8.500  0.0022  0.4122 -0.1179
   80SLPC  H18Z 7480   1.949   0.812   8.470 -0.9983 -0.5049 -0.4050
   81SAPS     N 7481   1.892   0.466  10.987  0.3434 -0.5540 -0.0055
   81SAPS   HN1 7482   1.844   0.473  10.895 -0.7357  0.7960  0.6087
   81SAPS   HN2 7483   1.900   0.566  11.016 -1.9599 -0.4357  0.4563
   81SAPS   HN3 7484   1.988   0.426  10.988  1.5620  2.0209  2.2488
   81SAPS   C12 7485   1.805   0.389  11.073  0.2448  0.3235  0.2869
   81SAPS  H12A 7486   1.809   0.285  11.043 -0.4346  0.4317 -0.1874
   81SAPS   C13 7487   1.831   0.410  11.217 -0.3958  0.4503  0.0019
   81SAPS  O13A 7488   1.925   0.481  11.252 -0.0476  0.0998 -0.5355
   81SAPS  O13B 7489   1.755   0.359  11.305  0.3759  0.5271  0.0720
   81SAPS   C11 7490   1.664   0.437  11.041  0.1047 -0.2105  0.5717
   81SAPS  H11A 7491   1.637   0.537  11.083 -0.1397 -0.0318  0.0029
   81SAPS  H11B 7492   1.607   0.358  11.094 -0.7369 -0.0013 -0.0021
   81SAPS     P 7493   1.484   0.455  10.855  0.0132 -0.2151 -0.2077
   81SAPS   O13 7494   1.469   0.443  10.707  0.1085 -0.1688  0.5418
   81SAPS   O14 7495   1.398   0.368  10.936 -0.0405  0.1225 -0.1167
   81SAPS   O12 7496   1.636   0.426  10.902 -0.0320 -0.3266  0.2852
   81SAPS   O11 7497   1.469   0.603  10.906  0.0783 -0.7182  0.1113
   81SAPS    C1 7498   1.546   0.714  10.876 -0.2538 -0.2822  0.4397
   81SAPS    HA 7499   1.539   0.782  10.964 -0.6127  0.7772 -0.3746
   81SAPS    HB 7500   1.651   0.683  10.860 -0.4961 -0.8005 -0.1566
   81SAPS    C2 7501   1.486   0.815  10.773  0.2381 -0.1071  0.4617
   81SAPS    HS 7502   1.376   0.802  10.787  0.1647 -1.2436 -0.8787
   81SAPS   O21 7503   1.532   0.792  10.642 -0.2189 -0.0489 -0.1261
   81SAPS   C21 7504   1.441   0.739  10.554 -0.1461 -0.0483 -0.5904
   81SAPS   O22 7505   1.324   0.712  10.582 -0.0104  0.2166 -0.1845
   81SAPS   C22 7506   1.515   0.716  10.426 -0.2710  0.0269 -0.1159
   81SAPS   H2R 7507   1.505   0.801  10.355 -0.2068 -0.2374 -0.4452
   81SAPS   H2S 7508   1.622   0.693  10.448 -0.4371 -1.0461 -0.3623
   81SAPS    C3 7509   1.518   0.962  10.809  0.1564  0.1491  0.1024
   81SAPS    HX 7510   1.626   0.956  10.834  0.3081 -0.9496 -0.7443
   81SAPS    HY 7511   1.458   0.972  10.902 -3.0463 -2.2265 -1.4884
   81SAPS   O31 7512   1.493   1.065  10.715 -0.1674 -0.6119  0.3456
   81SAPS   C31 7513   1.361   1.101  10.702 -0.0837  0.0785  0.1840
   81SAPS   O32 7514   1.273   1.070  10.776  0.4814 -0.0273  0.5827
   81SAPS   C32 7515   1.343   1.191  10.582  0.1771  1.1442  0.3573
   81SAPS   H2X 7516   1.397   1.286  10.606 -0.7999  1.4937  1.2617
   81SAPS   H2Y 7517   1.238   1.223  10.567 -0.3782 -1.8504 -3.4271
   81SAPS   C23 7518   1.470   0.581  10.359  0.2478  0.1105  0.3943
   81SAPS   H3R 7519   1.360   0.593  10.346 -0.2698 -2.0667  2.0301
   81SAPS   H3S 7520   1.485   0.491  10.424  0.9802  0.2007  0.3537
   81SAPS   C24 7521   1.514   0.562  10.215 -0.3318  0.2984  0.4085
   81SAPS   H4R 7522   1.516   0.654  10.153  1.5140  0.8587  1.2201
   81SAPS   H4S 7523   1.438   0.495  10.169 -0.0157 -1.1046  1.8197
   81SAPS   C25 7524   1.654   0.492  10.217 -0.3643 -0.5807 -0.9315
   81SAPS   H5R 7525   1.671   0.414  10.293  1.1918 -0.4940 -1.1545
   81SAPS   C26 7526   1.749   0.509  10.130  0.4167  0.2484  0.0278
   81SAPS   H6R 7527   1.843   0.459  10.158  0.8190  0.6028 -0.6594
   81SAPS   C27 7528   1.745   0.604  10.014 -0.5612 -0.1422 -0.7622
   81SAPS   H7R 7529   1.843   0.626   9.967 -0.1119  0.2538  0.3423
   81SAPS   H7S 7530   1.713   0.697  10.065 -0.6184 -1.8363  2.5644
   81SAPS   C28 7531   1.653   0.563   9.891 -0.2545  1.0893 -1.1199
   81SAPS   H8R 7532   1.633   0.455   9.891  1.4232  0.6187  2.4908
   81SAPS   C29 7533   1.600   0.642   9.804 -0.3289 -0.0122  0.3166
   81SAPS   H9R 7534   1.533   0.599   9.728 -0.1327 -0.2635  0.2836
   81SAPS  C210 7535   1.601   0.795   9.810  0.0680  0.2234 -0.3704
   81SAPS  H10R 7536   1.600   0.837   9.913 -1.0920  0.5017 -0.4808
   81SAPS  H10S 7537   1.504   0.829   9.768 -0.1238  0.0333 -0.0876
   81SAPS  C211 7538   1.711   0.860   9.737  0.1612  0.4683  0.1882
   81SAPS  H11R 7539   1.794   0.864   9.809 -0.6240  1.7621  1.0592
   81SAPS  C212 7540   1.710   0.901   9.604 -0.6791  0.1171  0.1441
   81SAPS  H12R 7541   1.802   0.930   9.551 -1.3094  0.0816 -1.0012
   81SAPS  C213 7542   1.599   0.879   9.507 -0.3718 -0.2137 -0.2725
   81SAPS  H13R 7543   1.520   0.819   9.558 -2.4401  3.9376  1.9244
   81SAPS  H13S 7544   1.625   0.817   9.419  0.2662  2.2579 -1.9420
   81SAPS  C214 7545   1.522   1.004   9.482  0.4991 -0.3659  0.4727
   81SAPS  H14R 7546   1.486   1.054   9.573  0.6103  0.8661 -0.1500
   81SAPS  C215 7547   1.484   1.053   9.362 -0.2600 -0.1698 -0.1252
   81SAPS  H15R 7548   1.425   1.145   9.347 -0.8482 -0.4914  0.1949
   81SAPS  C216 7549   1.507   0.979   9.235 -0.0023 -0.0319  0.0246
   81SAPS  H16R 7550   1.486   0.872   9.254  0.8792 -0.0811  0.8530
   81SAPS  H16S 7551   1.615   0.985   9.209 -0.8537  1.1046 -3.9182
   81SAPS  C217 7552   1.414   1.027   9.123 -0.0019  0.0227  0.7161
   81SAPS  H17R 7553   1.311   1.002   9.156 -0.1086 -1.7466 -0.7991
   81SAPS  H17S 7554   1.439   0.967   9.032  0.5261  0.3207  0.6546
   81SAPS  C218 7555   1.404   1.171   9.077 -0.0956  0.5156  0.4065
   81SAPS  H18R 7556   1.373   1.232   9.164 -0.7032  0.0334  0.5362
   81SAPS  H18S 7557   1.316   1.183   9.011 -0.4451  0.4053  0.8489
   81SAPS  C219 7558   1.528   1.233   9.017 -0.3162  0.4175 -0.6936
   81SAPS  H19R 7559   1.568   1.179   8.928  1.9651  1.3119 -0.2760
   81SAPS  H19S 7560   1.603   1.220   9.098 -1.7485 -2.4709  0.2933
   81SAPS  C220 7561   1.530   1.380   8.973  0.2742 -0.0869 -0.1607
   81SAPS  H20R 7562   1.448   1.406   8.902 -1.6402  0.8714  2.2479
   81SAPS  H20S 7563   1.632   1.406   8.937  0.3142  0.2589  0.1867
   81SAPS  H20T 7564   1.505   1.448   9.058  0.6614  0.3143 -0.3655
   81SAPS   C33 7565   1.387   1.127  10.440 -0.4896  0.1440 -0.0638
   81SAPS   H3X 7566   1.480   1.069  10.454  0.1169  1.5765  2.5672
   81SAPS   H3Y 7567   1.423   1.201  10.366 -0.2688 -0.1681 -0.2678
   81SAPS   C34 7568   1.266   1.053  10.380  0.1750  0.4970  0.0125
   81SAPS   H4X 7569   1.180   1.123  10.381 -0.5454 -0.2577  3.7333
   81SAPS   H4Y 7570   1.247   0.966  10.446  3.0505  0.7281  1.2955
   81SAPS   C35 7571   1.301   0.994  10.244  0.6419 -0.1659  0.0128
   81SAPS   H5X 7572   1.404   0.952  10.252  1.0527  1.0189  1.2758
   81SAPS   H5Y 7573   1.297   1.078  10.171 -2.3220  1.6356  2.0488
   81SAPS   C36 7574   1.211   0.869  10.219 -0.2273 -0.2415  0.5183
   81SAPS   H6X 7575   1.108   0.906  10.236 -0.9932 -1.8641 -0.4274
   81SAPS   H6Y 7576   1.240   0.795  10.297 -1.0170 -1.0561  0.0482
   81SAPS   C37 7577   1.219   0.812  10.076  0.3909  0.0740  0.4547
   81SAPS   H7X 7578   1.157   0.719  10.081  0.1233  0.2246 -0.0811
   81SAPS   H7Y 7579   1.324   0.778  10.061  1.5669  2.4469  2.5342
   81SAPS   C38 7580   1.162   0.904   9.959  0.3449  0.2308 -0.0407
   81SAPS   H8X 7581   1.238   0.985   9.963  0.1732  0.3735  0.5350
   81SAPS   H8Y 7582   1.064   0.947   9.988  0.3682  1.5375 -1.7665
   81SAPS   C39 7583   1.168   0.834   9.821  0.1356  0.0632  0.3976
   81SAPS   H9X 7584   1.123   0.733   9.828  0.3471 -0.0582  0.0797
   81SAPS   H9Y 7585   1.274   0.819   9.790  0.6380  0.3250  1.9377
   81SAPS  C310 7586   1.095   0.904   9.708 -0.1042  0.5194  0.4665
   81SAPS  H10X 7587   1.137   1.007   9.700  0.1802  0.2477 -3.0211
   81SAPS  H10Y 7588   0.989   0.916   9.741  0.1800  0.4737  1.4175
   81SAPS  C311 7589   1.111   0.850   9.570  0.4543 -0.0494  0.4036
   81SAPS  H11X 7590   1.105   0.739   9.559  2.2522 -0.2687  1.2226
   81SAPS  H11Y 7591   1.211   0.882   9.533  0.3244  1.6836  1.4581
   81SAPS  C312 7592   1.010   0.900   9.464 -0.4850  0.3201 -0.1274
   81SAPS  H12X 7593   0.993   1.009   9.474  1.3545  0.7465 -1.0515
   81SAPS  H12Y 7594   0.914   0.848   9.480  0.2129 -0.8582  0.3447
   81SAPS  C313 7595   1.060   0.864   9.316  0.2738  0.0334 -0.1969
   81SAPS  H13X 7596   1.079   0.754   9.309 -1.6106 -0.3446  0.1433
   81SAPS  H13Y 7597   1.151   0.926   9.301  0.8008 -0.4403  0.9129
   81SAPS  C314 7598   0.963   0.913   9.204 -0.5839 -0.0557  0.2194
   81SAPS  H14X 7599   0.941   1.020   9.226  0.6410  0.2647 -0.0492
   81SAPS  H14Y 7600   0.862   0.867   9.215 -0.1823 -1.5822 -1.7813
   81SAPS  C315 7601   1.029   0.914   9.061 -0.3676  1.0324 -0.6621
   81SAPS  H15X 7602   1.051   0.808   9.036  1.9541  0.1615  3.8973
   81SAPS  H15Y 7603   1.133   0.954   9.065 -0.3700  0.9405  1.9958
   81SAPS  C316 7604   0.969   0.961   8.926 -0.0025 -0.5484  0.4565
   81SAPS  H16X 7605   0.950   1.069   8.943 -1.3251 -0.8428  1.0355
   81SAPS  H16Y 7606   0.868   0.917   8.911 -0.1458  0.0298 -0.3152
   81SAPS  C317 7607   1.056   0.936   8.796 -0.0957 -0.0910  0.2591
   81SAPS  H17X 7608   1.062   0.832   8.758  0.7227  0.4760 -1.2555
   81SAPS  H17Y 7609   1.158   0.973   8.820 -0.2916  0.6931 -0.0915
   81SAPS  C318 7610   1.003   1.012   8.677  0.2181  0.4175  0.3570
   81SAPS  H18X 7611   0.905   0.970   8.645 -0.5414  0.1741  2.8443
   81SAPS  H18Y 7612   1.072   1.026   8.591 -1.4117 -1.0043 -1.2649
   81SAPS  H18Z 7613   0.988   1.119   8.703  1.7787  0.8219 -0.3069
   82SAPS     N 7614   1.157   5.713  10.888 -0.1934  0.2477  0.4824
   82SAPS   HN1 7615   1.205   5.624  10.911  0.2568 -0.1482 -1.7506
   82SAPS   HN2 7616   1.093   5.709  10.806 -0.9600  0.2323  1.0692
   82SAPS   HN3 7617   1.234   5.779  10.863 -0.7735  0.0936 -2.0488
   82SAPS   C12 7618   1.069   5.746  11.008 -0.6591  0.1469  0.1548
   82SAPS  H12A 7619   1.012   5.659  11.035  0.4378 -0.5319  0.3611
   82SAPS   C13 7620   1.164   5.767  11.131 -0.3387 -0.4251 -0.2183
   82SAPS  O13A 7621   1.267   5.697  11.134  0.2884  0.4685  0.2320
   82SAPS  O13B 7622   1.114   5.798  11.242  0.0777 -0.0777 -0.3595
   82SAPS   C11 7623   0.979   5.875  10.985 -0.6967 -0.3984  0.5018
   82SAPS  H11A 7624   1.039   5.941  10.919 -1.8603 -2.7754 -3.2175
   82SAPS  H11B 7625   0.964   5.934  11.078  0.8597  3.6299 -1.5543
   82SAPS     P 7626   0.761   5.936  10.847  0.3348  0.1631  0.2730
   82SAPS   O13 7627   0.677   5.856  10.754 -0.4421 -0.5277  0.6095
   82SAPS   O14 7628   0.684   6.009  10.941 -0.2330 -0.5698 -0.0145
   82SAPS   O12 7629   0.858   5.837  10.926 -0.3926 -0.0836 -0.0394
   82SAPS   O11 7630   0.849   6.036  10.762 -0.2168 -0.0367 -0.2738
   82SAPS    C1 7631   0.963   6.008  10.677  0.8388 -0.1081 -0.7643
   82SAPS    HA 7632   1.059   6.049  10.715  0.5475  1.0052 -1.2008
   82SAPS    HB 7633   0.978   5.897  10.679 -1.0142 -0.3798  0.0411
   82SAPS    C2 7634   0.933   6.055  10.533  0.0652 -0.0442 -0.6977
   82SAPS    HS 7635   0.920   6.165  10.529 -0.0432 -0.0816 -1.5837
   82SAPS   O21 7636   0.807   5.986  10.481  0.0756  0.1277  0.2342
   82SAPS   C21 7637   0.694   6.059  10.498  0.4679  0.2875  0.3635
   82SAPS   O22 7638   0.699   6.177  10.526  0.5283 -0.0315  0.4865
   82SAPS   C22 7639   0.572   5.969  10.464  0.2738  0.0530 -0.5796
   82SAPS   H2R 7640   0.610   5.883  10.406  1.8671 -0.5346  1.2542
   82SAPS   H2S 7641   0.519   5.934  10.556  1.2624 -0.4242 -0.1813
   82SAPS    C3 7642   1.064   6.025  10.452  0.2234 -0.4341  0.1659
   82SAPS    HX 7643   1.103   5.922  10.460  0.0237 -0.6230 -1.0215
   82SAPS    HY 7644   1.145   6.093  10.486 -3.6285  3.4683  2.7511
   82SAPS   O31 7645   1.039   6.052  10.313  0.4037 -0.6766  1.1631
   82SAPS   C31 7646   1.033   6.182  10.268 -1.2359  1.5601 -0.5099
   82SAPS   O32 7647   1.045   6.283  10.335  0.7295  0.3971  0.1430
   82SAPS   C32 7648   0.996   6.178  10.127  0.0538 -0.3337  0.4687
   82SAPS   H2X 7649   0.891   6.142  10.129 -0.3777  0.8714  0.1472
   82SAPS   H2Y 7650   1.058   6.100  10.078  1.7562  0.3642  1.4253
   82SAPS   C23 7651   0.483   6.063  10.378 -0.0078  0.0713 -0.1173
   82SAPS   H3R 7652   0.450   6.157  10.426 -1.0711  0.4035 -1.4637
   82SAPS   H3S 7653   0.389   6.008  10.356  0.3082 -0.4210 -0.2534
   82SAPS   C24 7654   0.545   6.080  10.233 -0.1931 -0.3965 -0.4908
   82SAPS   H4R 7655   0.544   5.978  10.191  0.0785 -1.6929  2.3641
   82SAPS   H4S 7656   0.649   6.117  10.243 -0.8345  1.4026 -0.0192
   82SAPS   C25 7657   0.463   6.168  10.148 -0.1403 -0.3476 -0.1403
   82SAPS   H5R 7658   0.361   6.130  10.129 -0.4390 -0.6263  1.8039
   82SAPS   C26 7659   0.498   6.287  10.097  0.0266 -0.5773  0.0321
   82SAPS   H6R 7660   0.415   6.332  10.040  0.1831 -0.5269 -0.1551
   82SAPS   C27 7661   0.623   6.357  10.120 -0.0661 -0.8379  0.2799
   82SAPS   H7R 7662   0.660   6.413  10.032  1.4718 -0.6226  1.0271
   82SAPS   H7S 7663   0.706   6.286  10.142  0.5422 -0.1306  0.3280
   82SAPS   C28 7664   0.613   6.447  10.231  0.9570  0.1061 -0.4679
   82SAPS   H8R 7665   0.616   6.404  10.333  4.1560 -0.0448 -0.5367
   82SAPS   C29 7666   0.590   6.580  10.214 -0.5001  0.0540  0.2170
   82SAPS   H9R 7667   0.582   6.641  10.305  1.3553  0.0142  0.4523
   82SAPS  C210 7668   0.583   6.648  10.079  0.1941 -0.1379  0.5910
   82SAPS  H10R 7669   0.512   6.600  10.008  0.2216 -1.3057  1.3333
   82SAPS  H10S 7670   0.677   6.624  10.025 -0.2491 -1.3298  0.3180
   82SAPS  C211 7671   0.553   6.793  10.073  0.1699 -0.2455  0.6307
   82SAPS  H11R 7672   0.506   6.831  10.165  0.0361 -2.5896  1.6016
   82SAPS  C212 7673   0.562   6.880   9.966 -0.0387 -0.3001  0.8048
   82SAPS  H12R 7674   0.516   6.979   9.977 -3.1996 -1.1406 -2.7547
   82SAPS  C213 7675   0.598   6.827   9.832 -0.3405 -0.0590  0.2391
   82SAPS  H13R 7676   0.593   6.716   9.832 -0.0682 -0.0754 -0.2837
   82SAPS  H13S 7677   0.705   6.852   9.814  1.0644 -5.4208 -0.5025
   82SAPS  C214 7678   0.520   6.889   9.724  1.1945 -0.0238  0.7619
   82SAPS  H14R 7679   0.440   6.957   9.758 -0.2491 -0.3222 -1.7554
   82SAPS  C215 7680   0.533   6.867   9.590  0.8683 -0.1382 -0.2585
   82SAPS  H15R 7681   0.466   6.931   9.533 -0.0623  1.0631  2.0453
   82SAPS  C216 7682   0.628   6.785   9.513  0.8123 -0.0788 -0.2188
   82SAPS  H16R 7683   0.704   6.744   9.582 -0.2183  1.2881  1.8112
   82SAPS  H16S 7684   0.689   6.855   9.453  2.9518 -0.2957  1.5796
   82SAPS  C217 7685   0.558   6.687   9.418  0.3842 -0.5869 -0.2668
   82SAPS  H17R 7686   0.619   6.648   9.334  0.3576 -0.5152 -0.3198
   82SAPS  H17S 7687   0.486   6.750   9.362 -0.8147 -2.3746 -0.7940
   82SAPS  C218 7688   0.508   6.560   9.484 -0.4234 -0.4969 -0.0871
   82SAPS  H18R 7689   0.436   6.505   9.419 -1.3437  1.1326 -0.5143
   82SAPS  H18S 7690   0.452   6.594   9.574 -0.7975 -2.9651  0.6666
   82SAPS  C219 7691   0.616   6.472   9.552  0.5660 -0.1140  0.1591
   82SAPS  H19R 7692   0.680   6.540   9.612 -0.7366  2.8540 -1.6010
   82SAPS  H19S 7693   0.692   6.419   9.492  0.1586  1.0318 -1.4358
   82SAPS  C220 7694   0.553   6.372   9.650 -0.0533 -0.1092  0.2983
   82SAPS  H20R 7695   0.555   6.269   9.611 -2.1538  0.4096 -1.3454
   82SAPS  H20S 7696   0.450   6.403   9.675 -0.6495 -0.7046 -1.3155
   82SAPS  H20T 7697   0.629   6.370   9.731  1.5229  0.2742 -1.1060
   82SAPS   C33 7698   1.014   6.314  10.056  0.2450  0.5987 -0.5718
   82SAPS   H3X 7699   1.118   6.353  10.047 -0.6411  2.8565 -1.5230
   82SAPS   H3Y 7700   0.960   6.386  10.119 -1.0664 -1.7155  1.1125
   82SAPS   C34 7701   0.950   6.311   9.922  0.6050 -0.6433 -0.1016
   82SAPS   H4X 7702   0.887   6.401   9.908 -0.8832 -1.7375 -0.6002
   82SAPS   H4Y 7703   0.877   6.228   9.910  0.8131 -0.7593 -0.5931
   82SAPS   C35 7704   1.047   6.298   9.814 -0.4949  0.1458  0.7416
   82SAPS   H5X 7705   1.097   6.201   9.836  0.9412  0.8790  0.8265
   82SAPS   H5Y 7706   1.125   6.375   9.829 -0.5605  0.1129  1.2639
   82SAPS   C36 7707   0.994   6.296   9.666  0.6721 -0.1732 -1.0001
   82SAPS   H6X 7708   0.928   6.386   9.665  1.7448  0.6996  0.6589
   82SAPS   H6Y 7709   0.928   6.209   9.648  0.2983 -0.4836  1.5150
   82SAPS   C37 7710   1.095   6.331   9.566  0.4581 -0.0331 -0.8586
   82SAPS   H7X 7711   1.148   6.236   9.543  1.5636 -0.7309  3.6289
   82SAPS   H7Y 7712   1.177   6.403   9.586  0.7563  0.1373 -2.5539
   82SAPS   C38 7713   1.020   6.351   9.438 -0.0109 -0.4096 -0.2227
   82SAPS   H8X 7714   0.965   6.447   9.445 -0.7085 -0.8221  0.1098
   82SAPS   H8Y 7715   0.950   6.270   9.408  0.0495  0.3954 -2.7069
   82SAPS   C39 7716   1.128   6.363   9.325  0.1041  0.2075 -0.0384
   82SAPS   H9X 7717   1.190   6.273   9.308  1.5474  1.4332 -1.6656
   82SAPS   H9Y 7718   1.199   6.446   9.345 -1.5753  1.6448  0.2045
   82SAPS  C310 7719   1.061   6.379   9.186 -0.2744 -0.4303 -0.0800
   82SAPS  H10X 7720   0.971   6.443   9.203 -0.3235 -0.5303  0.0358
   82SAPS  H10Y 7721   1.029   6.283   9.141 -1.5803 -1.2827  2.4667
   82SAPS  C311 7722   1.153   6.456   9.085  0.2620 -0.0477  0.5873
   82SAPS  H11X 7723   1.243   6.392   9.078  0.5261  0.1657  1.6858
   82SAPS  H11Y 7724   1.179   6.557   9.125  1.7347  1.2665 -3.2917
   82SAPS  C312 7725   1.091   6.471   8.944 -0.6378 -0.1130  0.0511
   82SAPS  H12X 7726   1.001   6.535   8.950 -1.7170 -1.3409 -2.0594
   82SAPS  H12Y 7727   1.051   6.378   8.898 -2.1298 -0.0846  1.2229
   82SAPS  C313 7728   1.170   6.547   8.828 -0.6429  0.0187 -0.1996
   82SAPS  H13X 7729   1.250   6.484   8.785 -0.2622  1.5462 -1.8719
   82SAPS  H13Y 7730   1.211   6.637   8.879  1.5831 -2.0663  1.9182
   82SAPS  C314 7731   1.086   6.578   8.706 -0.1252 -0.0794 -0.0965
   82SAPS  H14X 7732   1.069   6.688   8.704 -0.7897 -0.1801 -1.5727
   82SAPS  H14Y 7733   0.987   6.529   8.718  0.9387 -2.8533 -1.7580
   82SAPS  C315 7734   1.163   6.545   8.578 -0.6264  0.2184  0.1048
   82SAPS  H15X 7735   1.180   6.436   8.568 -3.2787 -0.2962  0.3613
   82SAPS  H15Y 7736   1.258   6.601   8.586 -1.4039  1.9674 -1.8094
   82SAPS  C316 7737   1.093   6.596   8.449 -0.2913 -0.4250  0.8228
   82SAPS  H16X 7738   1.069   6.704   8.451 -1.3803 -0.6322 -0.0527
   82SAPS  H16Y 7739   1.000   6.535   8.451  0.3531 -1.4194  1.0951
   82SAPS  C317 7740   1.165   6.547   8.318  0.1502 -0.6007  0.4272
   82SAPS  H17X 7741   1.188   6.439   8.308  0.6544 -0.4921  0.4000
   82SAPS  H17Y 7742   1.259   6.605   8.301 -0.2660 -0.2233 -0.6860
   82SAPS  C318 7743   1.065   6.575   8.198 -0.4097 -0.4240 -0.2174
   82SAPS  H18X 7744   1.126   6.548   8.109  0.3399  0.3260  0.0570
   82SAPS  H18Y 7745   1.030   6.680   8.193  1.9964  0.4558  0.2317
   82SAPS  H18Z 7746   0.973   6.517   8.220  0.0335 -0.0268  3.2671
   83SAPS     N 7747   1.744   0.672  11.377 -0.1408 -0.2181 -0.6057
   83SAPS   HN1 7748   1.795   0.605  11.317 -0.0585 -0.4333 -0.2961
   83SAPS   HN2 7749   1.810   0.751  11.389 -1.8750  1.0876  0.9836
   83SAPS   HN3 7750   1.735   0.635  11.474  1.5626 -0.3917 -0.4799
   83SAPS   C12 7751   1.623   0.739  11.319 -0.5451  1.1568 -0.1517
   83SAPS  H12A 7752   1.564   0.665  11.268  1.4747 -0.4503 -0.3000
   83SAPS   C13 7753   1.547   0.826  11.424  0.0832  0.8780 -0.3562
   83SAPS  O13A 7754   1.594   0.845  11.542  0.1697 -0.4573 -0.3313
   83SAPS  O13B 7755   1.455   0.896  11.381  0.0901 -0.0487  0.0974
   83SAPS   C11 7756   1.675   0.843  11.215 -0.3984 -0.0628 -0.1997
   83SAPS  H11A 7757   1.732   0.919  11.272  0.9073 -0.6706 -0.6385
   83SAPS  H11B 7758   1.590   0.893  11.164  0.7302  1.2261 -0.9000
   83SAPS     P 7759   1.917   0.821  11.091  0.3772  0.2168  0.0370
   83SAPS   O13 7760   1.979   0.847  11.221  0.3291 -0.2192  0.1693
   83SAPS   O14 7761   1.975   0.725  10.992 -0.2379 -0.1247 -0.1556
   83SAPS   O12 7762   1.762   0.785  11.113 -0.3860  0.2866 -0.2618
   83SAPS   O11 7763   1.912   0.955  11.016  0.1681  0.9885 -0.2313
   83SAPS    C1 7764   2.027   1.001  10.942  0.5624 -0.0837  0.3260
   83SAPS    HA 7765   2.061   1.101  10.979 -2.1262  1.3300 -0.7593
   83SAPS    HB 7766   2.118   0.938  10.952  0.2679 -0.3301  1.7383
   83SAPS    C2 7767   1.988   1.023  10.796 -1.0181 -0.7188  0.4746
   83SAPS    HS 7768   2.073   1.067  10.739 -1.2321  1.4682  1.7179
   83SAPS   O21 7769   1.878   1.108  10.805 -0.1748 -0.0156  0.5283
   83SAPS   C21 7770   1.875   1.209  10.719  0.0418 -0.0749 -0.8188
   83SAPS   O22 7771   1.959   1.233  10.635 -0.0953 -0.0116 -0.2026
   83SAPS   C22 7772   1.750   1.293  10.753 -0.2059  0.1865 -0.3045
   83SAPS   H2R 7773   1.663   1.225  10.753  0.7452 -1.1025 -1.9795
   83SAPS   H2S 7774   1.770   1.338  10.853 -1.1411 -0.6322  0.2654
   83SAPS    C3 7775   1.947   0.893  10.725  0.1905 -0.0363  0.3895
   83SAPS    HX 7776   1.856   0.854  10.775 -0.0443  0.1891  0.1349
   83SAPS    HY 7777   2.027   0.816  10.728 -1.7261 -2.0755  1.9212
   83SAPS   O31 7778   1.897   0.926  10.589 -0.1805  0.5883 -0.0375
   83SAPS   C31 7779   1.877   0.817  10.511  0.5802  0.0716 -0.1382
   83SAPS   O32 7780   1.879   0.703  10.548 -0.0185 -0.2419 -0.8000
   83SAPS   C32 7781   1.858   0.861  10.359  0.0858  0.4425  0.4313
   83SAPS   H2X 7782   1.793   0.779  10.322  0.1732  0.6945 -0.2965
   83SAPS   H2Y 7783   1.955   0.838  10.310 -0.8905 -2.2332 -0.4016
   83SAPS   C23 7784   1.717   1.408  10.657  0.3501 -0.8858  0.0185
   83SAPS   H3R 7785   1.791   1.488  10.681 -3.7526  2.9682  1.1456
   83SAPS   H3S 7786   1.619   1.444  10.695  0.8736  0.6218  0.0143
   83SAPS   C24 7787   1.702   1.378  10.506  0.7635 -0.5976 -0.0812
   83SAPS   H4R 7788   1.630   1.294  10.497  0.1419  0.0304 -1.2272
   83SAPS   H4S 7789   1.802   1.351  10.465  1.2313  1.7791 -0.6767
   83SAPS   C25 7790   1.634   1.495  10.431  0.1066  0.1599 -0.1278
   83SAPS   H5R 7791   1.534   1.521  10.469  0.0330  0.5486 -0.5847
   83SAPS   C26 7792   1.678   1.567  10.321  0.5698  0.0146 -0.1537
   83SAPS   H6R 7793   1.624   1.657  10.288 -0.5138 -0.3231  0.6169
   83SAPS   C27 7794   1.810   1.542  10.262 -0.0506  0.5970 -0.4568
   83SAPS   H7R 7795   1.807   1.433  10.240 -0.3343  0.9453 -2.2893
   83SAPS   H7S 7796   1.893   1.555  10.335 -0.7085  1.0469  0.2172
   83SAPS   C28 7797   1.851   1.617  10.139 -0.2229 -0.0459 -0.3862
   83SAPS   H8R 7798   1.798   1.712  10.122 -0.7186 -0.2836 -0.1926
   83SAPS   C29 7799   1.936   1.584  10.042  0.3231  0.7578  0.0145
   83SAPS   H9R 7800   1.971   1.656   9.967  1.2905  0.9467  0.6279
   83SAPS  C210 7801   2.017   1.448  10.032  0.1327 -0.5335 -0.3842
   83SAPS  H10R 7802   2.059   1.437   9.929  2.7434  1.9815  0.2559
   83SAPS  H10S 7803   1.954   1.361  10.059 -0.1602 -0.4245 -0.7059
   83SAPS  C211 7804   2.118   1.454  10.138  0.3049 -0.3596 -1.1902
   83SAPS  H11R 7805   2.180   1.545  10.141  1.6584 -1.2716  0.1392
   83SAPS  C212 7806   2.144   1.371  10.238  0.6255 -0.0424  0.0852
   83SAPS  H12R 7807   2.234   1.395  10.297  1.9617 -1.3531 -1.3259
   83SAPS  C213 7808   2.072   1.242  10.280  0.2855 -0.8962  0.0324
   83SAPS  H13R 7809   2.029   1.180  10.197 -2.7806  0.4299  0.4824
   83SAPS  H13S 7810   1.985   1.265  10.346  1.4621 -2.8780  2.4246
   83SAPS  C214 7811   2.149   1.139  10.355  0.0411  0.5773  0.1182
   83SAPS  H14R 7812   2.118   1.129  10.460  0.9607 -0.5255  0.3142
   83SAPS  C215 7813   2.246   1.059  10.307 -0.4487  0.5546 -0.1945
   83SAPS  H15R 7814   2.279   0.980  10.377 -0.0895 -0.3195 -1.3205
   83SAPS  C216 7815   2.301   1.058  10.170 -0.3485 -0.9756  0.1828
   83SAPS  H16R 7816   2.403   1.014  10.167 -0.2504 -0.7265 -1.7985
   83SAPS  H16S 7817   2.310   1.167  10.149  1.4478 -0.9080  1.1567
   83SAPS  C217 7818   2.213   0.972  10.069 -0.5389 -0.5157  0.1525
   83SAPS  H17R 7819   2.109   1.009  10.072 -0.7610 -1.0406 -0.8289
   83SAPS  H17S 7820   2.207   0.865  10.100 -2.3852 -0.3198  0.5550
   83SAPS  C218 7821   2.271   0.981   9.928 -0.2279  0.4528  0.2527
   83SAPS  H18R 7822   2.235   0.898   9.865  0.9049 -0.6065  0.9655
   83SAPS  H18S 7823   2.380   0.966   9.940 -0.7182 -1.3423  3.7758
   83SAPS  C219 7824   2.225   1.115   9.866 -0.7007  0.4900 -0.2702
   83SAPS  H19R 7825   2.287   1.131   9.776  1.0408  1.6029  1.0855
   83SAPS  H19S 7826   2.243   1.197   9.938  0.9869 -0.2304  0.1608
   83SAPS  C220 7827   2.084   1.134   9.815 -0.7693  0.3292 -0.3138
   83SAPS  H20R 7828   2.076   1.050   9.743  0.8004  1.2297 -1.5911
   83SAPS  H20S 7829   2.055   1.230   9.767 -2.7051 -1.1839 -2.3936
   83SAPS  H20T 7830   2.015   1.124   9.902 -2.0052  0.8525 -1.2138
   83SAPS   C33 7831   1.790   0.996  10.333  0.2472 -0.0757  0.2856
   83SAPS   H3X 7832   1.869   1.069  10.361 -0.9575  1.6073 -0.5290
   83SAPS   H3Y 7833   1.698   1.014  10.391 -0.1755  2.2805 -0.9846
   83SAPS   C34 7834   1.759   1.014  10.189 -0.1000  0.3198 -0.5768
   83SAPS   H4X 7835   1.690   0.940  10.143 -0.9299  0.6974  0.0501
   83SAPS   H4Y 7836   1.855   1.021  10.133  0.5620  0.1451  0.4976
   83SAPS   C35 7837   1.691   1.151  10.173 -0.4580  0.4069 -0.3987
   83SAPS   H5X 7838   1.758   1.224  10.223  0.7362 -1.0769  0.2749
   83SAPS   H5Y 7839   1.595   1.162  10.228  0.1074  0.6435  0.5705
   83SAPS   C36 7840   1.668   1.186  10.031  0.3243 -0.5050 -0.2799
   83SAPS   H6X 7841   1.633   1.092   9.981  0.6603 -0.0910 -1.3214
   83SAPS   H6Y 7842   1.761   1.207   9.974  0.1507 -1.5952 -1.0139
   83SAPS   C37 7843   1.563   1.299  10.009 -0.1444 -0.1332  0.0318
   83SAPS   H7X 7844   1.591   1.393  10.062  0.0493  0.7011 -1.5062
   83SAPS   H7Y 7845   1.470   1.264  10.058  0.7293  1.6555  3.3133
   83SAPS   C38 7846   1.540   1.341   9.860 -0.2529 -0.1212  0.0970
   83SAPS   H8X 7847   1.438   1.385   9.869  0.3782  1.1587  1.1347
   83SAPS   H8Y 7848   1.536   1.254   9.790  0.0437 -0.7222  0.8189
   83SAPS   C39 7849   1.648   1.438   9.800 -0.3247  0.8232  0.3830
   83SAPS   H9X 7850   1.751   1.398   9.807 -0.7841 -0.3606  0.5750
   83SAPS   H9Y 7851   1.663   1.521   9.872  2.5287  0.9007 -0.1752
   83SAPS  C310 7852   1.604   1.499   9.670  0.3219 -0.8700  0.1244
   83SAPS  H10X 7853   1.670   1.588   9.654  2.0743 -2.4769 -2.2820
   83SAPS  H10Y 7854   1.499   1.534   9.678  0.3320 -0.7403 -0.2722
   83SAPS  C311 7855   1.613   1.408   9.545 -0.6295  0.0571  0.3620
   83SAPS  H11X 7856   1.562   1.453   9.457  0.6284  1.0999  0.1447
   83SAPS  H11Y 7857   1.577   1.307   9.576  1.4903 -0.3283  1.7460
   83SAPS  C312 7858   1.756   1.396   9.500  0.3085  0.3647  0.0156
   83SAPS  H12X 7859   1.821   1.378   9.589 -0.0759 -0.9402  0.0563
   83SAPS  H12Y 7860   1.781   1.497   9.462 -1.9935  1.6316  1.6702
   83SAPS  C313 7861   1.785   1.285   9.398 -0.7167 -0.2479 -0.3020
   83SAPS  H13X 7862   1.699   1.280   9.328 -0.6478  1.0700 -0.5018
   83SAPS  H13Y 7863   1.790   1.188   9.453  0.3255 -0.2758 -0.4226
   83SAPS  C314 7864   1.909   1.319   9.312 -0.7303 -0.3025  0.9726
   83SAPS  H14X 7865   1.999   1.319   9.376 -0.0940  0.6443  0.1005
   83SAPS  H14Y 7866   1.883   1.416   9.264  1.6347 -0.3171 -0.5264
   83SAPS  C315 7867   1.927   1.213   9.196 -0.2380  0.6246 -1.3162
   83SAPS  H15X 7868   1.836   1.215   9.131  1.5434  2.4059 -3.9566
   83SAPS  H15Y 7869   1.916   1.111   9.239  2.0175  0.4786 -0.9613
   83SAPS  C316 7870   2.050   1.246   9.110  0.5717  0.6906  0.0519
   83SAPS  H16X 7871   2.071   1.148   9.062  1.0990  0.9111 -0.1793
   83SAPS  H16Y 7872   2.133   1.277   9.178 -1.5024  2.1792  2.0383
   83SAPS  C317 7873   2.035   1.360   9.006  0.1624 -0.0511 -0.8368
   83SAPS  H17X 7874   2.003   1.452   9.058 -1.5575 -1.4816  0.7940
   83SAPS  H17Y 7875   1.950   1.345   8.936 -2.3315  3.3725  1.1556
   83SAPS  C318 7876   2.167   1.375   8.931 -0.6215 -0.2342 -0.0591
   83SAPS  H18X 7877   2.162   1.452   8.852 -1.7615  2.7500  2.6618
   83SAPS  H18Y 7878   2.191   1.276   8.886 -3.1308 -0.8930 -0.1332
   83SAPS  H18Z 7879   2.243   1.412   9.003 -0.6526 -0.9738  0.3707
   84SAPS     N 7880   4.042   2.476  10.801  0.4910  0.2724  0.4712
   84SAPS   HN1 7881   3.981   2.392  10.794 -0.1250  0.7376  0.1774
   84SAPS   HN2 7882   4.006   2.555  10.743 -0.0445 -0.1143  0.2740
   84SAPS   HN3 7883   4.135   2.458  10.757 -1.1846  1.0523 -3.8899
   84SAPS   C12 7884   4.055   2.538  10.935  0.3955  0.3192  0.5601
   84SAPS  H12A 7885   4.081   2.453  10.995 -0.4820 -0.3800 -0.0250
   84SAPS   C13 7886   4.161   2.644  10.952 -0.2223 -0.2881  0.0797
   84SAPS  O13A 7887   4.237   2.673  10.855 -0.2467 -0.0427 -0.4754
   84SAPS  O13B 7888   4.175   2.707  11.067  0.3897  0.4019 -0.2394
   84SAPS   C11 7889   3.911   2.587  10.977 -0.4625 -1.2131 -0.4820
   84SAPS  H11A 7890   3.889   2.684  10.927 -0.9216  1.3016  4.0809
   84SAPS  H11B 7891   3.912   2.624  11.082  0.3561  3.8972 -2.0215
   84SAPS     P 7892   3.661   2.520  10.935  0.6282  0.4000  0.2341
   84SAPS   O13 7893   3.587   2.393  10.921  0.2149  0.6499  0.3169
   84SAPS   O14 7894   3.623   2.609  11.046 -0.1061  0.0507  0.1658
   84SAPS   O12 7895   3.810   2.493  10.954 -0.4250 -0.7742  0.6224
   84SAPS   O11 7896   3.633   2.603  10.801  0.8606 -0.5402  0.1723
   84SAPS    C1 7897   3.694   2.544  10.681  0.3792 -0.1500 -0.2238
   84SAPS    HA 7898   3.755   2.624  10.635  2.0181 -0.2433  1.6765
   84SAPS    HB 7899   3.769   2.465  10.704 -0.1072 -0.3402  0.7838
   84SAPS    C2 7900   3.591   2.510  10.564  0.0744 -0.0857 -0.5869
   84SAPS    HS 7901   3.645   2.489  10.468 -0.3609 -0.5021 -0.7444
   84SAPS   O21 7902   3.501   2.616  10.549  0.5219 -0.1627 -0.6384
   84SAPS   C21 7903   3.482   2.685  10.443  0.2620  0.4549  0.1316
   84SAPS   O22 7904   3.537   2.659  10.339 -0.8743 -0.0122  0.3013
   84SAPS   C22 7905   3.379   2.802  10.459  0.5343 -0.1139 -0.0674
   84SAPS   H2R 7906   3.331   2.780  10.557  1.6009 -0.8876  0.3103
   84SAPS   H2S 7907   3.435   2.899  10.463 -1.1586  0.8792  0.4641
   84SAPS    C3 7908   3.518   2.387  10.605  0.6167  0.5701 -0.0418
   84SAPS    HX 7909   3.446   2.369  10.521 -1.6815  3.9801  0.9790
   84SAPS    HY 7910   3.469   2.402  10.704  1.1535 -1.8644  0.6559
   84SAPS   O31 7911   3.604   2.271  10.614 -0.0846 -0.3528 -0.5656
   84SAPS   C31 7912   3.542   2.156  10.632  0.1004 -0.1222  0.0135
   84SAPS   O32 7913   3.424   2.137  10.662  0.3990 -0.1726 -0.0058
   84SAPS   C32 7914   3.640   2.045  10.586 -0.2681 -0.4052  0.1244
   84SAPS   H2X 7915   3.670   1.991  10.678  2.2936 -0.1959 -0.5138
   84SAPS   H2Y 7916   3.729   2.096  10.543 -0.5167  0.9265  1.1323
   84SAPS   C23 7917   3.281   2.795  10.338 -0.1674 -0.1590 -0.4340
   84SAPS   H3R 7918   3.345   2.789  10.247 -0.9656 -0.7175 -0.9684
   84SAPS   H3S 7919   3.228   2.891  10.327 -0.1791 -0.0342  0.5992
   84SAPS   C24 7920   3.172   2.687  10.341  0.2981  0.4299 -0.7396
   84SAPS   H4R 7921   3.118   2.714  10.248 -0.6948 -0.5543 -0.4739
   84SAPS   H4S 7922   3.102   2.709  10.426 -1.5346 -0.2484 -2.0052
   84SAPS   C25 7923   3.205   2.539  10.338 -0.1502 -0.5694  0.8785
   84SAPS   H5R 7924   3.240   2.490  10.430 -0.4985 -1.3945  0.5801
   84SAPS   C26 7925   3.198   2.458  10.225  0.2972 -0.4733 -0.1956
   84SAPS   H6R 7926   3.236   2.355  10.223 -1.5041 -1.1601 -0.8998
   84SAPS   C27 7927   3.149   2.506  10.080  0.7929  0.2002 -0.4268
   84SAPS   H7R 7928   3.078   2.591  10.082  0.9041  0.2872  0.3920
   84SAPS   H7S 7929   3.103   2.417  10.031 -0.3338  0.3358  0.3474
   84SAPS   C28 7930   3.263   2.550   9.992  0.6856  0.9729 -0.3726
   84SAPS   H8R 7931   3.354   2.581  10.045  2.3233 -1.8015 -1.3482
   84SAPS   C29 7932   3.267   2.523   9.861 -0.1192 -0.0093  0.0976
   84SAPS   H9R 7933   3.351   2.568   9.806 -0.4036  1.4247  0.7894
   84SAPS  C210 7934   3.166   2.464   9.763  0.1117  0.3892  0.8251
   84SAPS  H10R 7935   3.070   2.443   9.816 -0.4540 -0.3244 -0.4412
   84SAPS  H10S 7936   3.203   2.361   9.744 -0.6085  0.1621  0.6138
   84SAPS  C211 7937   3.130   2.542   9.640 -0.4970  0.2169  0.5753
   84SAPS  H11R 7938   3.144   2.650   9.653  2.3931 -0.1875  1.6854
   84SAPS  C212 7939   3.111   2.489   9.513 -0.0051  0.3558 -0.1862
   84SAPS  H12R 7940   3.083   2.563   9.437 -1.4303  1.9711  1.8005
   84SAPS  C213 7941   3.116   2.345   9.476 -0.2333 -0.0990 -0.0298
   84SAPS  H13R 7942   3.009   2.315   9.470  0.0567 -1.3722  0.7838
   84SAPS  H13S 7943   3.163   2.279   9.551 -0.8742  0.6275  1.0437
   84SAPS  C214 7944   3.189   2.314   9.347 -0.1034 -0.4464  0.3499
   84SAPS  H14R 7945   3.280   2.251   9.352 -1.2476 -2.4683 -1.9101
   84SAPS  C215 7946   3.153   2.358   9.224 -0.3684  0.0536  0.0633
   84SAPS  H15R 7947   3.209   2.307   9.145 -0.5053  0.9037 -0.6024
   84SAPS  C216 7948   3.038   2.438   9.179 -0.0466 -0.0054  0.1258
   84SAPS  H16R 7949   3.067   2.537   9.139 -0.7449  1.6202  3.3290
   84SAPS  H16S 7950   2.970   2.457   9.265  0.9750  0.0723  0.9284
   84SAPS  C217 7951   2.963   2.359   9.066  0.0372 -0.4830 -0.2441
   84SAPS  H17R 7952   2.866   2.406   9.039 -0.1401  0.2346  1.5013
   84SAPS  H17S 7953   2.941   2.257   9.107  0.9330 -0.6206 -0.0942
   84SAPS  C218 7954   3.044   2.353   8.936 -0.5319  0.4845 -0.1861
   84SAPS  H18R 7955   3.127   2.282   8.957 -2.6886 -2.4786 -1.0150
   84SAPS  H18S 7956   3.081   2.455   8.913 -0.0551  0.5445  0.8307
   84SAPS  C219 7957   2.975   2.302   8.813 -0.7504  0.3559  0.4335
   84SAPS  H19R 7958   2.917   2.212   8.842  2.5087 -1.3112  2.2995
   84SAPS  H19S 7959   3.048   2.276   8.732 -0.8953  1.5576 -0.0997
   84SAPS  C220 7960   2.862   2.395   8.776  0.7382 -0.0143  0.3997
   84SAPS  H20R 7961   2.815   2.348   8.687  1.1078 -1.4953  0.9492
   84SAPS  H20S 7962   2.907   2.492   8.747  0.8652 -0.3657 -0.6167
   84SAPS  H20T 7963   2.789   2.420   8.856 -0.8789 -2.2691 -0.2455
   84SAPS   C33 7964   3.590   1.944  10.479 -0.5416 -0.6674 -0.7465
   84SAPS   H3X 7965   3.485   1.918  10.505 -0.4884 -2.6445 -2.2716
   84SAPS   H3Y 7966   3.652   1.852  10.482  3.5939  1.8684  0.8836
   84SAPS   C34 7967   3.604   1.999  10.338 -0.1366  0.2158 -1.3159
   84SAPS   H4X 7968   3.583   1.911  10.274 -0.9473 -1.3127  0.9223
   84SAPS   H4Y 7969   3.706   2.030  10.307  0.2748 -0.8994 -1.1267
   84SAPS   C35 7970   3.511   2.126  10.310 -0.5762 -0.0656 -0.2792
   84SAPS   H5X 7971   3.529   2.203  10.388  0.3555 -0.3485 -0.2010
   84SAPS   H5Y 7972   3.405   2.094  10.318 -1.0633  1.4762 -0.2409
   84SAPS   C36 7973   3.533   2.197  10.173  0.8354  0.4771 -0.0949
   84SAPS   H6X 7974   3.639   2.225  10.153  0.9694 -0.3704 -0.6079
   84SAPS   H6Y 7975   3.465   2.285  10.169 -0.4777 -0.3731  1.9224
   84SAPS   C37 7976   3.490   2.100  10.055  0.8448 -0.0653 -0.2281
   84SAPS   H7X 7977   3.380   2.094  10.073  0.9569  0.8083  0.8793
   84SAPS   H7Y 7978   3.527   1.995  10.053  2.2055  0.4045 -1.7371
   84SAPS   C38 7979   3.538   2.161   9.930  0.0271 -0.7064 -0.7765
   84SAPS   H8X 7980   3.648   2.177   9.934 -0.3095  2.1469 -0.9597
   84SAPS   H8Y 7981   3.492   2.259   9.907  1.3092  0.1387  0.0771
   84SAPS   C39 7982   3.511   2.075   9.807  0.2906  0.6921 -0.1852
   84SAPS   H9X 7983   3.402   2.053   9.808  0.5460 -0.9561 -2.1463
   84SAPS   H9Y 7984   3.564   1.978   9.814 -3.6445 -2.0288 -3.5387
   84SAPS  C310 7985   3.540   2.138   9.681  0.6515  0.1006  0.4147
   84SAPS  H10X 7986   3.637   2.191   9.678  0.5468  0.2967  0.4842
   84SAPS  H10Y 7987   3.467   2.220   9.667 -0.7411 -1.0037  0.9268
   84SAPS  C311 7988   3.522   2.041   9.561  0.5950  0.1564  0.3733
   84SAPS  H11X 7989   3.414   2.018   9.549  0.9499 -0.5199 -1.9751
   84SAPS  H11Y 7990   3.567   1.942   9.585 -1.4542 -1.3380 -1.5760
   84SAPS  C312 7991   3.593   2.084   9.436  0.2261 -0.3102 -0.2747
   84SAPS  H12X 7992   3.702   2.071   9.454  0.0516  1.3854  2.5041
   84SAPS  H12Y 7993   3.563   2.187   9.406 -0.4335 -0.7135 -1.0411
   84SAPS  C313 7994   3.559   1.995   9.309  0.0525  0.4213 -0.0548
   84SAPS  H13X 7995   3.452   1.968   9.300  0.4814 -1.3170 -0.1236
   84SAPS  H13Y 7996   3.613   1.902   9.336  0.0058  0.4908  0.2954
   84SAPS  C314 7997   3.623   2.062   9.184 -0.3338  0.6794 -0.3213
   84SAPS  H14X 7998   3.730   2.085   9.206 -1.1478  1.1895  3.8089
   84SAPS  H14Y 7999   3.573   2.160   9.167 -2.2378 -0.1568  0.1888
   84SAPS  C315 8000   3.619   1.965   9.065  0.9110  0.1897 -0.2884
   84SAPS  H15X 8001   3.514   1.978   9.032  0.6305 -0.3691  0.3796
   84SAPS  H15Y 8002   3.632   1.857   9.086 -0.1374 -0.0716 -0.9156
   84SAPS  C316 8003   3.695   2.025   8.939 -0.7259  0.4250 -0.3903
   84SAPS  H16X 8004   3.659   2.128   8.919  0.4827  1.1832  1.1297
   84SAPS  H16Y 8005   3.674   1.960   8.851 -1.1018  0.8221 -0.5962
   84SAPS  C317 8006   3.848   2.017   8.968  0.2290 -0.7318  0.0969
   84SAPS  H17X 8007   3.875   1.911   8.988 -1.3268 -1.0942  0.4129
   84SAPS  H17Y 8008   3.869   2.077   9.060  1.0133 -0.6923 -0.1041
   84SAPS  C318 8009   3.940   2.080   8.869 -0.2669  0.6653  0.0313
   84SAPS  H18X 8010   3.919   2.189   8.866 -1.0200  0.6266  2.2894
   84SAPS  H18Y 8011   3.929   2.032   8.769 -0.8607  1.0558 -0.0982
   84SAPS  H18Z 8012   4.046   2.056   8.894 -0.3843  1.0479  0.9163
   85SAPS     N 8013   0.862   2.982  11.299 -0.3498 -0.4965 -0.1741
   85SAPS   HN1 8014   0.928   3.062  11.297 -1.6374  0.6717 -3.5817
   85SAPS   HN2 8015   0.903   2.901  11.349  2.4999  0.7487 -0.2997
   85SAPS   HN3 8016   0.852   2.940  11.204  2.8341  1.0093 -1.3359
   85SAPS   C12 8017   0.737   3.021  11.374  0.6016 -1.0498  0.3029
   85SAPS  H12A 8018   0.701   2.940  11.436  0.2356  0.2134  1.7963
   85SAPS   C13 8019   0.757   3.143  11.477 -0.9953 -0.2474  0.2115
   85SAPS  O13A 8020   0.869   3.200  11.482 -0.2312 -0.3211 -0.1154
   85SAPS  O13B 8021   0.661   3.162  11.560 -0.0991 -0.2793  0.2476
   85SAPS   C11 8022   0.621   3.065  11.280  0.3247 -0.2943  0.8191
   85SAPS  H11A 8023   0.536   3.095  11.346  1.1602  0.5819  1.5289
   85SAPS  H11B 8024   0.586   2.977  11.223  0.3058  0.3982 -0.2657
   85SAPS     P 8025   0.538   3.237  11.109 -0.0247 -0.4622 -0.3817
   85SAPS   O13 8026   0.407   3.182  11.155 -0.6793 -0.0045  0.3327
   85SAPS   O14 8027   0.542   3.386  11.126  0.1713  0.1178 -0.6765
   85SAPS   O12 8028   0.658   3.166  11.189 -0.1789 -0.8292  1.0202
   85SAPS   O11 8029   0.543   3.185  10.961 -0.7932 -0.0422 -0.0791
   85SAPS    C1 8030   0.660   3.130  10.903  0.1234  0.3619  0.9400
   85SAPS    HA 8031   0.693   3.043  10.964 -1.2162 -2.2714 -1.8282
   85SAPS    HB 8032   0.629   3.087  10.805 -2.5867 -0.4406  2.0529
   85SAPS    C2 8033   0.769   3.239  10.874 -0.5887 -0.0767 -0.1441
   85SAPS    HS 8034   0.805   3.270  10.974  0.5181 -2.7328  0.3734
   85SAPS   O21 8035   0.706   3.334  10.795  0.2203 -0.0586 -0.0401
   85SAPS   C21 8036   0.742   3.459  10.818  0.1314  0.4374 -0.4609
   85SAPS   O22 8037   0.840   3.498  10.886  0.1128  0.5239  0.8437
   85SAPS   C22 8038   0.628   3.547  10.772 -0.4722 -0.0624  0.0881
   85SAPS   H2R 8039   0.559   3.484  10.712 -1.7634  1.8075 -0.4789
   85SAPS   H2S 8040   0.565   3.586  10.855 -0.7980  0.7227 -0.5104
   85SAPS    C3 8041   0.889   3.181  10.794  0.2059 -0.5757  0.2335
   85SAPS    HX 8042   0.953   3.136  10.872 -0.0046 -0.4375  0.4856
   85SAPS    HY 8043   0.951   3.270  10.769  0.6098 -1.1789 -0.9918
   85SAPS   O31 8044   0.868   3.105  10.669 -0.8598 -0.0055 -0.2539
   85SAPS   C31 8045   0.939   2.994  10.661  0.1571 -0.4156  0.1662
   85SAPS   O32 8046   1.021   2.952  10.739 -0.1700  0.1229  0.8767
   85SAPS   C32 8047   0.904   2.917  10.535  0.9916 -0.4971  0.4145
   85SAPS   H2X 8048   0.805   2.959  10.507  1.5829  2.0444  1.8187
   85SAPS   H2Y 8049   0.894   2.807  10.546  1.6612 -0.7888 -1.5171
   85SAPS   C23 8050   0.688   3.654  10.680  0.1288  0.1671  0.3710
   85SAPS   H3R 8051   0.750   3.731  10.729  1.0899  0.3355 -1.0291
   85SAPS   H3S 8052   0.611   3.717  10.631 -0.2763  0.1944  1.0329
   85SAPS   C24 8053   0.754   3.593  10.557  0.2042  0.1086  0.0306
   85SAPS   H4R 8054   0.701   3.504  10.517  1.5292 -1.2117  1.1297
   85SAPS   H4S 8055   0.849   3.548  10.592  0.1033 -0.7747 -0.7789
   85SAPS   C25 8056   0.790   3.701  10.457  0.2905 -0.0508  0.6025
   85SAPS   H5R 8057   0.780   3.801  10.501  1.1705  0.4916 -0.4042
   85SAPS   C26 8058   0.846   3.687  10.336 -0.1348  0.3268  0.2233
   85SAPS   H6R 8059   0.862   3.779  10.278 -1.5616  0.3047 -0.2433
   85SAPS   C27 8060   0.888   3.557  10.269  0.4165 -0.0034 -0.5305
   85SAPS   H7R 8061   0.877   3.475  10.343 -0.3738  0.4175 -0.1769
   85SAPS   H7S 8062   0.996   3.559  10.242  0.3937 -0.8283 -0.7223
   85SAPS   C28 8063   0.806   3.519  10.154  0.6768 -0.2542  0.0038
   85SAPS   H8R 8064   0.705   3.501  10.192  0.9805  0.3977  1.1523
   85SAPS   C29 8065   0.825   3.508  10.022  0.5298 -0.1446  0.3406
   85SAPS   H9R 8066   0.742   3.473   9.958  1.2405  1.4491 -1.5544
   85SAPS  C210 8067   0.946   3.554   9.945  0.2541  1.0027 -1.0390
   85SAPS  H10R 8068   0.972   3.475   9.872  1.0561  2.6803 -2.6513
   85SAPS  H10S 8069   1.027   3.594  10.010 -0.5111  0.5195  0.2521
   85SAPS  C211 8070   0.909   3.675   9.867  0.1110  0.0147 -0.0581
   85SAPS  H11R 8071   0.872   3.762   9.924  2.4130  0.5004  0.7706
   85SAPS  C212 8072   0.930   3.691   9.737  0.1425  0.2692 -0.2342
   85SAPS  H12R 8073   0.909   3.786   9.685 -0.0473  1.4266  1.8544
   85SAPS  C213 8074   1.004   3.596   9.645  0.8701  0.0985  0.2893
   85SAPS  H13R 8075   0.923   3.522   9.629 -1.3519  2.8754 -2.6959
   85SAPS  H13S 8076   1.096   3.556   9.693  1.3023 -0.9009 -1.3187
   85SAPS  C214 8077   1.038   3.628   9.502  0.6471  0.3750  0.2761
   85SAPS  H14R 8078   1.145   3.626   9.480  1.1291 -1.1038  2.4690
   85SAPS  C215 8079   0.961   3.653   9.387 -0.6378  0.3126 -0.4702
   85SAPS  H15R 8080   1.013   3.668   9.291 -1.6579  1.2828 -0.8937
   85SAPS  C216 8081   0.815   3.671   9.377  0.5080  0.2741 -0.6707
   85SAPS  H16R 8082   0.768   3.658   9.477 -1.1857  0.5703 -1.3842
   85SAPS  H16S 8083   0.762   3.602   9.308  2.5092 -3.6390  1.3653
   85SAPS  C217 8084   0.790   3.815   9.329 -0.0027 -0.1975  0.3683
   85SAPS  H17R 8085   0.685   3.821   9.293  0.6376  1.2465 -1.3946
   85SAPS  H17S 8086   0.858   3.832   9.242 -1.0798  3.2174  0.0492
   85SAPS  C218 8087   0.809   3.930   9.429 -0.1992 -0.0334 -1.1028
   85SAPS  H18R 8088   0.915   3.914   9.460 -0.4054  0.7681  0.0691
   85SAPS  H18S 8089   0.750   3.935   9.523  0.4794 -0.1868 -0.6602
   85SAPS  C219 8090   0.789   4.062   9.352 -0.1056 -0.6686 -0.0602
   85SAPS  H19R 8091   0.766   4.135   9.433  2.4998  0.8933 -0.6165
   85SAPS  H19S 8092   0.695   4.063   9.294  0.0958 -2.7066 -0.4856
   85SAPS  C220 8093   0.904   4.112   9.272 -0.2226 -0.6300 -0.0824
   85SAPS  H20R 8094   0.922   4.046   9.185 -2.8801  2.8044 -3.5992
   85SAPS  H20S 8095   0.997   4.125   9.332 -0.6720  0.7956  0.3292
   85SAPS  H20T 8096   0.878   4.208   9.223  1.5279  0.4033  0.8898
   85SAPS   C33 8097   1.002   2.956  10.418  0.3067 -0.7817 -0.2015
   85SAPS   H3X 8098   0.991   2.883  10.335 -2.1776  0.6088 -1.1833
   85SAPS   H3Y 8099   1.107   2.942  10.451 -0.0895 -1.0219  0.9981
   85SAPS   C34 8100   0.988   3.097  10.372 -0.2577  0.0450  0.0717
   85SAPS   H4X 8101   1.067   3.108  10.295 -1.7968  0.7563 -1.4784
   85SAPS   H4Y 8102   1.018   3.170  10.450  1.9744 -2.1928  1.4207
   85SAPS   C35 8103   0.855   3.141  10.307  0.0982  0.0399  0.2483
   85SAPS   H5X 8104   0.857   3.249  10.282  3.8105  0.2044  0.7062
   85SAPS   H5Y 8105   0.773   3.121  10.379 -0.2141 -1.8323 -0.5770
   85SAPS   C36 8106   0.816   3.068  10.176  0.7208 -0.0860  0.1768
   85SAPS   H6X 8107   0.713   3.101  10.152  1.1358  0.9909 -0.2191
   85SAPS   H6Y 8108   0.810   2.958  10.190 -0.0826 -0.0786 -0.0609
   85SAPS   C37 8109   0.905   3.091  10.051 -0.2406 -0.1284  0.4276
   85SAPS   H7X 8110   1.000   3.044  10.083  0.3023  0.8827  0.3498
   85SAPS   H7Y 8111   0.929   3.199  10.035 -2.2280  0.0764 -1.7657
   85SAPS   C38 8112   0.851   3.028   9.920  0.2475  0.7932  0.7821
   85SAPS   H8X 8113   0.753   3.075   9.896  0.9625  1.7492 -0.3552
   85SAPS   H8Y 8114   0.841   2.918   9.927  0.6562  0.6292 -0.9297
   85SAPS   C39 8115   0.942   3.039   9.804 -0.4005 -0.4828  0.5641
   85SAPS   H9X 8116   1.033   2.988   9.842  0.5805  0.5854 -0.2683
   85SAPS   H9Y 8117   0.962   3.146   9.781  0.2211 -0.7598 -0.2305
   85SAPS  C310 8118   0.893   2.978   9.669 -0.5726 -0.3074 -0.0807
   85SAPS  H10X 8119   0.791   3.012   9.640 -0.4034  0.2295 -0.0477
   85SAPS  H10Y 8120   0.886   2.870   9.694  0.5163 -0.3188  0.2360
   85SAPS  C311 8121   0.986   2.990   9.550  0.5693 -0.1198  0.7150
   85SAPS  H11X 8122   0.949   2.935   9.461 -1.5730 -0.6755  1.8804
   85SAPS  H11Y 8123   1.094   2.970   9.563  1.0115  1.3310 -0.3600
   85SAPS  C312 8124   0.983   3.138   9.500 -0.1846 -0.2372  0.3768
   85SAPS  H12X 8125   1.062   3.194   9.554 -0.0544  1.1936 -1.1972
   85SAPS  H12Y 8126   0.895   3.203   9.518 -1.1175 -1.1764 -0.6305
   85SAPS  C313 8127   1.023   3.153   9.357  0.0049  1.2595  0.0448
   85SAPS  H13X 8128   0.954   3.088   9.300  0.3436 -0.4592  1.4962
   85SAPS  H13Y 8129   1.124   3.111   9.337 -0.6108 -0.5550  0.4869
   85SAPS  C314 8130   1.026   3.293   9.307  0.3594  0.0364  0.0752
   85SAPS  H14X 8131   1.109   3.343   9.361  1.9184 -1.2608 -1.0368
   85SAPS  H14Y 8132   0.929   3.343   9.328 -0.2163 -0.8235 -0.4451
   85SAPS  C315 8133   1.046   3.300   9.155  0.1926  0.3156  0.4170
   85SAPS  H15X 8134   1.034   3.407   9.128 -0.3677  0.2013  0.1824
   85SAPS  H15Y 8135   0.954   3.251   9.116  0.9591 -0.6393 -0.2129
   85SAPS  C316 8136   1.179   3.239   9.105  0.1541  0.5423 -0.1758
   85SAPS  H16X 8137   1.193   3.131   9.126 -2.3757  0.2936  0.6647
   85SAPS  H16Y 8138   1.258   3.293   9.161 -1.0418  1.1859  0.9343
   85SAPS  C317 8139   1.220   3.254   8.958 -0.3034 -0.8879  0.4011
   85SAPS  H17X 8140   1.171   3.177   8.895 -2.7553  1.9420 -1.4234
   85SAPS  H17Y 8141   1.331   3.245   8.953 -0.1924 -0.2352  1.3373
   85SAPS  C318 8142   1.183   3.391   8.886 -0.6014  0.4668  0.4490
   85SAPS  H18X 8143   1.237   3.391   8.790  2.2029 -0.7773  1.9121
   85SAPS  H18Y 8144   1.226   3.468   8.953  3.1456 -2.0554  1.2310
   85SAPS  H18Z 8145   1.074   3.409   8.870 -0.5773  0.4178  0.2336
   86SAPS     N 8146   1.968   4.625  11.157 -0.2162 -0.1723  0.0622
   86SAPS   HN1 8147   2.007   4.715  11.190  1.5385 -1.0366  0.4464
   86SAPS   HN2 8148   1.865   4.635  11.165 -0.4887 -1.1730 -1.7563
   86SAPS   HN3 8149   2.005   4.552  11.221  0.5957  2.0394  2.2782
   86SAPS   C12 8150   2.012   4.599  11.018  0.3718  0.0595 -0.5470
   86SAPS  H12A 8151   1.958   4.666  10.953  1.2225 -0.2945 -1.6545
   86SAPS   C13 8152   2.165   4.630  10.996 -0.0850  0.2762  0.2985
   86SAPS  O13A 8153   2.233   4.691  11.081 -0.3469 -0.4491  0.4248
   86SAPS  O13B 8154   2.209   4.591  10.883 -0.1615 -0.3138  0.0895
   86SAPS   C11 8155   1.980   4.449  10.981  0.0719 -0.4233  0.1061
   86SAPS  H11A 8156   2.026   4.385  11.060 -0.6760  1.6612  2.3518
   86SAPS  H11B 8157   2.012   4.415  10.880 -2.2457 -4.3504  0.4712
   86SAPS     P 8158   1.759   4.322  10.911 -0.3376  0.4299 -0.0764
   86SAPS   O13 8159   1.823   4.194  10.903  0.4455  0.5311 -0.6834
   86SAPS   O14 8160   1.618   4.323  10.954  0.1269  0.2591 -0.0254
   86SAPS   O12 8161   1.838   4.426  10.997 -0.0492  0.1695  0.9153
   86SAPS   O11 8162   1.763   4.381  10.768 -0.3971 -0.6221  0.3584
   86SAPS    C1 8163   1.746   4.518  10.727 -0.7004 -0.1938  0.3698
   86SAPS    HA 8164   1.663   4.555  10.791 -1.3548 -2.4664  0.9374
   86SAPS    HB 8165   1.845   4.567  10.743 -0.7750  0.8036 -1.8642
   86SAPS    C2 8166   1.715   4.521  10.576  0.1849  0.9410  0.9413
   86SAPS    HS 8167   1.818   4.522  10.534  1.2323  2.0308  3.3048
   86SAPS   O21 8168   1.622   4.630  10.546 -0.1243 -0.6263 -0.0264
   86SAPS   C21 8169   1.679   4.722  10.458  0.3469  0.3046 -0.0638
   86SAPS   O22 8170   1.796   4.725  10.426  0.4960 -0.0141 -0.3266
   86SAPS   C22 8171   1.570   4.806  10.398 -0.7561 -0.6732 -0.0367
   86SAPS   H2R 8172   1.466   4.786  10.431 -0.4678  0.1472  1.4403
   86SAPS   H2S 8173   1.604   4.904  10.439 -2.3178 -0.9354  2.0310
   86SAPS    C3 8174   1.639   4.394  10.529  0.2790  0.0595 -0.3369
   86SAPS    HX 8175   1.543   4.399  10.585  0.8096 -1.9277  0.8592
   86SAPS    HY 8176   1.684   4.298  10.563 -1.6869 -0.8384 -0.1553
   86SAPS   O31 8177   1.635   4.396  10.389  0.3519  0.5698  0.0156
   86SAPS   C31 8178   1.578   4.289  10.334  0.2580  0.3838  0.6360
   86SAPS   O32 8179   1.521   4.195  10.390 -0.4340  0.3442 -1.0144
   86SAPS   C32 8180   1.623   4.283  10.186 -0.2754  0.0724  0.5889
   86SAPS   H2X 8181   1.705   4.209  10.175  2.0268  2.8567 -3.7604
   86SAPS   H2Y 8182   1.656   4.386  10.160 -2.1270  0.9707  1.5786
   86SAPS   C23 8183   1.586   4.823  10.244 -0.1322  0.7065 -0.3761
   86SAPS   H3R 8184   1.692   4.843  10.219  0.7371  0.4715  2.6943
   86SAPS   H3S 8185   1.524   4.905  10.201 -0.6050  0.2346 -0.6091
   86SAPS   C24 8186   1.542   4.689  10.175 -0.1100 -0.7912  0.3859
   86SAPS   H4R 8187   1.596   4.609  10.230  1.9026  0.1576 -0.0912
   86SAPS   H4S 8188   1.582   4.696  10.071  2.0098 -0.5042  1.1532
   86SAPS   C25 8189   1.399   4.650  10.170 -0.3356  0.6339 -0.7654
   86SAPS   H5R 8190   1.359   4.620  10.269  2.7280 -0.4640  0.2423
   86SAPS   C26 8191   1.324   4.637  10.061  0.3361 -0.1085 -0.8182
   86SAPS   H6R 8192   1.221   4.602  10.077  0.4204  0.5583  1.5547
   86SAPS   C27 8193   1.358   4.666   9.912 -0.8589 -0.8896  0.5044
   86SAPS   H7R 8194   1.290   4.608   9.846  1.1262 -2.1515 -0.5129
   86SAPS   H7S 8195   1.463   4.632   9.898 -0.8803 -1.2948  1.2570
   86SAPS   C28 8196   1.350   4.814   9.880  0.0513 -0.5155  0.7121
   86SAPS   H8R 8197   1.324   4.889   9.955 -1.5927  0.1516 -0.4635
   86SAPS   C29 8198   1.381   4.868   9.758  0.0172 -0.8581 -0.4675
   86SAPS   H9R 8199   1.347   4.970   9.734 -1.0302 -0.5200  2.1685
   86SAPS  C210 8200   1.410   4.788   9.634  0.5839 -0.2468  0.1382
   86SAPS  H10R 8201   1.323   4.807   9.569  0.2457  1.0815  0.9365
   86SAPS  H10S 8202   1.404   4.679   9.656 -0.6702 -0.2718 -0.3116
   86SAPS  C211 8203   1.540   4.811   9.561 -0.6329  0.4439  1.3371
   86SAPS  H11R 8204   1.627   4.812   9.628  0.3561 -0.1122  0.1137
   86SAPS  C212 8205   1.550   4.829   9.429  0.7577  0.6271  0.4391
   86SAPS  H12R 8206   1.649   4.859   9.392  1.1551  2.4856  2.8006
   86SAPS  C213 8207   1.440   4.826   9.323  0.5930 -0.1834 -0.2671
   86SAPS  H13R 8208   1.340   4.843   9.369  0.9196 -1.2746  0.9069
   86SAPS  H13S 8209   1.430   4.724   9.281  1.2718 -0.0403 -0.7830
   86SAPS  C214 8210   1.474   4.928   9.220  0.0320  0.7217 -0.0798
   86SAPS  H14R 8211   1.549   5.003   9.251 -0.3924 -0.0460  3.1448
   86SAPS  C215 8212   1.422   4.919   9.090 -0.3254 -0.2518  0.0178
   86SAPS  H15R 8213   1.451   5.001   9.024  2.3138 -1.7635 -0.8405
   86SAPS  C216 8214   1.341   4.806   9.031 -0.1016  0.1035 -0.4470
   86SAPS  H16R 8215   1.237   4.845   9.031 -0.3225 -0.4279  0.8147
   86SAPS  H16S 8216   1.336   4.718   9.098  1.1109  0.3655  0.0237
   86SAPS  C217 8217   1.386   4.756   8.889  0.7357  0.2572 -0.5083
   86SAPS  H17R 8218   1.343   4.656   8.867 -0.2645  0.8234 -1.2024
   86SAPS  H17S 8219   1.496   4.742   8.887  0.9418  1.3830  1.0532
   86SAPS  C218 8220   1.350   4.857   8.770 -0.7679  0.4804 -0.6595
   86SAPS  H18R 8221   1.418   4.945   8.770  0.3245 -0.3338 -1.5831
   86SAPS  H18S 8222   1.249   4.900   8.783 -0.2877  1.7312 -0.9157
   86SAPS  C219 8223   1.368   4.782   8.634 -0.2328 -0.1864 -0.3089
   86SAPS  H19R 8224   1.338   4.859   8.559  0.7260  1.4347  0.9302
   86SAPS  H19S 8225   1.295   4.699   8.632  2.0927 -2.4183 -3.3347
   86SAPS  C220 8226   1.508   4.727   8.620 -0.4905 -0.0391  0.4721
   86SAPS  H20R 8227   1.517   4.659   8.532 -2.7664  0.9404 -0.6047
   86SAPS  H20S 8228   1.531   4.659   8.704  0.5024  0.6550  0.7855
   86SAPS  H20T 8229   1.583   4.809   8.612 -0.4823 -0.1925 -1.7906
   86SAPS   C33 8230   1.517   4.243  10.083 -0.4287  0.0307  0.1058
   86SAPS   H3X 8231   1.438   4.321  10.092  1.0463  1.4357  1.6104
   86SAPS   H3Y 8232   1.489   4.140  10.115  3.4601 -1.5161 -0.9180
   86SAPS   C34 8233   1.551   4.240   9.932 -0.5377 -0.4946  0.2432
   86SAPS   H4X 8234   1.598   4.145   9.898 -2.6249 -1.1989 -0.8605
   86SAPS   H4Y 8235   1.621   4.322   9.903  0.3115 -1.1451  0.4036
   86SAPS   C35 8236   1.422   4.263   9.850 -0.9125  0.3195 -0.2989
   86SAPS   H5X 8237   1.344   4.327   9.895 -0.8663 -0.1486  0.4775
   86SAPS   H5Y 8238   1.367   4.167   9.845 -0.5015  0.0824 -0.3847
   86SAPS   C36 8239   1.457   4.325   9.718  0.4192 -0.4768 -0.3825
   86SAPS   H6X 8240   1.529   4.256   9.670  1.2405 -1.4099  2.0118
   86SAPS   H6Y 8241   1.503   4.424   9.737  0.6370 -0.4799 -0.8796
   86SAPS   C37 8242   1.332   4.345   9.633  0.3195 -0.3162 -0.0592
   86SAPS   H7X 8243   1.256   4.401   9.692  1.8825  3.7229 -1.5596
   86SAPS   H7Y 8244   1.286   4.247   9.609  1.5061 -0.5968 -1.2913
   86SAPS   C38 8245   1.334   4.418   9.493 -0.0524  0.2231 -0.2901
   86SAPS   H8X 8246   1.407   4.375   9.421  2.0124  2.9045  0.0826
   86SAPS   H8Y 8247   1.372   4.520   9.512 -0.1477  0.1591  0.2444
   86SAPS   C39 8248   1.202   4.413   9.424 -0.6037 -0.7317 -0.1214
   86SAPS   H9X 8249   1.120   4.470   9.472 -0.3656 -1.4070  1.1140
   86SAPS   H9Y 8250   1.183   4.305   9.407 -1.3371 -0.1381 -4.0006
   86SAPS  C310 8251   1.225   4.474   9.278 -0.2259 -0.2498 -1.2959
   86SAPS  H10X 8252   1.303   4.409   9.233  0.4563 -0.8355  0.6491
   86SAPS  H10Y 8253   1.258   4.579   9.290 -1.7465  0.3569 -2.1245
   86SAPS  C311 8254   1.087   4.474   9.218 -0.1618 -0.7691  1.0129
   86SAPS  H11X 8255   1.008   4.532   9.270  1.6576  1.9199  1.0078
   86SAPS  H11Y 8256   1.058   4.369   9.196  0.9818 -0.4905 -2.5920
   86SAPS  C312 8257   1.087   4.553   9.084  0.5089 -0.3708 -0.4528
   86SAPS  H12X 8258   1.148   4.506   9.004  1.3959 -0.5881  0.3381
   86SAPS  H12Y 8259   1.117   4.658   9.101  1.2375 -0.8373  1.3210
   86SAPS  C313 8260   0.931   4.556   9.034 -0.5701  0.3029 -0.2063
   86SAPS  H13X 8261   0.858   4.565   9.118  0.7122 -3.1516  1.4745
   86SAPS  H13Y 8262   0.921   4.453   8.991  0.8900 -0.3213  0.8800
   86SAPS  C314 8263   0.898   4.668   8.934 -0.3791  0.2135  0.8534
   86SAPS  H14X 8264   0.924   4.771   8.967  2.2537  0.0333 -0.4207
   86SAPS  H14Y 8265   0.790   4.665   8.910  0.2491  1.1055 -2.6850
   86SAPS  C315 8266   0.977   4.659   8.796 -0.4371  0.5869 -0.8598
   86SAPS  H15X 8267   0.937   4.572   8.739 -1.3280  0.3511  0.0937
   86SAPS  H15Y 8268   1.083   4.645   8.828 -0.1367 -0.1561 -2.1068
   86SAPS  C316 8269   0.962   4.795   8.723 -0.0400  0.2079  0.1048
   86SAPS  H16X 8270   1.021   4.791   8.629 -1.0771 -0.4589 -0.5265
   86SAPS  H16Y 8271   0.997   4.874   8.794 -1.3709  2.2123 -1.3496
   86SAPS  C317 8272   0.819   4.840   8.683 -0.7177  0.3610 -0.4692
   86SAPS  H17X 8273   0.832   4.940   8.637 -1.0610  2.0931  2.8825
   86SAPS  H17Y 8274   0.751   4.846   8.770 -2.1185  2.9915 -1.6246
   86SAPS  C318 8275   0.757   4.738   8.587 -0.2892  0.3156 -0.3711
   86SAPS  H18X 8276   0.760   4.635   8.628 -0.7599  0.3739 -0.1874
   86SAPS  H18Y 8277   0.821   4.732   8.496 -0.2353  0.4634 -0.3434
   86SAPS  H18Z 8278   0.653   4.764   8.557 -0.3377 -3.2124 -4.1474
   87SAPS     N 8279   3.805   3.293  10.999  0.7127 -0.1386  0.1931
   87SAPS   HN1 8280   3.837   3.195  11.008 -0.1557 -0.3556  1.0997
   87SAPS   HN2 8281   3.875   3.357  11.042  0.7455 -1.0449  1.5433
   87SAPS   HN3 8282   3.717   3.299  11.054 -1.1182 -4.8956 -1.6862
   87SAPS   C12 8283   3.797   3.328  10.854 -0.3788 -0.0563  0.0045
   87SAPS  H12A 8284   3.723   3.265  10.805 -1.1928  2.4709 -2.2547
   87SAPS   C13 8285   3.782   3.476  10.835 -0.4079 -0.3445  0.1165
   87SAPS  O13A 8286   3.796   3.563  10.922 -0.2326  0.4662 -0.1576
   87SAPS  O13B 8287   3.777   3.521  10.716 -0.3314 -0.3979 -0.0310
   87SAPS   C11 8288   3.921   3.286  10.780  0.2343 -0.2209  0.1729
   87SAPS  H11A 8289   4.010   3.333  10.827  0.3293  1.0375 -1.1728
   87SAPS  H11B 8290   3.930   3.313  10.673 -2.1850  0.2400  0.0338
   87SAPS     P 8291   3.850   3.034  10.726 -0.0042 -0.3645  0.1160
   87SAPS   O13 8292   3.940   2.918  10.702  0.0029 -0.2897 -0.3903
   87SAPS   O14 8293   3.735   3.002  10.810 -0.2222  0.1479  0.0196
   87SAPS   O12 8294   3.941   3.147  10.795  0.2515 -0.4139 -0.2466
   87SAPS   O11 8295   3.814   3.101  10.590  0.0243  0.3518 -0.1374
   87SAPS    C1 8296   3.908   3.121  10.487 -0.0933 -0.3350 -0.6008
   87SAPS    HA 8297   3.892   3.227  10.459 -2.3911 -0.9654 -1.9456
   87SAPS    HB 8298   4.013   3.111  10.523 -0.3343 -2.1196 -0.3027
   87SAPS    C2 8299   3.872   3.040  10.366 -0.3058  0.3987  0.0977
   87SAPS    HS 8300   3.951   3.068  10.294  0.3555  1.6344  1.2582
   87SAPS   O21 8301   3.740   3.070  10.317  0.7232  0.1412 -0.5313
   87SAPS   C21 8302   3.715   3.074  10.193  0.5776  0.5437 -0.0209
   87SAPS   O22 8303   3.791   3.059  10.104  0.0643 -0.3007  0.7061
   87SAPS   C22 8304   3.563   3.071  10.186  0.0903 -0.5354  0.4866
   87SAPS   H2R 8305   3.529   2.966  10.183  1.9007 -1.1459  0.0729
   87SAPS   H2S 8306   3.525   3.112  10.281  0.5270  1.9815 -0.3442
   87SAPS    C3 8307   3.884   2.888  10.402  0.0780  0.5119 -0.3567
   87SAPS    HX 8308   3.814   2.862  10.485  2.4885  0.8848  1.9222
   87SAPS    HY 8309   3.988   2.868  10.434 -0.2474  0.1696  0.5320
   87SAPS   O31 8310   3.856   2.813  10.286 -0.0149  0.1461  0.3435
   87SAPS   C31 8311   3.860   2.680  10.293 -0.2549 -0.5090 -1.1726
   87SAPS   O32 8312   3.879   2.618  10.393  0.3555  0.2511 -0.0741
   87SAPS   C32 8313   3.847   2.624  10.160  0.2271  0.8011  0.0551
   87SAPS   H2X 8314   3.799   2.524  10.152  0.2748  0.9151 -2.8539
   87SAPS   H2Y 8315   3.953   2.614  10.127  0.6948  0.0923  1.7089
   87SAPS   C23 8316   3.502   3.139  10.062  0.2075  0.0911  0.4282
   87SAPS   H3R 8317   3.555   3.103   9.971  0.9741  2.6803 -0.2315
   87SAPS   H3S 8318   3.508   3.250  10.057 -0.2303  0.1097  0.2280
   87SAPS   C24 8319   3.353   3.102  10.050 -0.1103 -0.3698  0.0772
   87SAPS   H4R 8320   3.322   3.184   9.981  0.3595  0.1564  0.4826
   87SAPS   H4S 8321   3.297   3.120  10.144  0.0846 -3.5093  0.9202
   87SAPS   C25 8322   3.317   2.973   9.989 -0.3395 -0.6694 -0.0743
   87SAPS   H5R 8323   3.325   2.886  10.056  1.3482 -2.0489 -1.9189
   87SAPS   C26 8324   3.264   2.956   9.863 -0.3086 -0.0893  0.3944
   87SAPS   H6R 8325   3.235   2.852   9.842  0.7497 -0.8241  2.2756
   87SAPS   C27 8326   3.239   3.065   9.754 -0.0031  0.1929 -0.2954
   87SAPS   H7R 8327   3.207   3.022   9.656 -1.7847 -1.0024  0.7491
   87SAPS   H7S 8328   3.331   3.125   9.735 -0.8315  1.6035  0.0739
   87SAPS   C28 8329   3.131   3.160   9.801 -0.3221  0.1052  0.0239
   87SAPS   H8R 8330   3.072   3.114   9.882  0.0386  0.6216  0.5801
   87SAPS   C29 8331   3.107   3.281   9.758  0.2178  0.2590  0.2185
   87SAPS   H9R 8332   3.028   3.342   9.803  1.1709  0.8799  1.1003
   87SAPS  C210 8333   3.182   3.354   9.654 -0.4969 -0.6853 -0.2084
   87SAPS  H10R 8334   3.262   3.299   9.600 -0.5415 -0.1529 -0.8369
   87SAPS  H10S 8335   3.248   3.426   9.707  0.5512 -0.7391 -1.3941
   87SAPS  C211 8336   3.089   3.428   9.563  0.4549  0.0432  0.7487
   87SAPS  H11R 8337   2.980   3.410   9.560  0.6335 -0.9717 -0.9047
   87SAPS  C212 8338   3.142   3.519   9.475 -0.1529  0.2724  0.3230
   87SAPS  H12R 8339   3.076   3.575   9.408  1.8633  0.9836 -1.1996
   87SAPS  C213 8340   3.295   3.545   9.466 -0.5375  0.2869  0.2498
   87SAPS  H13R 8341   3.346   3.459   9.418 -1.5718  0.8468 -2.0072
   87SAPS  H13S 8342   3.343   3.546   9.566  1.1201  1.0686 -0.5177
   87SAPS  C214 8343   3.334   3.674   9.393 -0.2054  0.5700 -0.2701
   87SAPS  H14R 8344   3.360   3.753   9.465  1.3813 -0.2691  0.1102
   87SAPS  C215 8345   3.320   3.695   9.262  0.1348  0.7971 -0.3339
   87SAPS  H15R 8346   3.350   3.789   9.212  0.7771  1.5431  1.3918
   87SAPS  C216 8347   3.266   3.600   9.159 -0.1249 -0.1994  0.0036
   87SAPS  H16R 8348   3.188   3.650   9.098  0.4068  0.2146 -0.3514
   87SAPS  H16S 8349   3.220   3.508   9.200 -1.6869 -0.2004 -1.6372
   87SAPS  C217 8350   3.373   3.562   9.067  0.5441  0.4955 -0.7525
   87SAPS  H17R 8351   3.459   3.520   9.123  0.4310  0.6818 -0.4328
   87SAPS  H17S 8352   3.404   3.654   9.013 -1.8198  1.1609 -1.0725
   87SAPS  C218 8353   3.322   3.457   8.967 -0.1320 -0.1824  0.2837
   87SAPS  H18R 8354   3.256   3.376   9.004 -0.0797 -1.4004 -2.0906
   87SAPS  H18S 8355   3.399   3.404   8.907  0.7888  0.8455  0.5264
   87SAPS  C219 8356   3.232   3.516   8.852 -0.2270  0.4929 -0.0698
   87SAPS  H19R 8357   3.211   3.617   8.892 -0.2066  0.1380  0.8617
   87SAPS  H19S 8358   3.139   3.456   8.846 -0.2195  0.3902  0.7421
   87SAPS  C220 8359   3.306   3.528   8.725 -0.2514 -0.8650  0.4966
   87SAPS  H20R 8360   3.401   3.585   8.721 -1.6615  1.7071  1.1042
   87SAPS  H20S 8361   3.252   3.583   8.645  0.2600 -2.1677 -0.7868
   87SAPS  H20T 8362   3.316   3.427   8.678  2.0154  0.2279 -1.5989
   87SAPS   C33 8363   3.768   2.710  10.062  0.1687 -0.2876 -0.1244
   87SAPS   H3X 8364   3.818   2.809  10.055  1.2569 -0.9213 -1.9841
   87SAPS   H3Y 8365   3.673   2.735  10.114  1.1710  0.5349  1.4031
   87SAPS   C34 8366   3.737   2.643   9.925  0.5127 -0.0213  0.2313
   87SAPS   H4X 8367   3.707   2.536   9.935  1.9743 -0.7132 -2.1055
   87SAPS   H4Y 8368   3.830   2.628   9.867  1.3344 -0.1015  1.5200
   87SAPS   C35 8369   3.630   2.720   9.846 -0.5984  0.1233  0.1391
   87SAPS   H5X 8370   3.675   2.820   9.830  0.4983 -0.0247  1.9689
   87SAPS   H5Y 8371   3.544   2.728   9.916 -1.0749  0.7946 -0.5046
   87SAPS   C36 8372   3.611   2.655   9.704 -0.2067  0.0269 -0.3851
   87SAPS   H6X 8373   3.566   2.554   9.713  2.4302 -1.0828  1.1550
   87SAPS   H6Y 8374   3.712   2.631   9.667  0.0302 -2.8761  1.7875
   87SAPS   C37 8375   3.538   2.736   9.603  0.1323 -0.4286 -0.2921
   87SAPS   H7X 8376   3.581   2.838   9.594  0.2539 -0.3527  1.0135
   87SAPS   H7Y 8377   3.430   2.737   9.626  0.2755 -1.0431  0.4562
   87SAPS   C38 8378   3.553   2.658   9.470 -0.0151  0.1895  0.1006
   87SAPS   H8X 8379   3.515   2.554   9.475 -0.9647  0.5561  3.4052
   87SAPS   H8Y 8380   3.658   2.663   9.434 -0.1427 -2.1707 -0.7365
   87SAPS   C39 8381   3.462   2.730   9.362 -1.0485  0.4328 -0.0918
   87SAPS   H9X 8382   3.494   2.833   9.335 -0.1884  0.2681  0.2699
   87SAPS   H9Y 8383   3.361   2.733   9.408 -0.2862 -0.0732  1.6865
   87SAPS  C310 8384   3.467   2.652   9.234  0.3320  0.5502  0.5161
   87SAPS  H10X 8385   3.402   2.563   9.246 -1.3560  1.5228 -1.0457
   87SAPS  H10Y 8386   3.573   2.626   9.212  0.4007  1.1307  0.1517
   87SAPS  C311 8387   3.410   2.740   9.115  0.0065  0.0491 -0.2947
   87SAPS  H11X 8388   3.485   2.816   9.086  0.1623 -0.3341 -0.9147
   87SAPS  H11Y 8389   3.320   2.797   9.146  0.6734  0.2187  1.4839
   87SAPS  C312 8390   3.374   2.661   8.986 -0.0376  0.2686 -0.5428
   87SAPS  H12X 8391   3.274   2.610   8.988 -1.3951  2.7138 -1.6746
   87SAPS  H12Y 8392   3.444   2.577   8.965 -0.6028  0.0504 -1.6941
   87SAPS  C313 8393   3.390   2.747   8.858 -0.0918 -0.7758  0.2786
   87SAPS  H13X 8394   3.492   2.793   8.861  0.9963 -3.0488  2.8157
   87SAPS  H13Y 8395   3.319   2.832   8.853  0.7707  0.0117  0.9858
   87SAPS  C314 8396   3.369   2.668   8.725 -0.4920 -0.3272  0.4004
   87SAPS  H14X 8397   3.460   2.607   8.705  1.2050  1.0946  3.2764
   87SAPS  H14Y 8398   3.380   2.746   8.646 -2.2347 -0.4665 -0.0180
   87SAPS  C315 8399   3.234   2.593   8.722  0.0208 -0.2005  0.1638
   87SAPS  H15X 8400   3.162   2.648   8.787 -0.4212  0.5202 -0.8919
   87SAPS  H15Y 8401   3.257   2.496   8.770 -0.6330 -1.1119 -1.2725
   87SAPS  C316 8402   3.188   2.553   8.582 -0.3280 -0.4925 -0.5240
   87SAPS  H16X 8403   3.232   2.620   8.505  0.9127  0.0117  0.5890
   87SAPS  H16Y 8404   3.077   2.551   8.579 -0.4647 -1.8735  2.3059
   87SAPS  C317 8405   3.238   2.416   8.538 -0.1627  0.4361  0.6874
   87SAPS  H17X 8406   3.189   2.388   8.442  1.0286  0.6670 -0.0045
   87SAPS  H17Y 8407   3.223   2.330   8.608  0.1565 -0.0027  0.2273
   87SAPS  C318 8408   3.390   2.412   8.509 -0.3305  0.6040 -0.6155
   87SAPS  H18X 8409   3.408   2.485   8.427 -2.9172  0.3497 -1.5001
   87SAPS  H18Y 8410   3.419   2.309   8.480 -1.0322  0.2506 -0.0918
   87SAPS  H18Z 8411   3.448   2.430   8.602  0.3470  0.0744 -0.9223
   88SAPS     N 8412   4.861   1.739  11.264 -0.4659  0.2611  0.2862
   88SAPS   HN1 8413   4.914   1.753  11.175 -1.5059 -2.4271 -0.8703
   88SAPS   HN2 8414   4.854   1.832  11.309  0.2248  1.0805 -1.1947
   88SAPS   HN3 8415   4.913   1.672  11.325 -2.4334 -1.9617 -0.3339
   88SAPS   C12 8416   4.740   1.658  11.238 -0.1341  0.1082  0.3001
   88SAPS  H12A 8417   4.776   1.557  11.247  0.3574  0.3661  1.4526
   88SAPS   C13 8418   4.619   1.680  11.329  0.3859 -0.5823  0.3132
   88SAPS  O13A 8419   4.637   1.738  11.444 -0.1273  0.4613 -0.0543
   88SAPS  O13B 8420   4.518   1.602  11.314  0.0619 -0.3233  0.0002
   88SAPS   C11 8421   4.715   1.667  11.083  0.4633  0.1581 -0.2011
   88SAPS  H11A 8422   4.673   1.764  11.049 -1.2255 -0.2522  0.6285
   88SAPS  H11B 8423   4.625   1.603  11.068 -0.2458  1.4992 -2.0186
   88SAPS     P 8424   4.810   1.602  10.840 -0.0004 -0.0450 -0.5236
   88SAPS   O13 8425   4.777   1.738  10.800 -0.0845 -0.0963  0.1708
   88SAPS   O14 8426   4.928   1.536  10.777  1.0505 -0.2371 -0.1992
   88SAPS   O12 8427   4.826   1.609  11.001  0.1261  0.4108 -0.1807
   88SAPS   O11 8428   4.679   1.510  10.834 -0.0833 -0.6626  0.6005
   88SAPS    C1 8429   4.563   1.548  10.755  0.2073  0.6520  0.6699
   88SAPS    HA 8430   4.472   1.501  10.796 -1.0035  1.1237 -1.3196
   88SAPS    HB 8431   4.547   1.657  10.739 -4.0002  0.2957  1.3834
   88SAPS    C2 8432   4.567   1.494  10.608  0.0418 -0.5297  0.7777
   88SAPS    HS 8433   4.567   1.383  10.613 -0.4948 -0.5285  0.9096
   88SAPS   O21 8434   4.682   1.551  10.540  0.0492  0.5076 -0.4476
   88SAPS   C21 8435   4.725   1.470  10.443 -0.3227 -0.2757  0.1805
   88SAPS   O22 8436   4.676   1.363  10.417  0.8020 -0.3298 -0.1598
   88SAPS   C22 8437   4.834   1.553  10.361  0.2825  0.3204 -0.2132
   88SAPS   H2R 8438   4.895   1.605  10.438  0.2849 -2.3625  1.7028
   88SAPS   H2S 8439   4.886   1.470  10.309  1.5246  0.7079  0.3640
   88SAPS    C3 8440   4.441   1.544  10.535 -0.5775  0.1638 -0.2785
   88SAPS    HX 8441   4.432   1.654  10.541  0.1977  0.1591  1.8308
   88SAPS    HY 8442   4.366   1.497  10.601 -0.2946 -0.6708 -0.5302
   88SAPS   O31 8443   4.414   1.484  10.405  0.1162 -0.8564 -0.0454
   88SAPS   C31 8444   4.426   1.557  10.300  0.4602 -0.0514  0.3569
   88SAPS   O32 8445   4.449   1.676  10.291  0.1397  0.2865 -0.0023
   88SAPS   C32 8446   4.400   1.478  10.170 -0.0503 -0.1008 -0.2651
   88SAPS   H2X 8447   4.294   1.446  10.170  0.0765 -0.6809 -2.2339
   88SAPS   H2Y 8448   4.461   1.385  10.164 -1.3927 -0.9819 -0.5743
   88SAPS   C23 8449   4.782   1.641  10.250 -0.1055  0.8621  0.7814
   88SAPS   H3R 8450   4.715   1.721  10.287 -0.6366  1.7823 -1.9225
   88SAPS   H3S 8451   4.718   1.581  10.181 -0.7514  0.6553  1.5483
   88SAPS   C24 8452   4.892   1.705  10.172  0.3032  0.4409 -0.9159
   88SAPS   H4R 8453   4.851   1.753  10.081  2.1412  1.1867 -1.4153
   88SAPS   H4S 8454   4.964   1.624  10.146 -1.1622 -1.0930 -0.3660
   88SAPS   C25 8455   4.966   1.810  10.249  0.1632  0.4986  0.7421
   88SAPS   H5R 8456   4.932   1.809  10.353 -0.8559 -0.9573  0.4280
   88SAPS   C26 8457   5.048   1.908  10.198  0.2921  0.1588 -1.1001
   88SAPS   H6R 8458   5.104   1.968  10.271  1.3756 -1.2736 -0.7114
   88SAPS   C27 8459   5.092   1.917  10.060  0.5767 -0.1868 -0.2116
   88SAPS   H7R 8460   5.027   1.860   9.991  0.2175  0.0880 -0.1011
   88SAPS   H7S 8461   5.187   1.860  10.051  0.0433 -1.3034  0.9869
   88SAPS   C28 8462   5.104   2.068  10.015  0.0624  0.7169  0.3325
   88SAPS   H8R 8463   5.015   2.108   9.963  1.1172  2.0574 -0.5066
   88SAPS   C29 8464   5.209   2.154  10.035 -0.1162 -0.0959  0.5453
   88SAPS   H9R 8465   5.210   2.244   9.971 -1.5120  0.0233  0.6560
   88SAPS  C210 8466   5.341   2.114  10.095 -0.0442 -0.1266  0.8535
   88SAPS  H10R 8467   5.329   2.071  10.196  1.9791  1.4351  1.8394
   88SAPS  H10S 8468   5.402   2.205  10.116  0.4122 -0.7710  2.4389
   88SAPS  C211 8469   5.436   2.029  10.008 -0.3322  0.3429  0.5937
   88SAPS  H11R 8470   5.482   1.950  10.069  2.0459  0.7679 -0.5153
   88SAPS  C212 8471   5.466   2.045   9.873 -0.0147 -0.1291  0.1733
   88SAPS  H12R 8472   5.522   1.968   9.818  1.8155  1.4902 -0.3157
   88SAPS  C213 8473   5.408   2.156   9.784 -0.6312  0.5133  0.0315
   88SAPS  H13R 8474   5.493   2.187   9.719 -0.6022  0.5025  0.0650
   88SAPS  H13S 8475   5.373   2.242   9.846  2.6031  1.9413  0.0580
   88SAPS  C214 8476   5.295   2.100   9.702  0.2444 -0.7381 -0.1533
   88SAPS  H14R 8477   5.216   2.054   9.763  0.0961  0.9847  1.0045
   88SAPS  C215 8478   5.282   2.117   9.567  0.1903  0.1701 -0.2442
   88SAPS  H15R 8479   5.191   2.077   9.520 -0.0675  0.4812 -0.0180
   88SAPS  C216 8480   5.379   2.184   9.476  0.2099  0.0460  0.2965
   88SAPS  H16R 8481   5.469   2.226   9.526 -0.5856  1.6729  0.4262
   88SAPS  H16S 8482   5.325   2.268   9.426  0.1173 -0.5973 -0.7197
   88SAPS  C217 8483   5.416   2.096   9.355 -0.0540 -0.2918 -0.1788
   88SAPS  H17R 8484   5.326   2.056   9.303 -1.8956  2.3074  0.7756
   88SAPS  H17S 8485   5.480   2.009   9.381  1.9066  1.7350  2.2889
   88SAPS  C218 8486   5.497   2.170   9.246 -0.8987 -1.0178  0.0916
   88SAPS  H18R 8487   5.601   2.201   9.272 -1.3643  1.3446 -0.5518
   88SAPS  H18S 8488   5.448   2.269   9.234  0.8685  0.0876  1.4928
   88SAPS  C219 8489   5.489   2.111   9.106 -0.2345  0.4297 -0.3175
   88SAPS  H19R 8490   5.531   2.162   9.017 -1.5541 -1.6972 -2.2832
   88SAPS  H19S 8491   5.380   2.103   9.089 -0.1751 -0.0443 -0.4863
   88SAPS  C220 8492   5.550   1.965   9.087 -0.1072 -0.8340 -0.2879
   88SAPS  H20R 8493   5.507   1.939   8.987 -0.6684 -1.8581  0.2078
   88SAPS  H20S 8494   5.513   1.899   9.168 -2.0669 -1.2924 -1.4755
   88SAPS  H20T 8495   5.661   1.970   9.089 -0.1296 -0.5463  1.0594
   88SAPS   C33 8496   4.436   1.565  10.041 -0.0612  0.6564 -0.7544
   88SAPS   H3X 8497   4.546   1.581  10.046 -0.0405  0.3011  0.0592
   88SAPS   H3Y 8498   4.387   1.664  10.051 -1.0744  0.3614 -2.3842
   88SAPS   C34 8499   4.383   1.498   9.916  0.3966 -0.0341  0.5705
   88SAPS   H4X 8500   4.274   1.484   9.908  0.3607 -1.4351  2.5866
   88SAPS   H4Y 8501   4.436   1.400   9.921  2.5905  1.1042  1.5795
   88SAPS   C35 8502   4.452   1.578   9.797 -0.6232  0.8483 -0.2046
   88SAPS   H5X 8503   4.559   1.598   9.815 -0.0143  2.2021 -4.3290
   88SAPS   H5Y 8504   4.409   1.680   9.791 -0.5664  0.8408 -0.7793
   88SAPS   C36 8505   4.438   1.510   9.662 -0.0058 -0.0047  0.0130
   88SAPS   H6X 8506   4.337   1.523   9.618  0.2723  0.9134 -0.3928
   88SAPS   H6Y 8507   4.466   1.404   9.674  3.0217  0.4076 -2.1598
   88SAPS   C37 8508   4.537   1.576   9.564 -0.3710  0.2111  0.4929
   88SAPS   H7X 8509   4.635   1.585   9.614 -0.4469 -0.1031  0.7001
   88SAPS   H7Y 8510   4.514   1.681   9.534  1.2185 -0.0530 -1.9253
   88SAPS   C38 8511   4.546   1.496   9.429  0.3732 -0.6372  0.2076
   88SAPS   H8X 8512   4.599   1.401   9.449  1.8746  0.3042  0.8935
   88SAPS   H8Y 8513   4.624   1.547   9.368 -0.7157 -1.0146 -1.5907
   88SAPS   C39 8514   4.407   1.478   9.363  0.2383  0.0418 -0.0551
   88SAPS   H9X 8515   4.352   1.575   9.367 -1.4457 -0.8536 -0.2138
   88SAPS   H9Y 8516   4.350   1.405   9.425  1.3066  1.7117  3.0698
   88SAPS  C310 8517   4.422   1.433   9.218  0.5703 -0.1987  0.1604
   88SAPS  H10X 8518   4.433   1.324   9.238  1.3282 -0.1456  0.0513
   88SAPS  H10Y 8519   4.506   1.477   9.161  0.1815 -1.3740 -1.4043
   88SAPS  C311 8520   4.288   1.453   9.138 -0.0719 -0.4818 -0.7692
   88SAPS  H11X 8521   4.289   1.564   9.137 -0.6839 -0.4683 -0.5039
   88SAPS  H11Y 8522   4.194   1.415   9.183 -0.7591  0.1905 -1.6164
   88SAPS  C312 8523   4.296   1.405   8.995 -0.6365  0.1338  0.2559
   88SAPS  H12X 8524   4.313   1.295   8.997 -0.1790  0.2136  1.9279
   88SAPS  H12Y 8525   4.391   1.442   8.951 -0.2021 -1.2915 -0.0650
   88SAPS  C313 8526   4.172   1.424   8.906 -0.6935  0.2084 -0.1451
   88SAPS  H13X 8527   4.090   1.372   8.960 -1.2837  1.4832  0.2106
   88SAPS  H13Y 8528   4.182   1.379   8.805 -2.4781  0.8882 -0.6638
   88SAPS  C314 8529   4.124   1.565   8.890 -0.0145  0.1231 -0.7220
   88SAPS  H14X 8530   4.218   1.624   8.880 -1.0545  2.0933  0.4624
   88SAPS  H14Y 8531   4.081   1.593   8.989 -0.8630 -0.6125 -0.8782
   88SAPS  C315 8532   4.029   1.593   8.773 -0.0876  0.3177  0.0363
   88SAPS  H15X 8533   3.939   1.531   8.791 -0.2546  1.0609  1.9459
   88SAPS  H15Y 8534   4.079   1.574   8.675 -2.4872  2.1337 -1.6341
   88SAPS  C316 8535   3.978   1.736   8.763  0.4302  0.4618 -0.1941
   88SAPS  H16X 8536   4.063   1.807   8.770  1.1996 -0.4015 -0.5606
   88SAPS  H16Y 8537   3.905   1.751   8.845  0.8310 -3.6523  1.1581
   88SAPS  C317 8538   3.895   1.762   8.641 -0.2471  0.1306 -0.1136
   88SAPS  H17X 8539   3.967   1.759   8.556  0.9709  1.7348  0.7986
   88SAPS  H17Y 8540   3.863   1.868   8.650  0.8760  0.4970 -0.1756
   88SAPS  C318 8541   3.784   1.670   8.608 -0.2267 -0.2056  0.3448
   88SAPS  H18X 8542   3.757   1.677   8.501  0.7262  2.2102  0.2033
   88SAPS  H18Y 8543   3.690   1.684   8.666 -0.5769 -1.1090  0.0211
   88SAPS  H18Z 8544   3.809   1.564   8.630 -0.0970 -0.4280 -0.8157
   89SAPS     N 8545   5.451   2.993  10.636  0.6547  0.0781 -0.2621
   89SAPS   HN1 8546   5.396   2.929  10.575  0.3829  1.1478 -1.1818
   89SAPS   HN2 8547   5.532   3.036  10.588  2.1624  0.0438  2.0811
   89SAPS   HN3 8548   5.490   2.934  10.712  1.4732  3.7114  2.4311
   89SAPS   C12 8549   5.353   3.091  10.694  0.4882 -0.1380 -0.1364
   89SAPS  H12A 8550   5.279   3.113  10.619 -0.4696 -0.0300  0.8246
   89SAPS   C13 8551   5.271   3.029  10.811 -0.4823 -0.1867 -0.8498
   89SAPS  O13A 8552   5.318   2.934  10.880  0.1427  0.0846  0.0308
   89SAPS  O13B 8553   5.167   3.090  10.844 -0.6359 -0.7323  0.6180
   89SAPS   C11 8554   5.422   3.213  10.761  0.1325  0.0350 -0.4085
   89SAPS  H11A 8555   5.493   3.174  10.837 -0.5785 -0.0998  0.2044
   89SAPS  H11B 8556   5.351   3.292  10.793  1.5805  1.7194 -1.1862
   89SAPS     P 8557   5.583   3.412  10.706 -0.1744  0.5778 -0.1607
   89SAPS   O13 8558   5.507   3.515  10.775  0.1351 -0.4632  0.2883
   89SAPS   O14 8559   5.690   3.358  10.793  0.6040  0.4049  0.0379
   89SAPS   O12 8560   5.494   3.282  10.658 -0.4585  0.3002  0.4478
   89SAPS   O11 8561   5.641   3.469  10.572 -0.0680 -0.1487 -0.1162
   89SAPS    C1 8562   5.754   3.404  10.512 -0.0011  0.2743  0.5934
   89SAPS    HA 8563   5.852   3.452  10.531  1.7785 -3.1437  0.9173
   89SAPS    HB 8564   5.762   3.296  10.540 -1.8151 -0.4006 -1.2386
   89SAPS    C2 8565   5.746   3.407  10.356  0.1132 -0.4101  0.1173
   89SAPS    HS 8566   5.729   3.512  10.323  0.5956 -0.4425 -0.2577
   89SAPS   O21 8567   5.654   3.316  10.304 -0.2552  0.4643  0.1799
   89SAPS   C21 8568   5.529   3.363  10.305  0.3482 -0.7698  0.2502
   89SAPS   O22 8569   5.497   3.473  10.347 -0.1300  0.2097 -0.1993
   89SAPS   C22 8570   5.434   3.275  10.232  0.2841  0.0814  0.4450
   89SAPS   H2R 8571   5.435   3.172  10.273 -2.8478 -0.2107  0.0642
   89SAPS   H2S 8572   5.338   3.326  10.256 -0.1516 -1.1994  1.5259
   89SAPS    C3 8573   5.893   3.369  10.298  0.6465 -0.4521 -0.1948
   89SAPS    HX 8574   5.909   3.267  10.341 -2.3339  0.0070  2.3636
   89SAPS    HY 8575   5.975   3.433  10.336  1.6392 -1.7505 -0.0660
   89SAPS   O31 8576   5.898   3.376  10.157 -0.2378  0.4825 -0.2953
   89SAPS   C31 8577   5.857   3.266  10.090  0.1983 -0.2188  0.4225
   89SAPS   O32 8578   5.833   3.157  10.143  0.4143 -0.1795 -0.6766
   89SAPS   C32 8579   5.839   3.305   9.949  0.0835  0.2819  0.1209
   89SAPS   H2X 8580   5.937   3.341   9.910  1.4728 -2.1161  1.1435
   89SAPS   H2Y 8581   5.773   3.394   9.949  0.5294  0.7588  3.3031
   89SAPS   C23 8582   5.469   3.280  10.084  0.3488  0.0073  0.2925
   89SAPS   H3R 8583   5.383   3.239  10.027  0.1275  0.9874 -0.1008
   89SAPS   H3S 8584   5.552   3.210  10.059  1.1071  0.8935  0.2798
   89SAPS   C24 8585   5.499   3.426  10.029 -0.2277 -0.1825 -0.3145
   89SAPS   H4R 8586   5.521   3.406   9.922 -5.0798 -1.4130 -1.3331
   89SAPS   H4S 8587   5.584   3.477  10.079 -1.2420  0.2942  0.9913
   89SAPS   C25 8588   5.373   3.512  10.037  0.6933 -0.2984  0.1604
   89SAPS   H5R 8589   5.368   3.583  10.121  0.7234  1.6191 -1.3802
   89SAPS   C26 8590   5.284   3.542   9.939  0.0510  0.1288  0.3761
   89SAPS   H6R 8591   5.196   3.607   9.953 -0.8741 -0.7751 -0.9739
   89SAPS   C27 8592   5.296   3.482   9.803  0.4012  0.1193  0.0268
   89SAPS   H7R 8593   5.193   3.453   9.773  0.2718  1.6384 -1.1259
   89SAPS   H7S 8594   5.355   3.388   9.805  0.2028 -0.1242 -2.6438
   89SAPS   C28 8595   5.358   3.585   9.707  0.4544 -0.4903 -0.0568
   89SAPS   H8R 8596   5.401   3.679   9.745  2.8080 -1.6450  0.3598
   89SAPS   C29 8597   5.368   3.575   9.569 -0.0366 -0.0413  0.0089
   89SAPS   H9R 8598   5.410   3.661   9.516 -2.2866  0.5224 -0.9877
   89SAPS  C210 8599   5.332   3.456   9.485  0.0017 -0.2337 -0.1284
   89SAPS  H10R 8600   5.229   3.474   9.448  1.4057  3.5418 -2.8676
   89SAPS  H10S 8601   5.324   3.365   9.548 -2.5110  0.0795  0.0963
   89SAPS  C211 8602   5.429   3.426   9.372 -0.3554 -0.1811  0.0641
   89SAPS  H11R 8603   5.528   3.391   9.406 -0.3772  1.3255  1.9034
   89SAPS  C212 8604   5.403   3.435   9.242  0.3305 -0.2962 -0.2388
   89SAPS  H12R 8605   5.494   3.422   9.182  1.0017 -1.1697  0.9315
   89SAPS  C213 8606   5.285   3.490   9.173 -0.1650  0.2049 -0.2802
   89SAPS  H13R 8607   5.198   3.503   9.241 -1.2959 -1.0439 -1.4156
   89SAPS  H13S 8608   5.249   3.417   9.096  0.9760  0.7878 -1.3986
   89SAPS  C214 8609   5.311   3.618   9.094 -1.0691  0.7366 -0.4300
   89SAPS  H14R 8610   5.345   3.701   9.157 -1.6886  0.1527  0.7057
   89SAPS  C215 8611   5.298   3.635   8.960 -0.1953  0.3564 -0.4681
   89SAPS  H15R 8612   5.313   3.734   8.915 -0.4810  0.6080 -0.0200
   89SAPS  C216 8613   5.254   3.525   8.860 -0.0570 -0.1171  0.1129
   89SAPS  H16R 8614   5.288   3.424   8.891  1.3484  0.1387 -0.5162
   89SAPS  H16S 8615   5.312   3.546   8.767 -1.2835 -2.0031 -1.1426
   89SAPS  C217 8616   5.096   3.520   8.842 -0.0724  0.3138  0.1226
   89SAPS  H17R 8617   5.069   3.486   8.945  0.7386  0.1599  0.2910
   89SAPS  H17S 8618   5.074   3.439   8.770  0.9383 -1.2937  1.5555
   89SAPS  C218 8619   5.032   3.653   8.808 -0.1301  0.3482 -0.0475
   89SAPS  H18R 8620   5.061   3.686   8.706 -1.4230  0.5768 -0.3587
   89SAPS  H18S 8621   5.086   3.716   8.882  0.9023 -0.0422 -0.4502
   89SAPS  C219 8622   4.883   3.665   8.850  0.1861 -0.3818 -0.6982
   89SAPS  H19R 8623   4.825   3.590   8.791  1.2400 -0.0651 -2.1643
   89SAPS  H19S 8624   4.845   3.768   8.835  1.6130  0.0751 -1.2270
   89SAPS  C220 8625   4.857   3.639   8.996  0.0669 -0.7614 -0.0043
   89SAPS  H20R 8626   4.932   3.683   9.066  0.6508 -1.1697 -0.3559
   89SAPS  H20S 8627   4.857   3.532   9.026  1.1416 -0.2088  2.1990
   89SAPS  H20T 8628   4.758   3.683   9.017 -0.3667 -2.6162  2.3532
   89SAPS   C33 8629   5.810   3.191   9.852  0.2191 -0.3598 -0.0468
   89SAPS   H3X 8630   5.701   3.190   9.829 -0.0006 -1.3965  0.9250
   89SAPS   H3Y 8631   5.849   3.094   9.889 -1.2334 -0.6297  0.8800
   89SAPS   C34 8632   5.859   3.216   9.704  0.3971  0.6933  0.4995
   89SAPS   H4X 8633   5.842   3.129   9.636  1.0096  0.5275  0.5582
   89SAPS   H4Y 8634   5.968   3.237   9.708  0.4975  0.5795 -0.9759
   89SAPS   C35 8635   5.790   3.346   9.656  0.1583  0.2560 -0.1258
   89SAPS   H5X 8636   5.818   3.433   9.719  0.1472  0.6974 -0.7180
   89SAPS   H5Y 8637   5.680   3.334   9.656  0.1127  0.6595  0.5149
   89SAPS   C36 8638   5.835   3.377   9.511  0.5072 -0.2712 -0.6071
   89SAPS   H6X 8639   5.943   3.404   9.519  0.0907  1.0621  1.4487
   89SAPS   H6Y 8640   5.783   3.474   9.497  1.6500  0.6980  1.3765
   89SAPS   C37 8641   5.805   3.271   9.406  0.1384 -0.7507 -0.3536
   89SAPS   H7X 8642   5.696   3.266   9.387  0.3246  0.9648 -2.1749
   89SAPS   H7Y 8643   5.851   3.171   9.420  1.8514 -0.0353 -0.6228
   89SAPS   C38 8644   5.862   3.323   9.269 -0.1413  0.3248  0.1535
   89SAPS   H8X 8645   5.906   3.237   9.215  0.5749  0.0397  1.1472
   89SAPS   H8Y 8646   5.944   3.396   9.284 -2.4581  3.0753  0.3052
   89SAPS   C39 8647   5.752   3.391   9.176 -0.3047 -0.3342 -0.3469
   89SAPS   H9X 8648   5.686   3.452   9.242 -0.7973  0.2299 -1.3532
   89SAPS   H9Y 8649   5.695   3.304   9.136 -1.3200  0.4991 -0.7606
   89SAPS  C310 8650   5.818   3.458   9.056  0.3143  0.1180  0.5701
   89SAPS  H10X 8651   5.877   3.382   9.003 -1.3889 -0.0399 -1.2088
   89SAPS  H10Y 8652   5.886   3.542   9.082  3.6512 -2.1541 -0.1538
   89SAPS  C311 8653   5.720   3.524   8.948  0.2655  0.6227  0.4592
   89SAPS  H11X 8654   5.670   3.613   8.992 -1.9563  0.2816 -1.2116
   89SAPS  H11Y 8655   5.638   3.452   8.929 -0.3206  1.7576 -1.5605
   89SAPS  C312 8656   5.793   3.566   8.823 -0.5745 -0.0036  0.6320
   89SAPS  H12X 8657   5.835   3.474   8.777 -0.1465 -0.6961  2.3134
   89SAPS  H12Y 8658   5.870   3.643   8.849 -0.6319  0.0139  0.7501
   89SAPS  C313 8659   5.693   3.636   8.725 -0.2615 -0.5113 -0.1066
   89SAPS  H13X 8660   5.627   3.695   8.792  0.2856  0.3289 -0.2930
   89SAPS  H13Y 8661   5.638   3.556   8.671  0.2837 -1.0828  0.1809
   89SAPS  C314 8662   5.762   3.735   8.639 -0.0173 -1.1290 -0.4760
   89SAPS  H14X 8663   5.850   3.704   8.578  0.4891  2.6446 -1.9075
   89SAPS  H14Y 8664   5.812   3.812   8.701 -1.8497  0.2153 -0.5979
   89SAPS  C315 8665   5.662   3.799   8.540  0.1178 -0.2544 -0.3152
   89SAPS  H15X 8666   5.572   3.825   8.599  0.6214  1.1450 -0.1316
   89SAPS  H15Y 8667   5.640   3.723   8.462 -0.3118 -0.6244  0.1581
   89SAPS  C316 8668   5.710   3.929   8.476  0.3485 -0.2593 -0.4232
   89SAPS  H16X 8669   5.786   3.900   8.401 -0.8870 -0.2255 -1.7408
   89SAPS  H16Y 8670   5.758   3.998   8.548 -2.2636  0.9483  0.2790
   89SAPS  C317 8671   5.599   4.007   8.403 -0.6663 -0.0344  0.0117
   89SAPS  H17X 8672   5.530   4.029   8.488 -0.0350  2.3302 -0.0328
   89SAPS  H17Y 8673   5.542   3.944   8.331 -1.9992 -0.5384  1.4597
   89SAPS  C318 8674   5.638   4.141   8.342 -0.4087 -0.1237 -0.0660
   89SAPS  H18X 8675   5.702   4.135   8.251 -1.8872 -2.2925 -1.0534
   89SAPS  H18Y 8676   5.701   4.193   8.417 -1.9811 -0.0412  1.2501
   89SAPS  H18Z 8677   5.553   4.202   8.305  2.3505  4.0709 -0.1296
   90SAPS     N 8678   6.322   3.087  10.974  0.1631  0.8558  0.2580
   90SAPS   HN1 8679   6.317   3.186  10.943 -1.4265  0.5513 -0.5488
   90SAPS   HN2 8680   6.287   3.081  11.072 -0.1490  3.2573  0.3541
   90SAPS   HN3 8681   6.418   3.048  10.967 -0.7355 -1.1316 -2.7493
   90SAPS   C12 8682   6.245   3.013  10.874 -0.0299  0.7777 -0.4923
   90SAPS  H12A 8683   6.230   2.919  10.925 -0.5318  1.5166  0.7939
   90SAPS   C13 8684   6.114   3.092  10.837 -0.5779 -0.5125 -0.2291
   90SAPS  O13A 8685   6.081   3.195  10.905  0.1309  0.1104  0.6118
   90SAPS  O13B 8686   6.043   3.050  10.743 -0.1431  0.2303 -0.2188
   90SAPS   C11 8687   6.308   2.982  10.731 -0.1873 -0.8767  0.1368
   90SAPS  H11A 8688   6.334   3.072  10.672 -0.6736  0.7158  2.2118
   90SAPS  H11B 8689   6.228   2.942  10.665 -1.0825  1.0635 -0.0108
   90SAPS     P 8690   6.417   2.750  10.704 -0.8363 -0.4256 -0.0346
   90SAPS   O13 8691   6.513   2.688  10.795  0.0727 -0.1937  0.1020
   90SAPS   O14 8692   6.273   2.710  10.708  0.6425  0.0873  0.7247
   90SAPS   O12 8693   6.426   2.906  10.737  0.0940 -0.6315  0.1435
   90SAPS   O11 8694   6.473   2.735  10.552 -0.2959  0.1488 -0.0569
   90SAPS    C1 8695   6.486   2.841  10.453 -0.3796  0.5003  0.0759
   90SAPS    HA 8696   6.443   2.938  10.485  0.2481  0.6488  0.4915
   90SAPS    HB 8697   6.588   2.845  10.411 -0.5465  0.3028 -0.3529
   90SAPS    C2 8698   6.399   2.788  10.336  0.2921  0.3458 -0.3361
   90SAPS    HS 8699   6.385   2.857  10.249 -1.8851 -0.2651 -0.5222
   90SAPS   O21 8700   6.266   2.756  10.377  0.2443  0.3809 -0.3936
   90SAPS   C21 8701   6.184   2.853  10.408 -0.2382 -0.2259  0.7857
   90SAPS   O22 8702   6.203   2.973  10.390  0.1793  0.4862 -0.0494
   90SAPS   C22 8703   6.065   2.784  10.482 -0.1876 -0.3017 -0.3350
   90SAPS   H2R 8704   6.058   2.679  10.448 -0.7113 -0.0534 -1.0145
   90SAPS   H2S 8705   6.085   2.795  10.591  2.2528  0.0999 -0.7598
   90SAPS    C3 8706   6.449   2.653  10.279  0.2032 -0.4171 -0.1927
   90SAPS    HX 8707   6.447   2.576  10.359  0.3621  0.7457  0.9706
   90SAPS    HY 8708   6.556   2.678  10.262  0.5329 -1.0742  0.8398
   90SAPS   O31 8709   6.386   2.611  10.157  0.3391 -0.2751 -0.2630
   90SAPS   C31 8710   6.281   2.532  10.173 -0.0065 -0.4484 -0.0294
   90SAPS   O32 8711   6.226   2.500  10.276  0.1866  0.5663  0.2927
   90SAPS   C32 8712   6.270   2.463  10.037 -0.7406  0.2771 -0.1385
   90SAPS   H2X 8713   6.371   2.434  10.001 -0.3248 -1.5017  2.2117
   90SAPS   H2Y 8714   6.235   2.538   9.963 -0.4216 -1.2703 -1.9332
   90SAPS   C23 8715   5.927   2.849  10.450 -0.8363  0.4764 -0.0480
   90SAPS   H3R 8716   5.931   2.950  10.496 -0.4268 -0.7693  2.8693
   90SAPS   H3S 8717   5.847   2.782  10.491  2.1234 -1.7356  2.6908
   90SAPS   C24 8718   5.891   2.868  10.301 -0.0096  0.4249 -0.0423
   90SAPS   H4R 8719   5.962   2.945  10.266  1.5235 -0.0846  1.8049
   90SAPS   H4S 8720   5.789   2.912  10.293  0.0459  0.5304 -0.1711
   90SAPS   C25 8721   5.893   2.734  10.228  0.4469  0.4408 -0.3634
   90SAPS   H5R 8722   5.866   2.647  10.289 -1.1474  0.9100 -0.3628
   90SAPS   C26 8723   5.929   2.718  10.097  0.2960  0.1375  0.1125
   90SAPS   H6R 8724   5.925   2.618  10.050  1.2813  0.5105 -0.7990
   90SAPS   C27 8725   5.983   2.828  10.007  0.8236 -0.6659 -0.3036
   90SAPS   H7R 8726   5.939   2.928  10.029 -4.3235 -1.6482 -4.1733
   90SAPS   H7S 8727   5.928   2.805   9.913 -1.4444 -0.4078  0.8813
   90SAPS   C28 8728   6.134   2.826  10.001  0.0892 -0.7142 -0.1920
   90SAPS   H8R 8729   6.192   2.834  10.094  1.7239 -0.8854 -1.1483
   90SAPS   C29 8730   6.213   2.815   9.895 -0.8585  0.1683  0.9250
   90SAPS   H9R 8731   6.322   2.825   9.906 -0.9559  1.7559  0.6708
   90SAPS  C210 8732   6.153   2.803   9.755 -0.4379  0.0583 -0.0924
   90SAPS  H10R 8733   6.081   2.885   9.736 -1.0855 -0.8518 -1.7231
   90SAPS  H10S 8734   6.097   2.707   9.748  0.5878 -0.7006  1.3804
   90SAPS  C211 8735   6.254   2.811   9.639  0.5501 -0.0016 -0.5484
   90SAPS  H11R 8736   6.342   2.747   9.655 -0.2958 -0.9066  0.7131
   90SAPS  C212 8737   6.222   2.850   9.512 -0.0412  0.1388  0.4293
   90SAPS  H12R 8738   6.291   2.814   9.434 -1.8624 -1.1114 -0.6688
   90SAPS  C213 8739   6.092   2.904   9.461 -0.0527 -0.0888 -0.3617
   90SAPS  H13R 8740   6.100   3.014   9.457  1.7766 -0.0103  2.5524
   90SAPS  H13S 8741   6.011   2.881   9.535  0.8677  2.9086  1.7637
   90SAPS  C214 8742   6.046   2.848   9.328  0.8062 -0.5039 -0.3050
   90SAPS  H14R 8743   6.080   2.914   9.247 -2.4810 -0.3098 -1.6787
   90SAPS  C215 8744   5.966   2.740   9.292 -0.4503 -0.1896 -0.5617
   90SAPS  H15R 8745   5.937   2.746   9.186 -0.9712  1.0583 -0.3584
   90SAPS  C216 8746   5.905   2.628   9.374 -0.2201 -0.8182 -0.4818
   90SAPS  H16R 8747   5.972   2.610   9.461  0.0584  3.2031  0.3580
   90SAPS  H16S 8748   5.901   2.542   9.304 -3.1902 -1.4444  0.3424
   90SAPS  C217 8749   5.765   2.660   9.427  0.3426  0.4680 -0.6161
   90SAPS  H17R 8750   5.711   2.712   9.344 -0.2265  1.3950  0.3156
   90SAPS  H17S 8751   5.764   2.732   9.511 -0.1543  0.3235 -0.4961
   90SAPS  C218 8752   5.685   2.534   9.472 -0.3218 -0.2506 -0.0986
   90SAPS  H18R 8753   5.683   2.465   9.385 -1.5782 -0.8982  0.4142
   90SAPS  H18S 8754   5.583   2.568   9.497  0.1634 -0.0717  1.7817
   90SAPS  C219 8755   5.740   2.463   9.600 -0.3618  0.0505  0.5220
   90SAPS  H19R 8756   5.840   2.427   9.568  0.4590  0.6600  2.2776
   90SAPS  H19S 8757   5.674   2.382   9.636 -1.4043 -0.1035 -1.6128
   90SAPS  C220 8758   5.785   2.554   9.717 -0.2752 -0.5788  0.4858
   90SAPS  H20R 8759   5.842   2.636   9.670 -2.9399 -0.9411 -3.9431
   90SAPS  H20S 8760   5.851   2.500   9.789  3.0505 -0.5346 -2.2425
   90SAPS  H20T 8761   5.688   2.579   9.764 -3.1710 -3.9154 -3.0497
   90SAPS   C33 8762   6.175   2.344  10.033  0.8792 -0.2587 -0.9022
   90SAPS   H3X 8763   6.069   2.374  10.048  1.5785  0.9888  2.3780
   90SAPS   H3Y 8764   6.196   2.276  10.118 -0.7319  0.5250  0.1782
   90SAPS   C34 8765   6.181   2.264   9.898  0.3693  0.8068 -0.4926
   90SAPS   H4X 8766   6.130   2.167   9.916  0.1294  1.2352  1.3128
   90SAPS   H4Y 8767   6.288   2.239   9.881  0.4174  0.6030  0.1015
   90SAPS   C35 8768   6.139   2.343   9.769 -0.4076  0.3492  0.0412
   90SAPS   H5X 8769   6.192   2.440   9.762 -0.4483  0.2443 -3.0598
   90SAPS   H5Y 8770   6.029   2.358   9.780 -0.3918  0.9930 -0.6043
   90SAPS   C36 8771   6.173   2.260   9.651  0.5902 -0.2236  0.2287
   90SAPS   H6X 8772   6.117   2.164   9.660  0.3759 -0.1739 -0.5171
   90SAPS   H6Y 8773   6.281   2.237   9.640  1.0337  2.2599 -1.2673
   90SAPS   C37 8774   6.104   2.315   9.526 -0.4998  0.4126 -0.0770
   90SAPS   H7X 8775   6.159   2.407   9.497  0.6022 -0.2418 -0.1304
   90SAPS   H7Y 8776   5.996   2.333   9.543 -0.8982 -2.2021  0.6044
   90SAPS   C38 8777   6.133   2.213   9.413 -0.3211 -0.5489 -0.2470
   90SAPS   H8X 8778   6.071   2.122   9.429 -0.3566 -0.3816  0.6562
   90SAPS   H8Y 8779   6.237   2.174   9.409 -0.1967 -0.1818 -0.6441
   90SAPS   C39 8780   6.088   2.267   9.276  0.0166  0.2383  0.0123
   90SAPS   H9X 8781   6.153   2.355   9.259  1.4685 -0.5331  1.3743
   90SAPS   H9Y 8782   5.980   2.294   9.281 -0.2609 -0.9587  0.7901
   90SAPS  C310 8783   6.106   2.168   9.158 -0.1470 -0.3362 -1.5168
   90SAPS  H10X 8784   6.043   2.079   9.181 -1.4290  1.1235  0.9820
   90SAPS  H10Y 8785   6.208   2.126   9.147 -0.9470 -3.6276  1.8160
   90SAPS  C311 8786   6.051   2.234   9.036  0.2735 -0.2111 -0.1086
   90SAPS  H11X 8787   6.125   2.308   8.998 -0.4243  0.6528  0.1623
   90SAPS  H11Y 8788   5.955   2.288   9.052  0.3091 -0.6557  1.9312
   90SAPS  C312 8789   6.033   2.133   8.915  0.3328  0.1715 -0.1081
   90SAPS  H12X 8790   5.982   2.045   8.960  1.5382 -0.1660  0.6421
   90SAPS  H12Y 8791   6.136   2.108   8.879  1.1261 -0.5019  2.4442
   90SAPS  C313 8792   5.937   2.176   8.804 -0.0868 -0.8165  0.2563
   90SAPS  H13X 8793   5.987   2.259   8.751  0.0521  0.0292  1.6567
   90SAPS  H13Y 8794   5.847   2.229   8.843  1.8849  2.3212  0.8876
   90SAPS  C314 8795   5.901   2.066   8.709 -0.8007 -0.6516 -0.0420
   90SAPS  H14X 8796   5.830   1.999   8.762 -2.3777  0.5310 -0.5900
   90SAPS  H14Y 8797   5.983   1.998   8.676  0.0747  0.3099  0.1092
   90SAPS  C315 8798   5.827   2.123   8.587 -0.4460  0.2194  0.0549
   90SAPS  H15X 8799   5.748   2.188   8.630 -0.0775  1.3461 -0.9108
   90SAPS  H15Y 8800   5.787   2.024   8.555 -1.0656  0.0827  1.1891
   90SAPS  C316 8801   5.899   2.204   8.475 -0.5035  0.6231  0.1839
   90SAPS  H16X 8802   5.906   2.312   8.497 -0.0219  0.6128  0.0899
   90SAPS  H16Y 8803   5.845   2.188   8.380  0.7089 -2.6519 -0.0700
   90SAPS  C317 8804   6.037   2.153   8.429 -0.5545 -0.6879 -0.1359
   90SAPS  H17X 8805   6.038   2.044   8.448  0.3565 -0.7616 -0.5761
   90SAPS  H17Y 8806   6.103   2.206   8.501 -0.3627 -1.1914  0.0621
   90SAPS  C318 8807   6.082   2.185   8.281  0.5594 -0.7307  0.0809
   90SAPS  H18X 8808   6.054   2.099   8.216  1.7600  0.2631 -1.8615
   90SAPS  H18Y 8809   6.192   2.191   8.267  0.9112 -1.6778  2.1048
   90SAPS  H18Z 8810   6.029   2.277   8.249 -0.7105 -1.2195  0.6996
   91SAPS     N 8811   2.236   4.199   6.125  0.0337 -0.3430 -0.2740
   91SAPS   HN1 8812   2.134   4.194   6.105  0.5248  1.5865 -4.3530
   91SAPS   HN2 8813   2.256   4.227   6.223 -0.0725 -1.1744 -0.0062
   91SAPS   HN3 8814   2.265   4.271   6.056  0.0102  0.4944  0.5740
   91SAPS   C12 8815   2.276   4.058   6.093 -0.4938  0.9600  0.0724
   91SAPS  H12A 8816   2.231   3.984   6.158  3.1626 -0.5875  1.0778
   91SAPS   C13 8817   2.240   4.019   5.942  0.4811  0.2291 -0.9807
   91SAPS  O13A 8818   2.200   4.102   5.861 -0.1490 -0.2374 -0.3177
   91SAPS  O13B 8819   2.261   3.896   5.906 -0.2717 -0.9997 -0.1780
   91SAPS   C11 8820   2.435   4.039   6.100 -0.3835 -0.1696  0.4504
   91SAPS  H11A 8821   2.491   4.106   6.032 -0.4090 -0.7561 -0.1625
   91SAPS  H11B 8822   2.461   3.935   6.071 -2.1697 -0.2906 -0.8763
   91SAPS     P 8823   2.629   4.077   6.270  0.1477 -0.1394  0.3270
   91SAPS   O13 8824   2.675   3.941   6.303 -0.3178 -0.8662 -0.1501
   91SAPS   O14 8825   2.694   4.148   6.157 -0.3477  0.8676 -0.6166
   91SAPS   O12 8826   2.475   4.061   6.229  0.3312 -0.8664  0.4292
   91SAPS   O11 8827   2.647   4.162   6.397 -0.0699 -0.0121 -0.2631
   91SAPS    C1 8828   2.542   4.218   6.469 -0.1427  0.4805  0.3890
   91SAPS    HA 8829   2.497   4.292   6.399  2.1779  0.3404 -1.3693
   91SAPS    HB 8830   2.468   4.137   6.486  1.7214 -1.3631  0.0698
   91SAPS    C2 8831   2.590   4.284   6.600 -0.0138  0.5652  0.4175
   91SAPS    HS 8832   2.689   4.332   6.582 -0.0177 -0.0332 -1.4918
   91SAPS   O21 8833   2.608   4.171   6.690  0.2074 -0.0709  0.5907
   91SAPS   C21 8834   2.678   4.202   6.796  0.2183 -0.2219 -0.2697
   91SAPS   O22 8835   2.749   4.305   6.814  0.5345 -0.1228  0.4793
   91SAPS   C22 8836   2.668   4.088   6.898  0.1700 -0.2769 -0.1910
   91SAPS   H2R 8837   2.565   4.107   6.935 -0.3463 -1.0186 -1.2047
   91SAPS   H2S 8838   2.679   3.986   6.854 -1.1932 -0.2957 -0.5157
   91SAPS    C3 8839   2.483   4.390   6.661  0.8215 -1.0895 -0.1075
   91SAPS    HX 8840   2.390   4.331   6.673  0.0425  0.2829  0.7301
   91SAPS    HY 8841   2.471   4.473   6.589  2.1387  0.5436  1.4653
   91SAPS   O31 8842   2.517   4.440   6.793 -0.1543 -0.1022  0.4480
   91SAPS   C31 8843   2.553   4.561   6.801 -0.0755 -0.4708 -0.8318
   91SAPS   O32 8844   2.579   4.632   6.709 -0.0967  0.2201  0.7097
   91SAPS   C32 8845   2.556   4.605   6.950 -0.0205 -0.2392  0.0858
   91SAPS   H2X 8846   2.458   4.582   6.996 -1.2224  0.7283 -1.8574
   91SAPS   H2Y 8847   2.575   4.714   6.941  1.3948 -0.5138 -0.5586
   91SAPS   C23 8848   2.768   4.087   7.018 -0.1034 -0.0341  0.0545
   91SAPS   H3R 8849   2.723   4.079   7.119 -1.3730 -0.1254 -0.5018
   91SAPS   H3S 8850   2.810   4.190   7.030  0.6356 -0.5844  3.0296
   91SAPS   C24 8851   2.882   3.984   7.011 -0.0137  0.0227 -0.6558
   91SAPS   H4R 8852   2.909   3.990   6.903 -0.3928  0.9975 -0.7140
   91SAPS   H4S 8853   2.840   3.888   7.045  0.0890  0.3482  0.4256
   91SAPS   C25 8854   2.999   4.011   7.103  0.9848 -0.6380 -0.2078
   91SAPS   H5R 8855   3.089   4.045   7.049 -0.4388  1.6950 -1.3029
   91SAPS   C26 8856   3.003   3.996   7.238  0.2552 -0.4655 -0.2087
   91SAPS   H6R 8857   3.087   4.035   7.297 -1.5411  0.3231  1.9959
   91SAPS   C27 8858   2.895   3.952   7.331 -0.4737  0.2323 -0.2409
   91SAPS   H7R 8859   2.912   3.849   7.371 -0.7385  0.3813  0.2643
   91SAPS   H7S 8860   2.795   3.943   7.282 -0.9349  1.6854  0.3943
   91SAPS   C28 8861   2.882   4.059   7.426  0.7785  0.0335 -0.8889
   91SAPS   H8R 8862   2.859   4.159   7.386  1.7746  0.8346  0.4723
   91SAPS   C29 8863   2.910   4.044   7.558 -0.8806 -0.5968  0.1533
   91SAPS   H9R 8864   2.910   4.136   7.619 -1.0028 -1.8625  2.1386
   91SAPS  C210 8865   2.954   3.925   7.642  0.1990  0.2834 -0.0300
   91SAPS  H10R 8866   3.044   3.962   7.695  0.7684 -2.8834  1.4620
   91SAPS  H10S 8867   2.987   3.838   7.581  1.3793  0.5965  0.1526
   91SAPS  C211 8868   2.844   3.880   7.737 -0.4657  0.2307  0.3107
   91SAPS  H11R 8869   2.784   3.796   7.699  0.5304 -0.7772  0.9116
   91SAPS  C212 8870   2.824   3.913   7.862  0.4971 -0.2713  0.6529
   91SAPS  H12R 8871   2.740   3.876   7.923  1.4350 -1.7264  1.0902
   91SAPS  C213 8872   2.908   4.003   7.947  0.2511 -0.3173 -0.0835
   91SAPS  H13R 8873   2.927   4.092   7.884 -0.0169  0.4381  0.8816
   91SAPS  H13S 8874   3.010   3.961   7.952  0.3971  0.2249  2.5072
   91SAPS  C214 8875   2.854   4.048   8.083  0.1680  0.1857  0.0214
   91SAPS  H14R 8876   2.774   4.123   8.075 -0.0732 -0.1493 -0.8029
   91SAPS  C215 8877   2.896   4.017   8.205 -0.4625  0.2278 -0.4043
   91SAPS  H15R 8878   2.845   4.065   8.290  1.3527  2.0969 -0.2900
   91SAPS  C216 8879   3.005   3.920   8.236 -0.3877 -0.0753 -0.3288
   91SAPS  H16R 8880   3.096   3.976   8.267 -0.0400 -0.9855  0.3416
   91SAPS  H16S 8881   3.027   3.858   8.146 -2.6638 -1.4895  0.0423
   91SAPS  C217 8882   2.959   3.826   8.349  0.7834 -0.2802 -0.9164
   91SAPS  H17R 8883   2.908   3.882   8.429  2.0810  0.2555 -0.4453
   91SAPS  H17S 8884   3.045   3.773   8.394  2.3970  2.9486  0.0938
   91SAPS  C218 8885   2.847   3.730   8.286 -0.6666 -0.3676 -1.0261
   91SAPS  H18R 8886   2.890   3.687   8.194  1.9858  1.4133 -0.7249
   91SAPS  H18S 8887   2.748   3.772   8.258 -1.5855 -2.2006 -0.7018
   91SAPS  C219 8888   2.817   3.605   8.369  0.0599 -0.2694  0.4326
   91SAPS  H19R 8889   2.730   3.556   8.322 -0.6322 -1.4158  2.7583
   91SAPS  H19S 8890   2.773   3.635   8.467  1.5603  1.2118  0.6957
   91SAPS  C220 8891   2.929   3.503   8.397  0.0729 -0.2285 -0.2263
   91SAPS  H20R 8892   2.894   3.413   8.451 -0.4374  0.7688  1.1640
   91SAPS  H20S 8893   3.015   3.552   8.448 -0.6998  3.6246 -2.2146
   91SAPS  H20T 8894   2.969   3.466   8.300  0.1834  0.1083 -0.3088
   91SAPS   C33 8895   2.673   4.533   7.019  0.1789  0.0520 -0.4842
   91SAPS   H3X 8896   2.769   4.538   6.963  0.4126  0.7253 -0.0361
   91SAPS   H3Y 8897   2.656   4.424   7.033 -1.0907  0.3031  0.0849
   91SAPS   C34 8898   2.703   4.601   7.156  0.0251 -0.0889 -0.4449
   91SAPS   H4X 8899   2.748   4.702   7.145 -1.4027  0.7322  0.8515
   91SAPS   H4Y 8900   2.782   4.544   7.209 -0.5320 -0.6061 -0.1458
   91SAPS   C35 8901   2.570   4.604   7.243 -0.2606  0.1011  0.4530
   91SAPS   H5X 8902   2.527   4.502   7.234 -0.9225  0.4721 -0.8193
   91SAPS   H5Y 8903   2.504   4.682   7.198  1.8358  0.5570 -2.0827
   91SAPS   C36 8904   2.602   4.617   7.396  0.3668 -0.7493  0.0817
   91SAPS   H6X 8905   2.646   4.713   7.430 -0.9184 -1.0654  2.8907
   91SAPS   H6Y 8906   2.682   4.542   7.411  0.3194 -0.8419 -0.1232
   91SAPS   C37 8907   2.475   4.598   7.483 -0.0977  0.2470  0.1031
   91SAPS   H7X 8908   2.426   4.500   7.463  3.2003 -1.8237  1.1604
   91SAPS   H7Y 8909   2.412   4.681   7.446 -0.9766 -1.3112 -2.0826
   91SAPS   C38 8910   2.506   4.605   7.633 -0.0955 -0.7827 -0.0297
   91SAPS   H8X 8911   2.559   4.694   7.673 -0.6836  1.6093 -4.0014
   91SAPS   H8Y 8912   2.570   4.519   7.662  1.3382  0.5736  0.9707
   91SAPS   C39 8913   2.383   4.606   7.716  0.1470 -0.2240 -0.8232
   91SAPS   H9X 8914   2.311   4.521   7.708 -2.3052  1.7781 -1.3571
   91SAPS   H9Y 8915   2.322   4.693   7.683 -1.0099 -0.2077  1.1728
   91SAPS  C310 8916   2.417   4.611   7.866 -0.5282  0.0069  0.1108
   91SAPS  H10X 8917   2.487   4.529   7.895  0.4663  0.6657 -0.3539
   91SAPS  H10Y 8918   2.319   4.596   7.915 -0.1927  1.5743  1.3463
   91SAPS  C311 8919   2.474   4.749   7.921 -0.4874 -0.4366 -0.0388
   91SAPS  H11X 8920   2.421   4.840   7.885  1.0339  0.5543  0.1552
   91SAPS  H11Y 8921   2.575   4.759   7.876 -2.0030 -1.5909 -4.1073
   91SAPS  C312 8922   2.476   4.748   8.074 -0.7301 -0.1802 -0.2150
   91SAPS  H12X 8923   2.536   4.661   8.108 -0.2598  0.5545  0.9133
   91SAPS  H12Y 8924   2.369   4.733   8.099 -0.7815  1.9210  1.1342
   91SAPS  C313 8925   2.523   4.888   8.122  0.1728 -0.4185  0.1055
   91SAPS  H13X 8926   2.492   4.955   8.039 -2.4852 -1.1309  0.4155
   91SAPS  H13Y 8927   2.634   4.888   8.119  0.2360 -1.1975  1.5915
   91SAPS  C314 8928   2.472   4.940   8.260 -0.6843  0.0257 -0.0300
   91SAPS  H14X 8929   2.364   4.965   8.254 -0.5279  0.3756 -2.9065
   91SAPS  H14Y 8930   2.519   5.039   8.279  0.3618 -0.3507 -0.5259
   91SAPS  C315 8931   2.502   4.838   8.370  0.2821  0.1199 -0.4638
   91SAPS  H15X 8932   2.609   4.813   8.386  0.1987 -0.2305 -0.4494
   91SAPS  H15Y 8933   2.462   4.740   8.336 -2.4685  0.4834  1.4856
   91SAPS  C316 8934   2.427   4.872   8.506 -0.8831 -0.2961 -0.5036
   91SAPS  H16X 8935   2.417   4.782   8.571  0.1076  1.1026  1.6842
   91SAPS  H16Y 8936   2.325   4.913   8.488 -1.7263 -2.3773 -0.7577
   91SAPS  C317 8937   2.512   4.966   8.587  0.2743 -0.4971  0.2561
   91SAPS  H17X 8938   2.527   5.064   8.537 -0.7237 -0.5834 -0.2358
   91SAPS  H17Y 8939   2.611   4.924   8.614 -0.7213 -1.1922  3.2783
   91SAPS  C318 8940   2.442   4.993   8.716  0.1201 -0.5061 -0.0950
   91SAPS  H18X 8941   2.412   4.898   8.767 -0.3240  0.2097  1.0079
   91SAPS  H18Y 8942   2.348   5.046   8.691 -0.0637 -0.0427  1.4455
   91SAPS  H18Z 8943   2.500   5.062   8.781 -2.4382  0.9525  0.7942
   92SAPS     N 8944   3.408   0.119   6.142  0.9640 -0.5566  0.2225
   92SAPS   HN1 8945   3.453   0.162   6.059  1.1276 -1.2957 -0.0725
   92SAPS   HN2 8946   3.308   0.107   6.115  1.3480 -0.8643 -1.1348
   92SAPS   HN3 8947   3.408   0.187   6.221  0.2506 -1.0339  0.6451
   92SAPS   C12 8948   3.489   0.005   6.191  0.8866 -0.6215 -0.6849
   92SAPS  H12A 8949   3.501  -0.058   6.104  1.6399 -0.9090 -0.3820
   92SAPS   C13 8950   3.633   0.051   6.234  0.4417  0.3080 -0.3528
   92SAPS  O13A 8951   3.658   0.173   6.221 -0.1288  0.2224 -0.6407
   92SAPS  O13B 8952   3.703  -0.038   6.290  0.1130 -0.1323 -0.4893
   92SAPS   C11 8953   3.409  -0.071   6.298 -0.6588 -0.5583 -0.6379
   92SAPS  H11A 8954   3.479  -0.141   6.349 -0.8674 -0.1914  0.1567
   92SAPS  H11B 8955   3.335  -0.133   6.243 -2.6126  1.7745 -0.7833
   92SAPS     P 8956   3.275  -0.025   6.517  0.5413 -0.3007  0.4350
   92SAPS   O13 8957   3.384  -0.060   6.606  0.2049  0.5179  0.1807
   92SAPS   O14 8958   3.178   0.079   6.560 -0.3270 -0.2072 -0.9275
   92SAPS   O12 8959   3.350   0.028   6.392 -0.6282 -0.6689  0.2107
   92SAPS   O11 8960   3.196  -0.150   6.465  0.1854 -0.4078  0.1908
   92SAPS    C1 8961   3.231  -0.282   6.496 -0.8509 -0.1921 -0.7038
   92SAPS    HA 8962   3.209  -0.345   6.407  0.2719 -1.5956 -0.0299
   92SAPS    HB 8963   3.338  -0.293   6.524 -1.2875 -0.3122  1.0795
   92SAPS    C2 8964   3.145  -0.346   6.609 -0.1571  0.4219 -0.3417
   92SAPS    HS 8965   3.139  -0.455   6.588  0.4523 -0.1111  1.9674
   92SAPS   O21 8966   3.014  -0.291   6.612  0.2061  0.2427  0.0498
   92SAPS   C21 8967   2.938  -0.314   6.507 -0.3108  0.5422  0.4632
   92SAPS   O22 8968   2.961  -0.394   6.418  0.6300 -0.0802  0.0945
   92SAPS   C22 8969   2.817  -0.212   6.503 -1.0561 -0.1645  0.3595
   92SAPS   H2R 8970   2.810  -0.149   6.595 -0.4569 -0.0437  0.3225
   92SAPS   H2S 8971   2.838  -0.135   6.426 -1.7992 -1.9971 -1.7837
   92SAPS    C3 8972   3.202  -0.338   6.750  0.0969  0.2042 -0.0065
   92SAPS    HX 8973   3.177  -0.239   6.795 -0.8262 -0.2881  0.6154
   92SAPS    HY 8974   3.312  -0.346   6.739  0.1169  1.2238 -0.6811
   92SAPS   O31 8975   3.137  -0.442   6.833  0.8062  0.6478  0.1499
   92SAPS   C31 8976   3.110  -0.413   6.956  0.3087 -0.3123 -0.5885
   92SAPS   O32 8977   3.128  -0.307   7.011 -0.1341  0.4724 -0.3249
   92SAPS   C32 8978   3.073  -0.542   7.029  0.0772 -0.1929  0.1578
   92SAPS   H2X 8979   3.167  -0.600   7.039  1.2361  1.3917 -1.1693
   92SAPS   H2Y 8980   3.002  -0.602   6.967 -0.8553 -1.6836  2.5303
   92SAPS   C23 8981   2.683  -0.278   6.474  0.5548  0.3263  0.6448
   92SAPS   H3R 8982   2.691  -0.355   6.394 -2.7075  0.4644  0.0664
   92SAPS   H3S 8983   2.615  -0.200   6.436  0.4980 -0.2636 -0.5011
   92SAPS   C24 8984   2.601  -0.319   6.599  0.1612  1.3362 -0.6685
   92SAPS   H4R 8985   2.504  -0.366   6.573 -0.3138  1.3185  1.0204
   92SAPS   H4S 8986   2.573  -0.239   6.670  2.2485  0.1575  1.6595
   92SAPS   C25 8987   2.685  -0.419   6.669  0.2161  0.3238  0.1512
   92SAPS   H5R 8988   2.720  -0.498   6.600 -0.4459 -0.5925  0.8407
   92SAPS   C26 8989   2.712  -0.422   6.805 -0.4326 -0.2353  0.2380
   92SAPS   H6R 8990   2.793  -0.491   6.835 -0.7058 -2.0857 -2.8442
   92SAPS   C27 8991   2.672  -0.337   6.919  0.2415 -0.1464  0.1165
   92SAPS   H7R 8992   2.642  -0.397   7.008  0.7929 -0.4214  0.1211
   92SAPS   H7S 8993   2.582  -0.282   6.884  0.1833 -0.9549 -1.0824
   92SAPS   C28 8994   2.772  -0.228   6.940 -0.2280  0.3296 -0.4944
   92SAPS   H8R 8995   2.845  -0.222   6.858  0.0764  1.4303 -0.1710
   92SAPS   C29 8996   2.809  -0.156   7.048 -0.1454 -0.9487 -0.0497
   92SAPS   H9R 8997   2.901  -0.097   7.033  1.8471 -3.4017  1.6376
   92SAPS  C210 8998   2.741  -0.150   7.185 -0.1137  0.4596  0.2277
   92SAPS  H10R 8999   2.638  -0.191   7.184 -0.0724  0.3649 -0.4696
   92SAPS  H10S 9000   2.734  -0.043   7.214 -0.1075  0.2620  0.9779
   92SAPS  C211 9001   2.821  -0.216   7.291  0.2424 -0.1501 -0.6445
   92SAPS  H11R 9002   2.799  -0.323   7.306  0.3418  0.0441  1.1317
   92SAPS  C212 9003   2.908  -0.158   7.379  0.0196  0.2263  0.0130
   92SAPS  H12R 9004   2.963  -0.217   7.454 -0.3894  3.3689  3.0429
   92SAPS  C213 9005   2.940  -0.010   7.379  0.0126  0.0502 -0.1014
   92SAPS  H13R 9006   2.914   0.042   7.284 -0.5625  0.4956  0.2906
   92SAPS  H13S 9007   3.051  -0.006   7.391 -0.2061 -1.4493  3.7448
   92SAPS  C214 9008   2.865   0.052   7.501 -0.2156  0.5731  0.4714
   92SAPS  H14R 9009   2.757   0.062   7.485  0.1942  1.2260 -2.2313
   92SAPS  C215 9010   2.928   0.120   7.601 -0.4520  0.3119 -0.3733
   92SAPS  H15R 9011   2.865   0.178   7.669  0.6151  0.8483  0.1716
   92SAPS  C216 9012   3.074   0.146   7.628 -0.3303  0.2825  0.2315
   92SAPS  H16R 9013   3.095   0.254   7.611 -2.4281  1.0160  1.8647
   92SAPS  H16S 9014   3.145   0.089   7.565  1.6729  1.0436  1.6645
   92SAPS  C217 9015   3.116   0.116   7.775 -0.0604  1.1347  0.0307
   92SAPS  H17R 9016   3.221   0.152   7.774  0.3237  0.1754  1.7574
   92SAPS  H17S 9017   3.104   0.006   7.788 -1.2225  1.2392  0.0090
   92SAPS  C218 9018   3.043   0.175   7.893  0.6555 -0.6265 -0.0293
   92SAPS  H18R 9019   2.950   0.114   7.894  1.4516 -1.9194 -1.1768
   92SAPS  H18S 9020   3.027   0.285   7.886  0.1708 -0.7758 -2.0759
   92SAPS  C219 9021   3.121   0.145   8.019 -0.2442 -0.1190 -0.2609
   92SAPS  H19R 9022   3.228   0.166   7.998 -0.2563  0.1217 -0.0942
   92SAPS  H19S 9023   3.120   0.035   8.030  0.6005 -0.1607 -0.5535
   92SAPS  C220 9024   3.071   0.210   8.148 -0.5113 -0.1599 -0.4190
   92SAPS  H20R 9025   3.127   0.305   8.162 -0.1465 -0.3505 -0.5597
   92SAPS  H20S 9026   3.097   0.142   8.232 -0.6202 -1.2976 -1.2712
   92SAPS  H20T 9027   2.961   0.222   8.148 -0.4740  0.3668  0.9615
   92SAPS   C33 9028   3.012  -0.520   7.166  0.2486  0.5985 -0.4858
   92SAPS   H3X 9029   2.963  -0.420   7.165 -0.0809  0.4445 -0.1075
   92SAPS   H3Y 9030   3.094  -0.521   7.241  0.0234  1.3630 -0.2185
   92SAPS   C34 9031   2.906  -0.623   7.211  0.3648  0.2864 -0.0275
   92SAPS   H4X 9032   2.945  -0.726   7.203 -0.0989  0.0920  0.1671
   92SAPS   H4Y 9033   2.820  -0.615   7.140  0.0351 -0.7423  0.2492
   92SAPS   C35 9034   2.862  -0.619   7.357 -0.4612  0.5122 -0.1284
   92SAPS   H5X 9035   2.801  -0.709   7.380  0.2803  0.1293  0.3800
   92SAPS   H5Y 9036   2.795  -0.531   7.360 -0.9910  0.1843 -1.5668
   92SAPS   C36 9037   2.971  -0.609   7.460 -0.2986 -0.4591 -0.2178
   92SAPS   H6X 9038   3.018  -0.509   7.466  0.1002 -0.7204  2.3797
   92SAPS   H6Y 9039   3.051  -0.680   7.429 -0.5262 -1.1077  0.6299
   92SAPS   C37 9040   2.930  -0.641   7.600  0.1506  0.0999  0.0377
   92SAPS   H7X 9041   3.021  -0.650   7.663  0.8375  2.6396 -0.4608
   92SAPS   H7Y 9042   2.884  -0.742   7.597  1.1242 -0.3369 -1.1078
   92SAPS   C38 9043   2.844  -0.536   7.682  0.6034  0.1990 -0.1398
   92SAPS   H8X 9044   2.744  -0.529   7.635  0.4646 -1.1020 -0.0780
   92SAPS   H8Y 9045   2.890  -0.435   7.691  2.0365 -0.3446 -1.0343
   92SAPS   C39 9046   2.825  -0.581   7.830 -0.0321 -0.7324  0.1785
   92SAPS   H9X 9047   2.746  -0.518   7.876 -0.1853 -0.0743 -0.9462
   92SAPS   H9Y 9048   2.926  -0.570   7.873  1.1207  0.6142 -2.5980
   92SAPS  C310 9049   2.771  -0.726   7.838 -0.1582  0.0959  0.6564
   92SAPS  H10X 9050   2.854  -0.796   7.813 -0.1771  0.2235  0.2358
   92SAPS  H10Y 9051   2.688  -0.739   7.766 -1.4858  2.7788  1.5797
   92SAPS  C311 9052   2.714  -0.767   7.976  0.1424  0.2719  0.2010
   92SAPS  H11X 9053   2.619  -0.817   7.950 -0.5280  2.1990 -1.2803
   92SAPS  H11Y 9054   2.672  -0.680   8.031 -2.6965 -0.8142 -0.0741
   92SAPS  C312 9055   2.819  -0.844   8.057  0.6460 -0.3102  0.4524
   92SAPS  H12X 9056   2.876  -0.924   8.004  3.1788  0.5523  1.6847
   92SAPS  H12Y 9057   2.769  -0.881   8.149 -0.4171  1.3396  0.5737
   92SAPS  C313 9058   2.920  -0.748   8.132 -0.0521 -0.0344  0.1644
   92SAPS  H13X 9059   2.872  -0.648   8.136  2.6158  1.3232  0.7067
   92SAPS  H13Y 9060   3.012  -0.727   8.072  0.3250  0.3225  0.8529
   92SAPS  C314 9061   2.957  -0.786   8.280  0.2976 -0.9384  0.0141
   92SAPS  H14X 9062   2.865  -0.767   8.340 -0.5272 -0.6668 -1.2839
   92SAPS  H14Y 9063   3.038  -0.716   8.311 -0.2445 -0.1734 -0.2480
   92SAPS  C315 9064   3.002  -0.932   8.296  0.0082  0.3447  0.7643
   92SAPS  H15X 9065   3.079  -0.952   8.218 -0.7285 -0.2165  0.1670
   92SAPS  H15Y 9066   2.918  -0.999   8.271 -0.0052 -0.0085  1.7232
   92SAPS  C316 9067   3.055  -0.956   8.445 -0.2602 -0.4387  0.3255
   92SAPS  H16X 9068   2.982  -0.898   8.506  0.3316 -0.1506  0.7756
   92SAPS  H16Y 9069   3.154  -0.906   8.448 -0.0944 -0.7218 -0.2876
   92SAPS  C317 9070   3.057  -1.099   8.486 -0.2849 -0.1680  0.8753
   92SAPS  H17X 9071   3.094  -1.166   8.405 -0.1698  0.6801  0.1955
   92SAPS  H17Y 9072   2.955  -1.143   8.490  0.9124 -3.6251 -1.7951
   92SAPS  C318 9073   3.118  -1.131   8.618 -0.9771  0.0696 -0.0841
   92SAPS  H18X 9074   3.080  -1.073   8.704  0.7841  1.3832 -0.1295
   92SAPS  H18Y 9075   3.227  -1.107   8.615 -0.7604 -0.2662  2.7285
   92SAPS  H18Z 9076   3.128  -1.240   8.636  1.8524  0.3786  0.7464
   93SAPS     N 9077   3.625   0.431   6.350  0.1336 -0.0181  0.3451
   93SAPS   HN1 9078   3.705   0.496   6.367  2.0713 -1.1737 -3.2962
   93SAPS   HN2 9079   3.571   0.415   6.437  0.4340 -0.9484  0.3743
   93SAPS   HN3 9080   3.648   0.335   6.318  1.1147  0.7579 -1.4339
   93SAPS   C12 9081   3.534   0.478   6.243  0.2958  0.0584 -0.0731
   93SAPS  H12A 9082   3.587   0.464   6.150  0.6913 -1.2558  0.3329
   93SAPS   C13 9083   3.388   0.416   6.242  0.5097  0.0211  0.7181
   93SAPS  O13A 9084   3.342   0.328   6.325 -0.6243 -0.1968 -0.1311
   93SAPS  O13B 9085   3.323   0.476   6.151 -0.2869 -0.0047  0.2249
   93SAPS   C11 9086   3.516   0.631   6.268 -0.5966 -0.8096 -0.0093
   93SAPS  H11A 9087   3.466   0.635   6.367  2.3499  0.9051  1.5567
   93SAPS  H11B 9088   3.454   0.673   6.186 -1.2032 -2.4836 -0.4581
   93SAPS     P 9089   3.626   0.860   6.303 -0.0930 -0.3214 -0.3999
   93SAPS   O13 9090   3.754   0.921   6.262 -0.2877 -0.3569 -0.5448
   93SAPS   O14 9091   3.494   0.916   6.248  0.2314 -0.0562  0.1035
   93SAPS   O12 9092   3.636   0.705   6.275  0.3846 -0.2387  0.1460
   93SAPS   O11 9093   3.626   0.858   6.464  0.0635  0.3577 -0.5332
   93SAPS    C1 9094   3.725   0.791   6.540 -0.2594 -1.2986  0.6830
   93SAPS    HA 9095   3.692   0.685   6.538  1.3061 -1.8253  1.3234
   93SAPS    HB 9096   3.821   0.802   6.486 -0.1187 -0.4033  1.1016
   93SAPS    C2 9097   3.748   0.850   6.680 -0.2614  0.2482  0.6409
   93SAPS    HS 9098   3.836   0.796   6.720  1.6266  0.9760 -2.2038
   93SAPS   O21 9099   3.639   0.833   6.770  0.3739 -0.2161 -0.1986
   93SAPS   C21 9100   3.629   0.708   6.822  0.2643  0.1283  0.8121
   93SAPS   O22 9101   3.713   0.621   6.812  0.8963  0.1694 -0.3627
   93SAPS   C22 9102   3.483   0.690   6.875  0.1885  0.4572  0.2596
   93SAPS   H2R 9103   3.429   0.786   6.865  0.7168  0.9702  1.9500
   93SAPS   H2S 9104   3.429   0.616   6.812 -1.8265  1.2722  0.9439
   93SAPS    C3 9105   3.776   0.998   6.658 -0.3108 -0.1053 -0.0188
   93SAPS    HX 9106   3.696   1.046   6.599 -0.5853  0.8482  1.0861
   93SAPS    HY 9107   3.874   1.003   6.605 -0.4154 -0.1315 -0.2122
   93SAPS   O31 9108   3.801   1.057   6.784  0.1095 -0.7529 -0.3166
   93SAPS   C31 9109   3.690   1.105   6.846  0.1606 -0.6308 -0.3976
   93SAPS   O32 9110   3.586   1.116   6.783 -0.2390  0.1287 -0.2806
   93SAPS   C32 9111   3.712   1.151   6.993  0.4848  0.3298  0.5234
   93SAPS   H2X 9112   3.692   1.259   7.010  2.0514  0.4373  2.0055
   93SAPS   H2Y 9113   3.815   1.119   7.022 -0.0444 -2.3145 -0.2509
   93SAPS   C23 9114   3.477   0.666   7.030  0.4969 -0.1928  0.2998
   93SAPS   H3R 9115   3.372   0.664   7.066  0.1377  1.5045 -0.6014
   93SAPS   H3S 9116   3.529   0.749   7.082  2.2983 -0.3311 -1.1871
   93SAPS   C24 9117   3.557   0.544   7.084  0.9312 -0.1069  0.2358
   93SAPS   H4R 9118   3.572   0.565   7.192 -2.1632 -0.2639  0.7889
   93SAPS   H4S 9119   3.656   0.533   7.034 -0.5526 -0.9261 -2.7219
   93SAPS   C25 9120   3.491   0.405   7.071 -0.0583  0.3840 -0.1467
   93SAPS   H5R 9121   3.510   0.357   6.974 -0.2937  4.0657 -2.2026
   93SAPS   C26 9122   3.408   0.347   7.159  0.5662  0.2566 -0.5354
   93SAPS   H6R 9123   3.364   0.254   7.121  2.1590  0.6683 -3.7425
   93SAPS   C27 9124   3.366   0.412   7.290  0.2435 -0.2546  0.3351
   93SAPS   H7R 9125   3.256   0.416   7.295  0.3417  0.7855  2.7639
   93SAPS   H7S 9126   3.396   0.518   7.303  0.5982 -0.1789 -0.9177
   93SAPS   C28 9127   3.412   0.323   7.401  0.4238  0.8026  0.2461
   93SAPS   H8R 9128   3.468   0.231   7.379  0.7116  0.6390  1.5603
   93SAPS   C29 9129   3.395   0.353   7.530 -0.2846 -0.1920 -0.6600
   93SAPS   H9R 9130   3.437   0.270   7.589  1.3625 -0.4024 -2.0311
   93SAPS  C210 9131   3.330   0.466   7.603  0.1668  0.1545  0.1743
   93SAPS  H10R 9132   3.305   0.426   7.703 -0.3684 -1.2194 -0.4840
   93SAPS  H10S 9133   3.231   0.492   7.560 -0.0239 -0.2099  0.3910
   93SAPS  C211 9134   3.421   0.587   7.607  0.2416 -0.0413 -0.1754
   93SAPS  H11R 9135   3.439   0.636   7.510  1.0898 -0.7696 -0.4017
   93SAPS  C212 9136   3.481   0.640   7.720  0.5417  0.0955  0.9865
   93SAPS  H12R 9137   3.536   0.735   7.706 -1.4467  1.4461  1.8289
   93SAPS  C213 9138   3.470   0.583   7.857  0.0904 -0.6396  0.3903
   93SAPS  H13R 9139   3.494   0.476   7.839  1.4817 -0.1024 -1.2469
   93SAPS  H13S 9140   3.363   0.590   7.884 -0.6445 -2.6080 -1.6732
   93SAPS  C214 9141   3.563   0.649   7.955  0.1796 -0.9559  0.1216
   93SAPS  H14R 9142   3.636   0.715   7.907 -0.4220 -0.7368 -0.4940
   93SAPS  C215 9143   3.566   0.640   8.090 -0.0619 -0.2224  0.1346
   93SAPS  H15R 9144   3.647   0.689   8.145 -0.6563  0.1699  0.6667
   93SAPS  C216 9145   3.472   0.549   8.173 -0.3262 -0.0886 -0.0872
   93SAPS  H16R 9146   3.541   0.474   8.219  1.8314  0.0721 -2.8376
   93SAPS  H16S 9147   3.407   0.489   8.105 -0.9665 -0.6628  0.9977
   93SAPS  C217 9148   3.394   0.627   8.273  0.4420  0.7439 -0.0115
   93SAPS  H17R 9149   3.359   0.727   8.239  0.8303  1.1556  0.7769
   93SAPS  H17S 9150   3.472   0.634   8.352  0.3783  0.7121  0.0542
   93SAPS  C218 9151   3.274   0.546   8.333  0.5025 -0.4104 -0.4055
   93SAPS  H18R 9152   3.277   0.436   8.320  0.8228 -0.6047  1.1554
   93SAPS  H18S 9153   3.185   0.591   8.284  1.3188  0.4110 -1.1811
   93SAPS  C219 9154   3.263   0.569   8.483  0.1451  0.8458  0.3007
   93SAPS  H19R 9155   3.243   0.677   8.500 -0.5494  0.9245 -0.8994
   93SAPS  H19S 9156   3.348   0.521   8.537 -1.6588 -0.0606  2.4966
   93SAPS  C220 9157   3.133   0.500   8.527 -0.0725  0.9952  0.2252
   93SAPS  H20R 9158   3.042   0.541   8.479 -0.4705 -0.6347 -0.4717
   93SAPS  H20S 9159   3.122   0.511   8.637 -1.4391  0.0129  0.2047
   93SAPS  H20T 9160   3.132   0.390   8.509  1.1419  0.8831  0.7053
   93SAPS   C33 9161   3.613   1.068   7.083  0.1931  0.3407  0.1167
   93SAPS   H3X 9162   3.645   0.962   7.094 -0.7385 -0.3375 -2.9693
   93SAPS   H3Y 9163   3.506   1.071   7.056  0.0738  2.0171  0.6360
   93SAPS   C34 9164   3.626   1.119   7.226  0.2646  0.5083 -0.4747
   93SAPS   H4X 9165   3.566   1.212   7.239 -0.9105 -0.4435  1.5023
   93SAPS   H4Y 9166   3.732   1.150   7.243  0.0975  2.2029 -2.1421
   93SAPS   C35 9167   3.588   1.020   7.334  0.6370  0.0411 -0.0693
   93SAPS   H5X 9168   3.512   0.948   7.298  2.2821 -0.7791 -2.1083
   93SAPS   H5Y 9169   3.559   1.068   7.430 -0.5992 -0.3787 -0.2134
   93SAPS   C36 9170   3.708   0.931   7.387  0.1603  0.0345 -0.2109
   93SAPS   H6X 9171   3.763   0.893   7.297  3.3288  0.7554  1.2792
   93SAPS   H6Y 9172   3.661   0.847   7.442  2.3409 -0.3037  1.2706
   93SAPS   C37 9173   3.798   1.014   7.480 -0.3516 -0.0413 -0.5083
   93SAPS   H7X 9174   3.838   1.101   7.422  1.8235 -1.1162 -0.7056
   93SAPS   H7Y 9175   3.886   0.953   7.509  0.2362  0.6801 -0.7337
   93SAPS   C38 9176   3.737   1.067   7.617  0.5096 -0.4380 -0.3034
   93SAPS   H8X 9177   3.651   1.003   7.646  0.1093  0.8776  1.5864
   93SAPS   H8Y 9178   3.696   1.166   7.589  1.2802 -0.0237 -0.0088
   93SAPS   C39 9179   3.833   1.088   7.737 -0.1097 -0.9078 -0.2986
   93SAPS   H9X 9180   3.777   1.125   7.826  1.3811  0.2552  0.2037
   93SAPS   H9Y 9181   3.898   1.174   7.708 -3.0809  1.5922 -0.0775
   93SAPS  C310 9182   3.915   0.969   7.784 -0.3139  0.3763 -0.0076
   93SAPS  H10X 9183   3.995   0.944   7.711  0.6156 -0.6038  1.2805
   93SAPS  H10Y 9184   3.852   0.878   7.793  0.2496  0.1383  1.9769
   93SAPS  C311 9185   3.993   0.974   7.923 -0.8902  0.2110 -0.1910
   93SAPS  H11X 9186   4.074   1.049   7.904  0.2315 -0.8356  0.3557
   93SAPS  H11Y 9187   4.038   0.877   7.951  1.5355  0.6955 -1.9893
   93SAPS  C312 9188   3.898   1.005   8.036 -0.2950 -0.2449  0.0331
   93SAPS  H12X 9189   3.815   0.931   8.039 -1.2019  0.7139 -0.7187
   93SAPS  H12Y 9190   3.861   1.108   8.020  2.0896  1.1654  2.5949
   93SAPS  C313 9191   3.973   1.018   8.173 -0.4681  0.2208  0.4337
   93SAPS  H13X 9192   3.948   1.111   8.228 -0.3148  0.3382  0.3057
   93SAPS  H13Y 9193   4.083   1.024   8.160 -0.3699  0.6702  1.4089
   93SAPS  C314 9194   3.945   0.897   8.265  0.0808  0.2170 -0.4833
   93SAPS  H14X 9195   4.039   0.850   8.299  0.4890  1.4429  0.1149
   93SAPS  H14Y 9196   3.886   0.819   8.211 -0.4887 -0.0881  0.5451
   93SAPS  C315 9197   3.865   0.922   8.401 -0.0910  0.1819 -0.3818
   93SAPS  H15X 9198   3.818   0.829   8.440  3.1384 -1.0849  0.9134
   93SAPS  H15Y 9199   3.783   0.995   8.382 -1.1208 -0.9375 -0.3476
   93SAPS  C316 9200   3.960   0.975   8.506 -0.5065  0.1855 -0.1511
   93SAPS  H16X 9201   4.027   1.058   8.473  0.6718 -0.6985 -0.0611
   93SAPS  H16Y 9202   4.025   0.888   8.530 -0.5057  0.2369  0.0338
   93SAPS  C317 9203   3.882   1.012   8.638 -0.9387  0.0517 -0.9885
   93SAPS  H17X 9204   3.832   0.921   8.678 -1.8419  0.9297 -0.0573
   93SAPS  H17Y 9205   3.800   1.085   8.620  0.0942  1.0328 -1.8902
   93SAPS  C318 9206   3.989   1.062   8.740  0.0777  0.1260  0.3921
   93SAPS  H18X 9207   4.037   1.150   8.692 -1.4979  0.5981 -0.3767
   93SAPS  H18Y 9208   4.068   0.985   8.758  2.3971  1.4884 -2.8874
   93SAPS  H18Z 9209   3.940   1.085   8.837  0.5107  2.4735  0.1079
   94SAPS     N 9210   2.718   3.012   6.037  0.4724 -1.0449  0.5463
   94SAPS   HN1 9211   2.667   3.063   6.112  1.5299  1.7511 -0.5027
   94SAPS   HN2 9212   2.795   3.073   6.002  0.2732 -0.6718  0.7410
   94SAPS   HN3 9213   2.645   3.012   5.963 -0.4193  0.2726  1.3765
   94SAPS   C12 9214   2.778   2.887   6.086  0.2401 -0.1337  0.7773
   94SAPS  H12A 9215   2.700   2.817   6.110 -0.5217  1.0058  1.7398
   94SAPS   C13 9216   2.868   2.835   5.970 -0.2148 -0.1170  0.2309
   94SAPS  O13A 9217   2.871   2.892   5.859  0.2833 -0.0934  0.0932
   94SAPS  O13B 9218   2.917   2.719   5.981  0.7735  0.3260  0.2348
   94SAPS   C11 9219   2.853   2.907   6.216  0.0082 -0.4794 -0.4657
   94SAPS  H11A 9220   2.916   2.817   6.232  0.1018 -0.4050 -0.4131
   94SAPS  H11B 9221   2.776   2.923   6.294 -0.9319  2.5188 -1.8625
   94SAPS     P 9222   3.040   3.038   6.330  0.6025  0.0351  0.2763
   94SAPS   O13 9223   3.106   2.908   6.344 -0.3041  0.0827 -0.2652
   94SAPS   O14 9224   3.130   3.149   6.294 -0.1254 -0.7200 -0.3712
   94SAPS   O12 9225   2.939   3.024   6.204  0.6300 -0.1873  0.3243
   94SAPS   O11 9226   2.944   3.064   6.456 -0.6300 -0.0282  0.6504
   94SAPS    C1 9227   2.910   3.201   6.473  0.2356  0.0011 -0.1911
   94SAPS    HA 9228   2.911   3.261   6.379 -0.2853 -0.6477 -0.6172
   94SAPS    HB 9229   2.804   3.203   6.508 -0.1272  1.8764 -1.2595
   94SAPS    C2 9230   2.984   3.257   6.595  0.2953 -1.3104  0.2186
   94SAPS    HS 9231   2.949   3.351   6.642 -2.0462 -1.4729 -1.0776
   94SAPS   O21 9232   3.123   3.269   6.557 -0.0070 -0.1253 -0.5581
   94SAPS   C21 9233   3.156   3.382   6.493  0.6636  0.2084  0.1830
   94SAPS   O22 9234   3.074   3.451   6.433  0.2480  0.0938  0.2505
   94SAPS   C22 9235   3.299   3.423   6.547  0.4918  0.1047  0.9007
   94SAPS   H2R 9236   3.372   3.375   6.478  1.0503  1.0767  0.7969
   94SAPS   H2S 9237   3.308   3.532   6.528  0.0235 -0.2469 -1.6415
   94SAPS    C3 9238   2.996   3.153   6.710  0.2049  0.3530  1.1713
   94SAPS    HX 9239   3.049   3.060   6.678 -0.8786  0.2100 -0.2985
   94SAPS    HY 9240   2.894   3.110   6.716 -0.0387  0.3939 -1.4684
   94SAPS   O31 9241   3.045   3.212   6.829  0.2290 -0.2882 -0.2160
   94SAPS   C31 9242   3.092   3.127   6.919  0.0272 -0.3123 -0.5967
   94SAPS   O32 9243   3.080   3.008   6.919  0.9608  0.4661 -0.4164
   94SAPS   C32 9244   3.161   3.202   7.033 -0.5470  0.9164 -0.4403
   94SAPS   H2X 9245   3.089   3.271   7.082 -2.0122 -1.8299  1.5374
   94SAPS   H2Y 9246   3.248   3.263   7.000  0.9731 -0.5814  0.6080
   94SAPS   C23 9247   3.328   3.377   6.695  0.6000  0.4417  0.5420
   94SAPS   H3R 9248   3.317   3.268   6.714  0.7244  0.4704  0.7714
   94SAPS   H3S 9249   3.254   3.433   6.756 -1.0601 -0.7713 -0.2498
   94SAPS   C24 9250   3.470   3.418   6.749  0.1074  0.1343 -0.8547
   94SAPS   H4R 9251   3.544   3.348   6.704 -1.6610 -1.7395 -1.0118
   94SAPS   H4S 9252   3.457   3.401   6.858 -2.1036 -0.2165 -1.1279
   94SAPS   C25 9253   3.499   3.566   6.721 -0.8675  0.2721 -0.2329
   94SAPS   H5R 9254   3.557   3.589   6.629 -1.1960 -2.3439 -1.1689
   94SAPS   C26 9255   3.485   3.669   6.807  0.5945  0.6774 -0.1613
   94SAPS   H6R 9256   3.506   3.770   6.771  3.3453 -0.2029 -1.3629
   94SAPS   C27 9257   3.444   3.664   6.953 -0.0139 -0.3765 -0.4268
   94SAPS   H7R 9258   3.446   3.564   7.000 -0.3928 -0.7669 -1.2256
   94SAPS   H7S 9259   3.335   3.688   6.952  0.2565  0.9508 -0.4172
   94SAPS   C28 9260   3.527   3.771   7.022  0.5484  0.7129  0.4520
   94SAPS   H8R 9261   3.632   3.746   7.041  0.5411 -0.1284 -0.5145
   94SAPS   C29 9262   3.485   3.891   7.062  0.0034 -0.3844  0.6049
   94SAPS   H9R 9263   3.567   3.946   7.111  0.1685 -2.0854  2.3874
   94SAPS  C210 9264   3.348   3.951   7.060  0.5534  0.2522  0.1208
   94SAPS  H10R 9265   3.269   3.878   7.088 -0.3213  1.2301  0.2278
   94SAPS  H10S 9266   3.330   3.979   6.955  3.6207 -0.3215 -0.6510
   94SAPS  C211 9267   3.333   4.087   7.134  0.7207  0.8108 -0.8864
   94SAPS  H11R 9268   3.294   4.163   7.065 -0.2650  0.9177 -0.2213
   94SAPS  C212 9269   3.349   4.120   7.263  0.3326 -0.1105 -0.2146
   94SAPS  H12R 9270   3.318   4.220   7.298  0.4829 -0.3437  0.6171
   94SAPS  C213 9271   3.378   4.028   7.376  0.1038 -0.0177  0.4467
   94SAPS  H13R 9272   3.378   3.921   7.350  2.2185  0.3101 -1.2073
   94SAPS  H13S 9273   3.286   4.031   7.438 -0.3228  0.4564 -0.1972
   94SAPS  C214 9274   3.504   4.063   7.459  0.2121  0.4424  0.4787
   94SAPS  H14R 9275   3.584   4.081   7.386  0.4426 -2.2052 -0.0406
   94SAPS  C215 9276   3.516   4.068   7.590  0.5231  0.3818  0.1221
   94SAPS  H15R 9277   3.618   4.083   7.629  0.3900 -1.0229  1.0993
   94SAPS  C216 9278   3.400   4.043   7.691  0.0689 -0.0304 -0.3251
   94SAPS  H16R 9279   3.428   3.949   7.743  0.0994  0.2044  0.0881
   94SAPS  H16S 9280   3.301   4.018   7.647  0.3675  0.2119 -1.1621
   94SAPS  C217 9281   3.374   4.147   7.804 -0.3600 -0.1832 -0.9421
   94SAPS  H17R 9282   3.363   4.249   7.761  2.4791  1.2114  1.3070
   94SAPS  H17S 9283   3.462   4.155   7.871 -1.1187 -0.4158  0.1208
   94SAPS  C218 9284   3.251   4.106   7.884  0.3931  0.6712 -0.3076
   94SAPS  H18R 9285   3.266   4.019   7.951 -1.3521  0.6560  0.1151
   94SAPS  H18S 9286   3.178   4.079   7.804 -0.8454  0.8577  0.7233
   94SAPS  C219 9287   3.201   4.227   7.960  1.6318  0.5755 -0.1849
   94SAPS  H19R 9288   3.100   4.195   7.991  1.7861 -2.1264 -2.1539
   94SAPS  H19S 9289   3.184   4.315   7.893  1.1635  0.8615  0.3034
   94SAPS  C220 9290   3.276   4.273   8.088 -0.3677 -0.0137 -0.5222
   94SAPS  H20R 9291   3.368   4.325   8.053  1.9585 -1.7419  2.5348
   94SAPS  H20S 9292   3.298   4.179   8.143 -1.8716  0.2129  0.5106
   94SAPS  H20T 9293   3.223   4.347   8.151 -0.0895 -0.7726  0.6388
   94SAPS   C33 9294   3.224   3.110   7.145 -0.8238  0.3324  0.0559
   94SAPS   H3X 9295   3.314   3.052   7.115  0.7423  1.2467  2.7057
   94SAPS   H3Y 9296   3.146   3.041   7.183  0.4683 -1.3553 -0.2576
   94SAPS   C34 9297   3.261   3.198   7.270  0.0467 -0.2706 -0.1504
   94SAPS   H4X 9298   3.167   3.244   7.309  0.1727  0.4726 -0.6878
   94SAPS   H4Y 9299   3.334   3.277   7.242 -2.2466  1.7053 -0.9042
   94SAPS   C35 9300   3.322   3.111   7.386  0.2719 -0.2968 -0.1197
   94SAPS   H5X 9301   3.420   3.067   7.359  0.3111 -0.9047  0.9192
   94SAPS   H5Y 9302   3.245   3.031   7.402  1.5627 -1.0969  3.0506
   94SAPS   C36 9303   3.328   3.195   7.511 -0.2430 -0.6062 -0.3812
   94SAPS   H6X 9304   3.227   3.226   7.543 -0.3719 -0.2238 -1.1379
   94SAPS   H6Y 9305   3.398   3.279   7.494 -1.8993  0.8208 -0.3955
   94SAPS   C37 9306   3.397   3.119   7.631 -0.2875 -0.0166 -0.9343
   94SAPS   H7X 9307   3.495   3.081   7.594 -1.1271 -2.0171 -1.2642
   94SAPS   H7Y 9308   3.334   3.028   7.641  0.7431 -1.0277 -3.1150
   94SAPS   C38 9309   3.408   3.210   7.753  0.1932 -0.0689 -0.4284
   94SAPS   H8X 9310   3.304   3.241   7.778 -0.7146 -3.2290  0.1701
   94SAPS   H8Y 9311   3.467   3.301   7.731  0.0955  0.1255  0.1013
   94SAPS   C39 9312   3.467   3.124   7.872 -0.0935  0.1983 -0.3753
   94SAPS   H9X 9313   3.574   3.109   7.846  0.0582 -1.0107  0.8169
   94SAPS   H9Y 9314   3.418   3.025   7.878 -0.5446  0.3917 -0.8106
   94SAPS  C310 9315   3.451   3.195   8.008  0.0967 -0.2746 -0.1153
   94SAPS  H10X 9316   3.348   3.172   8.045  0.1944 -0.4525  0.0476
   94SAPS  H10Y 9317   3.462   3.304   7.991 -2.1051 -0.1136 -0.8325
   94SAPS  C311 9318   3.553   3.152   8.122 -0.0384 -0.3533  0.7503
   94SAPS  H11X 9319   3.650   3.171   8.072 -0.0147  3.7377  2.0224
   94SAPS  H11Y 9320   3.536   3.044   8.144 -4.3656  0.0924  0.5116
   94SAPS  C312 9321   3.543   3.240   8.248  0.2842 -0.1198  0.1695
   94SAPS  H12X 9322   3.445   3.221   8.297 -0.5699  0.6451 -1.1750
   94SAPS  H12Y 9323   3.545   3.348   8.221 -1.0495 -0.1973 -0.3482
   94SAPS  C313 9324   3.669   3.226   8.341  0.2869 -0.2306 -0.2592
   94SAPS  H13X 9325   3.761   3.258   8.287  1.1118  1.1483  1.8314
   94SAPS  H13Y 9326   3.674   3.120   8.374 -1.3606 -0.2009  0.1526
   94SAPS  C314 9327   3.643   3.308   8.467  0.0192  0.6950  0.4373
   94SAPS  H14X 9328   3.542   3.285   8.506  0.0230  0.8515  0.5412
   94SAPS  H14Y 9329   3.654   3.414   8.435  0.5996  0.6205  0.3783
   94SAPS  C315 9330   3.735   3.275   8.585 -0.0277 -0.8273  0.1018
   94SAPS  H15X 9331   3.832   3.328   8.582  0.1899 -1.2418 -0.2603
   94SAPS  H15Y 9332   3.743   3.164   8.589  1.3931 -0.7323  0.2878
   94SAPS  C316 9333   3.662   3.310   8.721 -0.0175 -0.0592 -0.1082
   94SAPS  H16X 9334   3.554   3.289   8.706  0.4178 -1.4345 -1.6439
   94SAPS  H16Y 9335   3.667   3.408   8.773 -2.2620 -1.3633  2.8751
   94SAPS  C317 9336   3.713   3.210   8.826 -0.1354 -0.2765  0.4240
   94SAPS  H17X 9337   3.824   3.214   8.833 -0.1565  1.5681  0.1781
   94SAPS  H17Y 9338   3.700   3.102   8.804  2.5091 -0.6476  0.3814
   94SAPS  C318 9339   3.638   3.220   8.957 -1.1503 -0.2506  0.4173
   94SAPS  H18X 9340   3.659   3.137   9.028  3.7809 -1.8059 -2.3599
   94SAPS  H18Y 9341   3.528   3.220   8.951 -1.2982 -1.1216  2.3930
   94SAPS  H18Z 9342   3.663   3.314   9.009 -2.2792  0.1586  0.2418
   95SAPS     N 9343   0.024   0.593   6.297 -0.3529  0.3082  0.2702
   95SAPS   HN1 9344   0.117   0.626   6.329 -1.6266  4.0437  0.5818
   95SAPS   HN2 9345  -0.044   0.610   6.374  0.8277  2.8648  0.8401
   95SAPS   HN3 9346   0.019   0.490   6.285 -1.4349  0.1350  1.8915
   95SAPS   C12 9347  -0.001   0.677   6.173 -0.7035 -0.2668 -0.2987
   95SAPS  H12A 9348   0.023   0.780   6.197 -0.8770 -0.2138 -0.3534
   95SAPS   C13 9349   0.085   0.642   6.051 -0.8255  0.4720  0.0481
   95SAPS  O13A 9350   0.171   0.552   6.052  0.3123  0.2533  0.4553
   95SAPS  O13B 9351   0.071   0.717   5.953 -0.2434  0.0373  0.3633
   95SAPS   C11 9352  -0.147   0.645   6.131 -0.4822 -0.4200  1.1744
   95SAPS  H11A 9353  -0.163   0.544   6.089  1.2170 -0.6766  1.0706
   95SAPS  H11B 9354  -0.174   0.698   6.037  3.7250  0.1058  0.0775
   95SAPS     P 9355  -0.312   0.812   6.245 -0.0129  0.0062  0.3853
   95SAPS   O13 9356  -0.257   0.900   6.144  0.4350 -0.1339  0.2814
   95SAPS   O14 9357  -0.459   0.792   6.248 -0.6336 -0.9484 -0.3494
   95SAPS   O12 9358  -0.242   0.669   6.239  0.0741 -0.1737  0.1517
   95SAPS   O11 9359  -0.262   0.867   6.388 -0.5890  0.1820 -0.0559
   95SAPS    C1 9360  -0.279   0.786   6.506  0.2004 -0.1098  0.8235
   95SAPS    HA 9361  -0.370   0.722   6.501  0.8927 -1.0366 -1.3590
   95SAPS    HB 9362  -0.188   0.723   6.513  0.0371 -0.5769 -0.8614
   95SAPS    C2 9363  -0.281   0.872   6.631 -0.2843 -0.0169  0.0254
   95SAPS    HS 9364  -0.302   0.804   6.717 -1.4033 -0.0422 -0.2464
   95SAPS   O21 9365  -0.381   0.979   6.616 -0.5940  0.2077  0.1202
   95SAPS   C21 9366  -0.497   0.949   6.662  0.7296 -0.2669  0.4959
   95SAPS   O22 9367  -0.533   0.836   6.697 -0.5609 -0.3969 -0.2603
   95SAPS   C22 9368  -0.586   1.077   6.674  0.7248 -0.4064  0.7095
   95SAPS   H2R 9369  -0.553   1.145   6.593 -2.0467 -1.2408 -1.3072
   95SAPS   H2S 9370  -0.691   1.051   6.648 -0.5192  2.6955  2.2334
   95SAPS    C3 9371  -0.154   0.943   6.652 -0.1145 -0.1523  0.5978
   95SAPS    HX 9372  -0.146   1.015   6.567  1.8817 -0.1688  0.7419
   95SAPS    HY 9373  -0.083   0.859   6.663 -2.3126 -1.8679  2.9859
   95SAPS   O31 9374  -0.164   1.010   6.776 -0.5357 -0.0107 -0.2887
   95SAPS   C31 9375  -0.092   1.117   6.792  0.6887 -0.6988  1.0487
   95SAPS   O32 9376  -0.034   1.181   6.705 -0.2145  0.4585  0.0774
   95SAPS   C32 9377  -0.072   1.149   6.939 -0.0817 -0.2285 -0.1950
   95SAPS   H2X 9378  -0.079   1.260   6.940 -2.5892 -0.3368  0.6181
   95SAPS   H2Y 9379   0.034   1.125   6.965  0.2804  1.3181 -0.1182
   95SAPS   C23 9380  -0.584   1.143   6.808  0.1128 -1.2834  0.6226
   95SAPS   H3R 9381  -0.480   1.180   6.817  0.2839 -1.4069 -0.6332
   95SAPS   H3S 9382  -0.596   1.058   6.877  0.2772 -1.9677 -0.1772
   95SAPS   C24 9383  -0.673   1.264   6.832  0.7412  0.4099 -0.6738
   95SAPS   H4R 9384  -0.643   1.338   6.755  1.5825 -0.5519 -1.2878
   95SAPS   H4S 9385  -0.661   1.313   6.931 -0.7666 -0.5166  0.0048
   95SAPS   C25 9386  -0.819   1.224   6.809  0.7148 -0.2782 -0.1857
   95SAPS   H5R 9387  -0.848   1.227   6.703  0.7125 -2.3271 -0.2824
   95SAPS   C26 9388  -0.914   1.202   6.903 -0.1997 -0.1348  0.2830
   95SAPS   H6R 9389  -1.016   1.179   6.869  0.1060  0.0676 -0.7966
   95SAPS   C27 9390  -0.890   1.204   7.054  0.1740  0.2620  0.4389
   95SAPS   H7R 9391  -0.977   1.213   7.124 -0.0612  0.5470  0.1099
   95SAPS   H7S 9392  -0.834   1.293   7.091 -2.6269  2.0037  0.8183
   95SAPS   C28 9393  -0.815   1.083   7.098  0.0397  0.2306 -0.7690
   95SAPS   H8R 9394  -0.824   0.988   7.043  0.5647 -0.7701  0.8089
   95SAPS   C29 9395  -0.750   1.063   7.212  0.2557 -0.3083 -0.1083
   95SAPS   H9R 9396  -0.696   0.968   7.223 -0.3976 -0.6451  0.3070
   95SAPS  C210 9397  -0.732   1.160   7.328  0.0698  0.2618 -0.3381
   95SAPS  H10R 9398  -0.825   1.144   7.388  0.4258  0.3046  0.2377
   95SAPS  H10S 9399  -0.739   1.263   7.290  1.1330 -0.8562 -3.9022
   95SAPS  C211 9400  -0.611   1.155   7.420 -0.8073  0.1300  0.1845
   95SAPS  H11R 9401  -0.516   1.146   7.365 -1.5585 -0.2574 -1.1149
   95SAPS  C212 9402  -0.611   1.165   7.550 -0.0434  0.1747 -0.3203
   95SAPS  H12R 9403  -0.508   1.165   7.591 -0.8109  0.8634  1.7384
   95SAPS  C213 9404  -0.717   1.185   7.660  0.6515 -0.2238  0.2079
   95SAPS  H13R 9405  -0.809   1.230   7.616  0.1725 -0.4758  0.9385
   95SAPS  H13S 9406  -0.674   1.257   7.732 -0.4865 -0.4823  1.1754
   95SAPS  C214 9407  -0.759   1.064   7.735 -0.2326 -0.5217 -0.9314
   95SAPS  H14R 9408  -0.795   0.980   7.673  1.5104 -0.4718 -2.0777
   95SAPS  C215 9409  -0.759   1.054   7.869 -0.6523 -0.4490 -0.1588
   95SAPS  H15R 9410  -0.793   0.958   7.912  0.4966  0.9141  4.2852
   95SAPS  C216 9411  -0.719   1.150   7.974 -0.0968 -0.3628  0.1553
   95SAPS  H16R 9412  -0.806   1.162   8.042 -0.8507  0.8556 -0.9914
   95SAPS  H16S 9413  -0.702   1.247   7.922 -0.9288 -0.8269 -1.0110
   95SAPS  C217 9414  -0.607   1.108   8.076  0.3585 -0.6575 -0.1780
   95SAPS  H17R 9415  -0.532   1.189   8.059  0.8983 -1.2376 -0.6087
   95SAPS  H17S 9416  -0.563   1.013   8.041  0.9661 -0.0926 -0.9869
   95SAPS  C218 9417  -0.645   1.077   8.217  0.9062  0.0712 -0.8083
   95SAPS  H18R 9418  -0.702   1.154   8.274 -0.8531 -1.1830 -0.7993
   95SAPS  H18S 9419  -0.551   1.060   8.274  1.0386  1.4568 -0.5924
   95SAPS  C219 9420  -0.721   0.946   8.225 -0.1695 -0.2242  0.0838
   95SAPS  H19R 9421  -0.669   0.857   8.183 -0.0759 -0.1568  0.0579
   95SAPS  H19S 9422  -0.806   0.952   8.154  0.3292 -1.1518 -0.6119
   95SAPS  C220 9423  -0.776   0.929   8.364  0.0920  0.5234 -0.5534
   95SAPS  H20R 9424  -0.805   0.827   8.396  1.5423  0.6048  1.1913
   95SAPS  H20S 9425  -0.864   0.996   8.381  0.6576  0.8825  1.2481
   95SAPS  H20T 9426  -0.701   0.958   8.441  0.4693  4.1381 -2.0839
   95SAPS   C33 9427  -0.169   1.071   7.031  0.7741 -0.3141  0.0096
   95SAPS   H3X 9428  -0.157   0.962   7.013  2.7135 -0.3798  1.4219
   95SAPS   H3Y 9429  -0.274   1.105   7.015  1.3140  1.6407  0.3710
   95SAPS   C34 9430  -0.137   1.091   7.176 -0.1415 -0.1682 -0.0193
   95SAPS   H4X 9431  -0.143   1.196   7.210  2.0084 -0.3362  0.9935
   95SAPS   H4Y 9432  -0.027   1.077   7.183  0.1927  1.8332 -0.5826
   95SAPS   C35 9433  -0.219   0.996   7.264  0.7924 -0.0065  0.2396
   95SAPS   H5X 9434  -0.229   0.896   7.217  1.8868  0.3099 -0.7378
   95SAPS   H5Y 9435  -0.323   1.031   7.279  1.5626  1.6495  2.1883
   95SAPS   C36 9436  -0.156   0.983   7.406 -0.1755 -0.0625 -0.2885
   95SAPS   H6X 9437  -0.184   1.074   7.463 -3.1043  0.6157 -2.5787
   95SAPS   H6Y 9438  -0.046   0.973   7.404  0.0930  1.9711  1.4268
   95SAPS   C37 9439  -0.214   0.858   7.474  0.0559  0.4715  0.3911
   95SAPS   H7X 9440  -0.190   0.775   7.405 -1.1055  2.0897 -2.0844
   95SAPS   H7Y 9441  -0.323   0.876   7.489  0.0560  0.3031  0.6055
   95SAPS   C38 9442  -0.148   0.824   7.607  0.6343  0.3105 -0.1352
   95SAPS   H8X 9443  -0.046   0.786   7.581 -0.4841 -1.9611 -1.5790
   95SAPS   H8Y 9444  -0.204   0.745   7.661  1.1777  1.7144  2.6223
   95SAPS   C39 9445  -0.134   0.936   7.710  0.4891  0.2618  0.0943
   95SAPS   H9X 9446  -0.091   1.025   7.660  2.3173 -2.4836 -3.6982
   95SAPS   H9Y 9447  -0.067   0.896   7.790 -0.7583 -0.5565  0.7550
   95SAPS  C310 9448  -0.274   0.966   7.768 -0.0735 -0.3554 -1.0328
   95SAPS  H10X 9449  -0.349   0.948   7.688 -1.3806  0.2511  0.0272
   95SAPS  H10Y 9450  -0.281   1.065   7.818 -1.7183 -0.0728 -1.7561
   95SAPS  C311 9451  -0.323   0.863   7.872 -0.6506 -0.5730 -0.1820
   95SAPS  H11X 9452  -0.315   0.762   7.827 -0.0191 -0.7769  0.3773
   95SAPS  H11Y 9453  -0.430   0.888   7.885 -0.2010  0.4528  1.9869
   95SAPS  C312 9454  -0.260   0.881   8.011  0.7579  0.0235 -0.3411
   95SAPS  H12X 9455  -0.298   0.984   8.024 -1.8125 -0.6232 -2.0277
   95SAPS  H12Y 9456  -0.149   0.883   8.005  0.6799  1.0317 -1.7380
   95SAPS  C313 9457  -0.318   0.793   8.119 -0.7548  0.0715  0.0402
   95SAPS  H13X 9458  -0.314   0.685   8.093 -1.1257  0.3331 -1.1544
   95SAPS  H13Y 9459  -0.425   0.819   8.122 -0.6684  0.4000  0.2634
   95SAPS  C314 9460  -0.244   0.805   8.259  0.2209  0.2823 -0.0865
   95SAPS  H14X 9461  -0.158   0.875   8.252 -0.5955  1.2500 -0.7788
   95SAPS  H14Y 9462  -0.200   0.705   8.282  0.6241  0.6233  0.6474
   95SAPS  C315 9463  -0.336   0.838   8.376 -0.0549 -0.0227  0.7654
   95SAPS  H15X 9464  -0.386   0.935   8.360 -1.2383 -0.1422  3.3050
   95SAPS  H15Y 9465  -0.288   0.850   8.475 -2.3437  2.6082  1.6725
   95SAPS  C316 9466  -0.440   0.730   8.399  0.4805 -0.0159  0.5484
   95SAPS  H16X 9467  -0.505   0.738   8.310 -1.7812 -1.0415  1.9933
   95SAPS  H16Y 9468  -0.510   0.760   8.480  1.0809 -0.1201  1.1231
   95SAPS  C317 9469  -0.398   0.579   8.443 -0.1656  0.3617 -0.1000
   95SAPS  H17X 9470  -0.330   0.536   8.367  0.3525  1.4861 -0.2946
   95SAPS  H17Y 9471  -0.493   0.520   8.450  0.9800 -1.4826  0.7817
   95SAPS  C318 9472  -0.324   0.559   8.584 -0.3768  0.3283 -0.2429
   95SAPS  H18X 9473  -0.270   0.462   8.589 -0.8366  0.0891  0.1432
   95SAPS  H18Y 9474  -0.386   0.571   8.676  2.3392 -3.2135  2.3477
   95SAPS  H18Z 9475  -0.243   0.634   8.590  2.2118 -2.3064 -0.4061
   96SAPS     N 9476   5.284   3.370   6.371 -0.6581 -0.1715 -0.3997
   96SAPS   HN1 9477   5.231   3.361   6.461  1.5319  0.8527  1.0893
   96SAPS   HN2 9478   5.382   3.375   6.408 -0.8634 -0.7814  0.2513
   96SAPS   HN3 9479   5.253   3.458   6.327 -0.7587 -0.8111 -1.6446
   96SAPS   C12 9480   5.273   3.246   6.283 -0.1030 -1.0455  0.1491
   96SAPS  H12A 9481   5.184   3.273   6.229  0.5887 -0.6934 -0.8304
   96SAPS   C13 9482   5.381   3.240   6.169 -0.1941  0.6233 -0.3640
   96SAPS  O13A 9483   5.465   3.330   6.144  0.0327 -0.0807 -0.3960
   96SAPS  O13B 9484   5.371   3.147   6.088 -0.2399  0.3125  0.1807
   96SAPS   C11 9485   5.263   3.122   6.370 -0.4938 -0.0642  0.2540
   96SAPS  H11A 9486   5.225   3.044   6.300 -2.0328  1.1810 -0.3835
   96SAPS  H11B 9487   5.179   3.127   6.443 -0.8406  1.7460 -0.2141
   96SAPS     P 9488   5.442   3.122   6.577 -0.4672  0.1743 -0.5192
   96SAPS   O13 9489   5.563   3.042   6.599  0.1389  0.0521 -0.5161
   96SAPS   O14 9490   5.454   3.263   6.590 -0.1919 -0.0568  0.2475
   96SAPS   O12 9491   5.390   3.090   6.429  0.0357 -0.1222 -0.4928
   96SAPS   O11 9492   5.329   3.062   6.672 -1.2109 -0.1322 -0.5266
   96SAPS    C1 9493   5.218   3.148   6.717  0.1045  0.3268  0.0713
   96SAPS    HA 9494   5.184   3.220   6.640 -1.2810  1.5145  1.7149
   96SAPS    HB 9495   5.134   3.077   6.731  1.6882 -1.5442  0.7491
   96SAPS    C2 9496   5.247   3.219   6.850  0.0185  0.3040 -0.7267
   96SAPS    HS 9497   5.325   3.297   6.834  1.8216 -1.0411  0.9661
   96SAPS   O21 9498   5.281   3.124   6.957  0.3294 -0.3555 -0.5352
   96SAPS   C21 9499   5.415   3.097   6.950 -0.4016 -0.0962  0.3287
   96SAPS   O22 9500   5.501   3.166   6.893 -0.5096  0.5710  0.0013
   96SAPS   C22 9501   5.437   2.975   7.044 -0.7856 -1.6772 -0.2642
   96SAPS   H2R 9502   5.402   3.005   7.145  3.1420 -1.3560  1.1868
   96SAPS   H2S 9503   5.372   2.892   7.008 -0.3413 -2.1240 -0.0515
   96SAPS    C3 9504   5.115   3.284   6.890  0.1038 -0.9163  0.1474
   96SAPS    HX 9505   5.042   3.211   6.931 -2.7949  2.0263  0.6369
   96SAPS    HY 9506   5.076   3.329   6.797  1.0147  1.8518  1.0165
   96SAPS   O31 9507   5.128   3.379   6.998 -0.7858 -0.6725 -0.1744
   96SAPS   C31 9508   5.170   3.499   6.959 -0.1159  0.0335 -0.6453
   96SAPS   O32 9509   5.189   3.537   6.844 -0.4532  0.3640 -0.8082
   96SAPS   C32 9510   5.210   3.591   7.078  0.9076  0.2243  0.4802
   96SAPS   H2X 9511   5.162   3.688   7.053  1.1267 -0.0483 -1.1141
   96SAPS   H2Y 9512   5.318   3.619   7.080  1.3031 -1.1553  0.1707
   96SAPS   C23 9513   5.585   2.941   7.066 -0.1560  0.5993  0.2404
   96SAPS   H3R 9514   5.644   2.964   6.974 -1.6579 -0.6514 -1.0916
   96SAPS   H3S 9515   5.599   2.833   7.085 -0.8253  0.6515  1.0819
   96SAPS   C24 9516   5.654   3.004   7.188 -0.7487  0.2915 -0.9172
   96SAPS   H4R 9517   5.579   3.005   7.271  0.2005 -0.6765 -0.0131
   96SAPS   H4S 9518   5.683   3.107   7.161  2.5660 -0.6678 -1.3812
   96SAPS   C25 9519   5.780   2.931   7.230 -0.3589 -0.1618  0.2368
   96SAPS   H5R 9520   5.869   2.938   7.165 -0.2240 -0.6699  0.3614
   96SAPS   C26 9521   5.797   2.872   7.352 -0.4947 -1.1671  0.2490
   96SAPS   H6R 9522   5.897   2.828   7.360 -0.9509 -1.9668  2.2140
   96SAPS   C27 9523   5.695   2.864   7.466  0.1430 -0.5006 -0.2428
   96SAPS   H7R 9524   5.605   2.802   7.442  0.4417  0.1460 -3.4869
   96SAPS   H7S 9525   5.661   2.969   7.476 -0.6058 -0.8869  1.7189
   96SAPS   C28 9526   5.750   2.826   7.594  0.5234 -0.0080  0.2746
   96SAPS   H8R 9527   5.827   2.747   7.590 -0.7826 -1.3624  0.9491
   96SAPS   C29 9528   5.701   2.879   7.714  0.6276  0.5344  0.3978
   96SAPS   H9R 9529   5.756   2.844   7.803  0.3865 -2.3024 -0.4829
   96SAPS  C210 9530   5.577   2.968   7.724  0.1506 -0.0900  0.3196
   96SAPS  H10R 9531   5.510   2.967   7.636  1.4722 -1.8976 -0.7143
   96SAPS  H10S 9532   5.614   3.073   7.720  2.5214 -0.7731  1.8649
   96SAPS  C211 9533   5.495   2.955   7.849  0.2597  1.3884 -0.6282
   96SAPS  H11R 9534   5.553   2.924   7.937 -0.1819 -1.3684 -1.2020
   96SAPS  C212 9535   5.362   2.949   7.848 -0.2357 -0.1429 -0.2732
   96SAPS  H12R 9536   5.314   2.909   7.938  0.0610 -1.5672 -0.7326
   96SAPS  C213 9537   5.271   2.977   7.728 -0.8147 -0.2008  0.2016
   96SAPS  H13R 9538   5.278   2.901   7.648  3.8106  1.0135 -0.7943
   96SAPS  H13S 9539   5.301   3.073   7.681  0.7877 -0.4815  0.5955
   96SAPS  C214 9540   5.123   2.987   7.746  0.6082 -0.0818 -0.1621
   96SAPS  H14R 9541   5.090   2.888   7.779  1.7483 -0.9555 -1.5681
   96SAPS  C215 9542   5.031   3.085   7.740 -0.8282  0.0445  0.3918
   96SAPS  H15R 9543   4.932   3.067   7.784 -0.1077 -1.8277  1.3646
   96SAPS  C216 9544   5.055   3.234   7.708  0.3994  0.1644 -0.1359
   96SAPS  H16R 9545   5.065   3.257   7.600  1.8714 -2.1305 -0.5492
   96SAPS  H16S 9546   5.156   3.258   7.747  1.4262 -0.8844 -1.9800
   96SAPS  C217 9547   4.937   3.317   7.763  0.1823 -0.5197  0.5114
   96SAPS  H17R 9548   4.949   3.421   7.724 -0.5250 -0.0294  1.5383
   96SAPS  H17S 9549   4.942   3.310   7.874 -1.1929 -1.2075  0.5500
   96SAPS  C218 9550   4.788   3.283   7.727  0.6176  0.1606 -0.7124
   96SAPS  H18R 9551   4.719   3.364   7.758 -0.2318 -1.3642  1.6359
   96SAPS  H18S 9552   4.752   3.191   7.778  0.0239  2.3479  3.1836
   96SAPS  C219 9553   4.780   3.274   7.573 -0.6316 -0.2684 -0.6180
   96SAPS  H19R 9554   4.840   3.190   7.533  0.1425  1.3776 -3.1844
   96SAPS  H19S 9555   4.814   3.376   7.543 -2.8630  1.0429  0.9917
   96SAPS  C220 9556   4.640   3.265   7.513  0.0204 -0.9317  0.6453
   96SAPS  H20R 9557   4.588   3.363   7.523  2.0501  0.1654  0.8577
   96SAPS  H20S 9558   4.575   3.187   7.559 -0.7776 -2.1261 -2.3219
   96SAPS  H20T 9559   4.642   3.236   7.406 -1.9199 -0.2524  0.3824
   96SAPS   C33 9560   5.168   3.543   7.226  0.1593  0.3343 -0.4017
   96SAPS   H3X 9561   5.241   3.474   7.273  1.2875  1.9608  0.3405
   96SAPS   H3Y 9562   5.069   3.493   7.222 -0.2171  0.4413  3.7040
   96SAPS   C34 9563   5.162   3.672   7.316 -0.0101  0.0051  0.2697
   96SAPS   H4X 9564   5.076   3.738   7.291 -0.3167  0.7877  3.0491
   96SAPS   H4Y 9565   5.258   3.728   7.316  0.6901 -1.0220 -2.6413
   96SAPS   C35 9566   5.135   3.626   7.466  0.5715  0.1954 -0.5968
   96SAPS   H5X 9567   5.204   3.544   7.498 -1.9133 -3.0848 -3.0045
   96SAPS   H5Y 9568   5.033   3.584   7.467  1.0289 -0.9681 -1.0990
   96SAPS   C36 9569   5.143   3.745   7.575  0.3060  0.6081  0.4715
   96SAPS   H6X 9570   5.072   3.822   7.537  2.7951  2.3760 -0.9224
   96SAPS   H6Y 9571   5.240   3.800   7.576  0.3360  0.5557  0.4515
   96SAPS   C37 9572   5.110   3.694   7.715  0.3093  0.3048  0.1567
   96SAPS   H7X 9573   5.021   3.627   7.713  0.9826 -0.6150 -1.9110
   96SAPS   H7Y 9574   5.073   3.777   7.779  0.9621  2.4075 -2.0371
   96SAPS   C38 9575   5.216   3.620   7.790 -0.2378 -0.0404 -0.3785
   96SAPS   H8X 9576   5.305   3.681   7.815  1.5969 -1.5609 -2.8203
   96SAPS   H8Y 9577   5.244   3.537   7.722 -0.7276  0.1275 -0.7930
   96SAPS   C39 9578   5.165   3.549   7.925 -0.3580 -0.1327 -0.0108
   96SAPS   H9X 9579   5.082   3.483   7.893 -0.2023 -0.2059 -0.2643
   96SAPS   H9Y 9580   5.134   3.635   7.989 -2.6819 -0.7938 -0.1579
   96SAPS  C310 9581   5.275   3.460   7.979 -0.1223  0.1772  0.2686
   96SAPS  H10X 9582   5.345   3.533   8.025  0.9377  1.3194 -2.9195
   96SAPS  H10Y 9583   5.331   3.398   7.906 -1.6265 -1.4400  0.4345
   96SAPS  C311 9584   5.223   3.362   8.084 -1.0210 -0.3568 -0.1119
   96SAPS  H11X 9585   5.167   3.277   8.039 -0.0481 -1.0495 -0.0291
   96SAPS  H11Y 9586   5.165   3.420   8.159 -1.5456  0.5828 -1.2046
   96SAPS  C312 9587   5.348   3.293   8.152 -0.1363 -0.2352 -0.9989
   96SAPS  H12X 9588   5.422   3.370   8.181 -2.4092  1.5370  0.4533
   96SAPS  H12Y 9589   5.398   3.228   8.076  1.6529  2.0119 -1.8627
   96SAPS  C313 9590   5.329   3.207   8.277 -0.8651  0.1420 -0.1769
   96SAPS  H13X 9591   5.271   3.262   8.355  1.9312 -1.7314  3.5487
   96SAPS  H13Y 9592   5.425   3.175   8.323 -0.7352 -1.1557 -1.3105
   96SAPS  C314 9593   5.253   3.081   8.237  0.0279 -0.3835  0.0608
   96SAPS  H14X 9594   5.321   3.021   8.172 -0.0038  1.6505 -1.9991
   96SAPS  H14Y 9595   5.162   3.110   8.180  0.1766 -1.5418 -0.8099
   96SAPS  C315 9596   5.208   2.992   8.354 -0.8586 -0.2630 -0.2747
   96SAPS  H15X 9597   5.149   3.047   8.430 -2.8037  1.1032 -2.6423
   96SAPS  H15Y 9598   5.300   2.949   8.400  0.4916  2.2493 -0.4759
   96SAPS  C316 9599   5.137   2.863   8.315 -0.0017 -0.3748  0.9027
   96SAPS  H16X 9600   5.118   2.802   8.405 -0.2105  0.4351  1.4153
   96SAPS  H16Y 9601   5.209   2.797   8.262  0.8645  1.6372 -0.5701
   96SAPS  C317 9602   5.009   2.879   8.234 -0.0896 -0.2639 -0.6573
   96SAPS  H17X 9603   4.966   2.781   8.203  0.1253 -0.0027 -1.8058
   96SAPS  H17Y 9604   5.041   2.935   8.144  0.4641  0.6491  0.0874
   96SAPS  C318 9605   4.899   2.973   8.298  0.0062 -0.3427 -0.2678
   96SAPS  H18X 9606   4.869   2.942   8.401 -1.4926  0.0816 -0.5470
   96SAPS  H18Y 9607   4.810   2.970   8.232 -0.6965  0.8662  0.5688
   96SAPS  H18Z 9608   4.937   3.077   8.299  0.5437 -0.5079 -1.6676
   97SAPS     N 9609   3.098   0.265   6.393  0.0458  0.1331 -0.0338
   97SAPS   HN1 9610   3.071   0.340   6.460 -1.0001 -1.7794  1.8161
   97SAPS   HN2 9611   3.106   0.180   6.452  0.0634  0.9497  1.1928
   97SAPS   HN3 9612   3.191   0.287   6.352  1.0190  2.4407  2.9449
   97SAPS   C12 9613   3.004   0.259   6.272  0.9460  1.0666  0.4068
   97SAPS  H12A 9614   3.005   0.361   6.234  2.7105  0.7241 -0.5538
   97SAPS   C13 9615   3.041   0.156   6.158  0.3242 -0.5433 -0.1088
   97SAPS  O13A 9616   3.146   0.084   6.173 -0.0205  0.6177 -0.2272
   97SAPS  O13B 9617   2.989   0.167   6.046  0.5325 -0.1039 -0.4090
   97SAPS   C11 9618   2.857   0.230   6.326  0.3243  0.1322  0.9733
   97SAPS  H11A 9619   2.854   0.134   6.383 -2.3832  0.7257  1.9935
   97SAPS  H11B 9620   2.793   0.207   6.238  1.0250  0.5580  0.3373
   97SAPS     P 9621   2.745   0.333   6.539 -0.3405 -0.2149 -0.5535
   97SAPS   O13 9622   2.779   0.451   6.626 -0.1585 -0.0035  0.6045
   97SAPS   O14 9623   2.606   0.295   6.529  0.8482  0.4764  0.2049
   97SAPS   O12 9624   2.805   0.346   6.399  0.3675  0.1653  0.0568
   97SAPS   O11 9625   2.833   0.221   6.602  0.6660  0.1284  0.1004
   97SAPS    C1 9626   2.804   0.102   6.676  0.0282 -0.9519  0.2779
   97SAPS    HA 9627   2.724   0.049   6.620 -0.9746  0.6652  0.1116
   97SAPS    HB 9628   2.899   0.045   6.675  0.0788 -0.8800  0.8884
   97SAPS    C2 9629   2.748   0.123   6.824  0.0770 -0.0451  0.9115
   97SAPS    HS 9630   2.722   0.020   6.858  0.0540 -0.0657  0.8306
   97SAPS   O21 9631   2.632   0.210   6.833  0.2841  0.1999  0.3498
   97SAPS   C21 9632   2.517   0.153   6.801  0.1165  0.1791  0.1474
   97SAPS   O22 9633   2.495   0.042   6.764  0.2808  0.8649 -0.3456
   97SAPS   C22 9634   2.401   0.254   6.826  0.0001 -0.3848 -0.2574
   97SAPS   H2R 9635   2.432   0.354   6.861 -1.3725  0.3907 -1.1591
   97SAPS   H2S 9636   2.342   0.261   6.732  0.8317  0.5802 -0.7091
   97SAPS    C3 9637   2.857   0.182   6.909  0.5860  0.4280 -0.4527
   97SAPS    HX 9638   2.897   0.278   6.870 -0.5391  1.0213 -0.1783
   97SAPS    HY 9639   2.944   0.113   6.898 -0.0693 -0.5238  0.2197
   97SAPS   O31 9640   2.797   0.196   7.044 -0.6059  0.1203 -0.5624
   97SAPS   C31 9641   2.765   0.313   7.086 -0.0262  0.1989 -1.1869
   97SAPS   O32 9642   2.765   0.407   7.011  0.3162 -0.5445  0.0218
   97SAPS   C32 9643   2.722   0.317   7.229  0.2583 -0.2450  0.6099
   97SAPS   H2X 9644   2.805   0.361   7.288  0.5671  1.5920 -1.0871
   97SAPS   H2Y 9645   2.698   0.214   7.261 -1.6871  0.2388  0.8011
   97SAPS   C23 9646   2.296   0.191   6.929 -0.1703 -0.4144  0.4061
   97SAPS   H3R 9647   2.346   0.149   7.020 -1.0593  0.3731  1.2785
   97SAPS   H3S 9648   2.250   0.099   6.886 -0.1356  0.1840 -0.9590
   97SAPS   C24 9649   2.177   0.288   6.969  0.1292 -1.0051  0.1440
   97SAPS   H4R 9650   2.107   0.229   7.033  0.2198  0.3093  1.5104
   97SAPS   H4S 9651   2.116   0.333   6.887 -4.1117  0.7123  3.8361
   97SAPS   C25 9652   2.218   0.410   7.053 -0.8914 -0.3084  0.1907
   97SAPS   H5R 9653   2.294   0.467   6.997  1.0104 -4.4519 -1.8989
   97SAPS   C26 9654   2.180   0.430   7.181 -0.7475  0.6051  0.0683
   97SAPS   H6R 9655   2.241   0.512   7.222  1.6759  0.1868 -2.4123
   97SAPS   C27 9656   2.092   0.349   7.265  0.1603  0.0146  0.0006
   97SAPS   H7R 9657   2.066   0.253   7.217  0.0787 -0.3657  0.7863
   97SAPS   H7S 9658   1.999   0.406   7.282  1.0543  2.4629 -2.5867
   97SAPS   C28 9659   2.168   0.306   7.394  1.3670 -0.7269  0.2782
   97SAPS   H8R 9660   2.216   0.207   7.390  2.8172 -0.0977  1.1193
   97SAPS   C29 9661   2.156   0.375   7.508  0.2121 -0.6559 -0.0034
   97SAPS   H9R 9662   2.214   0.342   7.596 -1.1442 -2.2973  0.3198
   97SAPS  C210 9663   2.079   0.498   7.538  0.0208 -0.2060  0.3343
   97SAPS  H10R 9664   2.031   0.543   7.449  0.8768  0.8228  0.3873
   97SAPS  H10S 9665   2.142   0.574   7.587 -1.0682  0.4434  0.7711
   97SAPS  C211 9666   1.962   0.477   7.627 -0.1867 -0.3792 -0.0403
   97SAPS  H11R 9667   1.870   0.461   7.568  0.8098  2.3800 -2.5871
   97SAPS  C212 9668   1.955   0.494   7.756 -0.3585 -0.7280 -0.7941
   97SAPS  H12R 9669   1.859   0.465   7.801 -1.5014  0.1092 -2.5704
   97SAPS  C213 9670   2.069   0.519   7.850  0.1882 -0.8948 -0.0286
   97SAPS  H13R 9671   2.169   0.535   7.805  0.8201  0.3129  1.7249
   97SAPS  H13S 9672   2.083   0.420   7.898  0.6195 -0.7719  0.1003
   97SAPS  C214 9673   2.052   0.625   7.955  0.1180 -0.3999 -0.3922
   97SAPS  H14R 9674   1.973   0.700   7.938 -0.7906 -0.6457  2.2499
   97SAPS  C215 9675   2.121   0.641   8.073  0.2410  0.1567  0.3224
   97SAPS  H15R 9676   2.095   0.730   8.132 -1.6403  0.2380 -0.5248
   97SAPS  C216 9677   2.242   0.560   8.109 -0.3827  0.2390 -0.1973
   97SAPS  H16R 9678   2.331   0.623   8.090  0.7777 -0.4737  2.3601
   97SAPS  H16S 9679   2.250   0.460   8.062 -2.2716  1.4043 -3.3280
   97SAPS  C217 9680   2.257   0.548   8.268 -0.8903  0.3086 -0.3577
   97SAPS  H17R 9681   2.288   0.649   8.303 -2.2396  1.3926 -2.1405
   97SAPS  H17S 9682   2.345   0.485   8.293 -1.9900 -0.2654  2.4344
   97SAPS  C218 9683   2.133   0.499   8.349  0.4620  0.0383  0.6843
   97SAPS  H18R 9684   2.054   0.571   8.319  1.4586  0.7540 -0.2992
   97SAPS  H18S 9685   2.150   0.506   8.459  0.5380 -1.2655  0.7748
   97SAPS  C219 9686   2.072   0.367   8.315  0.2665  0.9421  0.0217
   97SAPS  H19R 9687   2.144   0.284   8.329  0.0840  0.6270 -0.8499
   97SAPS  H19S 9688   2.047   0.364   8.206 -2.5492  2.3206  0.5342
   97SAPS  C220 9689   1.942   0.348   8.398  0.7201  0.0590  0.1652
   97SAPS  H20R 9690   1.959   0.349   8.508 -1.5284  4.0527  0.6669
   97SAPS  H20S 9691   1.889   0.253   8.376  0.4098 -0.0656  1.3766
   97SAPS  H20T 9692   1.878   0.436   8.375 -1.6369 -1.6683 -0.2348
   97SAPS   C33 9693   2.592   0.404   7.243  0.0045  0.3866 -0.7576
   97SAPS   H3X 9694   2.504   0.360   7.192  1.6508 -1.0000 -2.5288
   97SAPS   H3Y 9695   2.604   0.497   7.183  0.4144  0.7580 -0.1151
   97SAPS   C34 9696   2.565   0.453   7.380 -0.3156  0.2271  0.3346
   97SAPS   H4X 9697   2.466   0.503   7.375 -0.7635 -0.6049  0.6117
   97SAPS   H4Y 9698   2.645   0.529   7.396  0.2029 -0.1626 -0.3243
   97SAPS   C35 9699   2.554   0.345   7.485  0.1872 -0.2952  0.0356
   97SAPS   H5X 9700   2.646   0.284   7.495 -0.2660 -0.7647  1.7183
   97SAPS   H5Y 9701   2.464   0.283   7.466 -1.2970  1.4362  1.0630
   97SAPS   C36 9702   2.528   0.419   7.619 -0.1574 -0.2745 -0.2056
   97SAPS   H6X 9703   2.422   0.453   7.620 -0.2998 -0.4674  2.9981
   97SAPS   H6Y 9704   2.600   0.502   7.637  0.3756 -0.5026 -1.2018
   97SAPS   C37 9705   2.535   0.327   7.738  0.0207 -0.2865 -0.9767
   97SAPS   H7X 9706   2.641   0.298   7.752  0.1848 -0.2797 -2.0995
   97SAPS   H7Y 9707   2.465   0.241   7.728 -0.0713 -0.7057  2.2779
   97SAPS   C38 9708   2.480   0.399   7.859 -0.1164  0.3028  0.1291
   97SAPS   H8X 9709   2.370   0.387   7.857  0.0469 -1.3546 -0.4373
   97SAPS   H8Y 9710   2.513   0.505   7.848  1.7981 -0.2673 -0.1057
   97SAPS   C39 9711   2.528   0.349   7.996 -0.5258  0.4554 -0.8106
   97SAPS   H9X 9712   2.495   0.406   8.085  2.8036  0.0241  0.8575
   97SAPS   H9Y 9713   2.638   0.341   7.992 -0.6422 -1.4532 -1.7333
   97SAPS  C310 9714   2.480   0.203   8.020  0.4478 -0.5072  0.1046
   97SAPS  H10X 9715   2.501   0.129   7.939  2.3470  0.2062 -0.1104
   97SAPS  H10Y 9716   2.369   0.209   8.023  0.4674  0.1262 -0.1659
   97SAPS  C311 9717   2.525   0.135   8.152 -0.4491  0.3447 -0.3629
   97SAPS  H11X 9718   2.629   0.164   8.178 -0.2331  1.0158 -1.8826
   97SAPS  H11Y 9719   2.524   0.024   8.154  1.5586  0.2690  2.4630
   97SAPS  C312 9720   2.439   0.189   8.265 -0.1060 -0.0459 -0.7899
   97SAPS  H12X 9721   2.333   0.175   8.233 -0.1206 -1.5462 -0.2005
   97SAPS  H12Y 9722   2.453   0.293   8.300  1.1592 -1.2186  2.6566
   97SAPS  C313 9723   2.445   0.107   8.398 -0.5683  0.2705 -0.4418
   97SAPS  H13X 9724   2.544   0.116   8.447 -0.4594  1.0700 -0.7861
   97SAPS  H13Y 9725   2.439  -0.002   8.379  1.4383  0.0569 -0.0928
   97SAPS  C314 9726   2.338   0.150   8.497 -0.3711  0.1731  0.6682
   97SAPS  H14X 9727   2.337   0.080   8.583 -0.6034 -1.1520 -0.3712
   97SAPS  H14Y 9728   2.238   0.134   8.451 -1.3903 -1.2729  3.1920
   97SAPS  C315 9729   2.358   0.288   8.561 -0.4179 -0.2351 -0.7908
   97SAPS  H15X 9730   2.274   0.320   8.626 -0.2048  1.1086 -1.1443
   97SAPS  H15Y 9731   2.345   0.351   8.471  0.9539  0.4311 -0.5555
   97SAPS  C316 9732   2.500   0.311   8.620 -0.2213 -0.0252 -0.0924
   97SAPS  H16X 9733   2.582   0.286   8.549  0.5769  1.7221  0.1421
   97SAPS  H16Y 9734   2.509   0.247   8.710 -0.1258  1.6730  1.1557
   97SAPS  C317 9735   2.528   0.456   8.671 -0.6291 -0.4209 -0.4595
   97SAPS  H17X 9736   2.632   0.448   8.707 -0.4159  1.1450 -0.6417
   97SAPS  H17Y 9737   2.471   0.497   8.758 -1.8670  0.7701 -1.7740
   97SAPS  C318 9738   2.535   0.558   8.555  0.6979  0.5312  0.1286
   97SAPS  H18X 9739   2.594   0.518   8.470 -1.7430 -3.0854 -0.0863
   97SAPS  H18Y 9740   2.575   0.655   8.591  0.1391  0.5825  0.6277
   97SAPS  H18Z 9741   2.438   0.573   8.505 -0.4485 -0.1885  2.0205
   98SAPS     N 9742   5.625   2.452   5.978 -0.3202 -0.4589  0.0429
   98SAPS   HN1 9743   5.723   2.486   5.987 -0.2251 -0.9548  1.0086
   98SAPS   HN2 9744   5.610   2.442   5.875  0.3760  1.0291 -0.2254
   98SAPS   HN3 9745   5.555   2.523   6.007 -1.2430 -0.4480 -2.0027
   98SAPS   C12 9746   5.605   2.335   6.070 -0.2340  0.5158  0.1919
   98SAPS  H12A 9747   5.513   2.285   6.042 -0.8520  2.8121 -2.4156
   98SAPS   C13 9748   5.709   2.223   6.076  0.0789  0.0477 -0.3305
   98SAPS  O13A 9749   5.817   2.232   6.008 -0.0910 -0.2133  0.5998
   98SAPS  O13B 9750   5.696   2.128   6.157  0.5582 -0.5090 -0.0889
   98SAPS   C11 9751   5.583   2.398   6.207 -0.1155  0.5268  0.5011
   98SAPS  H11A 9752   5.674   2.461   6.216  0.0728  0.9286 -2.8804
   98SAPS  H11B 9753   5.588   2.319   6.285  1.6769 -0.0543 -0.1585
   98SAPS     P 9754   5.322   2.416   6.228 -0.0630  0.1390  0.0794
   98SAPS   O13 9755   5.236   2.512   6.299  0.1546 -0.4032  0.4864
   98SAPS   O14 9756   5.275   2.345   6.109  0.0712 -0.0666  0.0248
   98SAPS   O12 9757   5.464   2.472   6.202 -0.2259 -0.4980  0.5281
   98SAPS   O11 9758   5.363   2.302   6.330  0.2279 -0.2862 -0.3046
   98SAPS    C1 9759   5.259   2.213   6.378 -0.6334  0.2314 -0.0945
   98SAPS    HA 9760   5.182   2.266   6.438  1.2274  0.5747  2.1385
   98SAPS    HB 9761   5.214   2.164   6.289 -0.3988  0.0755 -0.1268
   98SAPS    C2 9762   5.316   2.104   6.476 -0.3379 -0.5964  0.2668
   98SAPS    HS 9763   5.232   2.035   6.497 -1.8845  1.1186  0.0028
   98SAPS   O21 9764   5.364   2.167   6.593  0.4694  0.3469 -0.6615
   98SAPS   C21 9765   5.292   2.150   6.704  0.2954 -0.4599 -0.0840
   98SAPS   O22 9766   5.179   2.103   6.713  0.1072  0.3220  0.0272
   98SAPS   C22 9767   5.382   2.185   6.823  0.1521  0.6822  0.2178
   98SAPS   H2R 9768   5.470   2.245   6.789 -0.4877  1.3957 -0.2037
   98SAPS   H2S 9769   5.320   2.249   6.889 -0.4165  1.0230 -0.6348
   98SAPS    C3 9770   5.439   2.024   6.419 -0.1449 -1.0080  0.3074
   98SAPS    HX 9771   5.532   2.083   6.414 -1.7984  1.6456 -1.0173
   98SAPS    HY 9772   5.410   2.004   6.314 -1.4106  0.6034  0.3163
   98SAPS   O31 9773   5.459   1.908   6.498  0.4050 -0.6767 -0.3367
   98SAPS   C31 9774   5.407   1.792   6.459  0.2953  0.3750 -0.0391
   98SAPS   O32 9775   5.341   1.771   6.358  0.1781 -0.7897 -0.6335
   98SAPS   C32 9776   5.449   1.687   6.560  0.4464 -0.1277  0.0857
   98SAPS   H2X 9777   5.544   1.638   6.528  0.9198  0.9222 -0.1375
   98SAPS   H2Y 9778   5.374   1.607   6.543 -0.8047  0.8148  1.0139
   98SAPS   C23 9779   5.435   2.054   6.893  0.0555 -0.6528 -0.2413
   98SAPS   H3R 9780   5.474   1.976   6.825  0.0295 -2.6618  1.9119
   98SAPS   H3S 9781   5.353   2.004   6.948  0.6895 -0.5483  0.8261
   98SAPS   C24 9782   5.548   2.085   7.001 -0.4099  0.4196 -0.6434
   98SAPS   H4R 9783   5.627   2.148   6.956  0.6465  0.0674  0.6620
   98SAPS   H4S 9784   5.587   1.984   7.024  1.2196  1.2648  0.4535
   98SAPS   C25 9785   5.506   2.145   7.135 -0.7432  0.0443  0.1612
   98SAPS   H5R 9786   5.440   2.233   7.134 -0.5914  0.1633 -0.8061
   98SAPS   C26 9787   5.541   2.102   7.258  0.6711 -0.4125 -0.3708
   98SAPS   H6R 9788   5.514   2.160   7.348 -0.9718 -1.4869 -0.1271
   98SAPS   C27 9789   5.614   1.974   7.291 -0.4000 -0.3275  0.5810
   98SAPS   H7R 9790   5.619   1.910   7.200  0.8497 -1.6150  1.4899
   98SAPS   H7S 9791   5.561   1.904   7.359 -0.2527  0.2507  1.2996
   98SAPS   C28 9792   5.755   2.011   7.326  0.5957  0.1697  0.3480
   98SAPS   H8R 9793   5.818   2.032   7.239  0.7475 -0.9884  0.1573
   98SAPS   C29 9794   5.810   1.990   7.448 -0.2060 -0.2589 -0.1462
   98SAPS   H9R 9795   5.914   2.017   7.470 -0.2549  1.1822 -1.4737
   98SAPS  C210 9796   5.728   1.937   7.562  0.4574 -0.2752 -0.9396
   98SAPS  H10R 9797   5.797   1.893   7.637  1.7523  0.0008 -1.9445
   98SAPS  H10S 9798   5.665   1.852   7.528 -3.7114  1.6144  1.2043
   98SAPS  C211 9799   5.637   2.034   7.627 -0.2207 -0.5683  0.2627
   98SAPS  H11R 9800   5.591   2.105   7.557 -0.0197 -1.0456 -0.3599
   98SAPS  C212 9801   5.612   2.045   7.755  0.1461  0.0664 -0.1565
   98SAPS  H12R 9802   5.542   2.122   7.791  1.4304  2.2816 -2.1626
   98SAPS  C213 9803   5.669   1.967   7.874  0.1036  0.2668 -1.0743
   98SAPS  H13R 9804   5.745   1.896   7.835  0.3230 -2.0282  3.0146
   98SAPS  H13S 9805   5.594   1.902   7.924  0.5011  0.4655 -0.2146
   98SAPS  C214 9806   5.742   2.041   7.978  0.4883 -0.0867  0.7954
   98SAPS  H14R 9807   5.750   2.150   7.963  0.3642 -0.0633  0.8898
   98SAPS  C215 9808   5.776   1.996   8.103  0.1258 -0.6508  0.3283
   98SAPS  H15R 9809   5.829   2.065   8.170  1.1185 -1.9842  0.9691
   98SAPS  C216 9810   5.758   1.859   8.156 -0.1280  0.7132  0.1612
   98SAPS  H16R 9811   5.838   1.826   8.225  0.2908 -0.4739 -0.8612
   98SAPS  H16S 9812   5.757   1.786   8.072  0.5852 -1.2352  1.7625
   98SAPS  C217 9813   5.626   1.842   8.238  0.0020  0.2932  0.1540
   98SAPS  H17R 9814   5.606   1.732   8.245  2.5120 -0.3412 -1.5254
   98SAPS  H17S 9815   5.542   1.887   8.180 -1.9945  0.7575  3.1635
   98SAPS  C218 9816   5.622   1.907   8.374  0.1238  0.4400  0.0593
   98SAPS  H18R 9817   5.643   2.015   8.358 -2.2092  0.8757 -0.4375
   98SAPS  H18S 9818   5.694   1.863   8.445 -3.2450 -0.8196  2.9825
   98SAPS  C219 9819   5.490   1.895   8.435  0.2362  0.6363  0.1856
   98SAPS  H19R 9820   5.472   1.789   8.463  2.6563  0.1732  0.2315
   98SAPS  H19S 9821   5.418   1.921   8.355  0.3599 -0.2011 -0.2134
   98SAPS  C220 9822   5.469   1.986   8.555  0.0262  0.2055  0.3675
   98SAPS  H20R 9823   5.526   1.945   8.642  1.4713  1.7606  0.2089
   98SAPS  H20S 9824   5.361   1.993   8.579  0.0732 -0.5753  0.8445
   98SAPS  H20T 9825   5.513   2.084   8.527 -2.0705  0.9711 -0.4372
   98SAPS   C33 9826   5.445   1.732   6.709  0.0946 -0.3826  0.7754
   98SAPS   H3X 9827   5.347   1.774   6.741  0.1365  1.0091 -0.8248
   98SAPS   H3Y 9828   5.513   1.818   6.725 -0.5928  0.0665  1.3772
   98SAPS   C34 9829   5.481   1.617   6.807 -0.7758  0.0288  0.1818
   98SAPS   H4X 9830   5.582   1.581   6.779 -2.6195 -3.8511 -2.3246
   98SAPS   H4Y 9831   5.417   1.527   6.791 -2.2275  0.5949  2.2958
   98SAPS   C35 9832   5.486   1.660   6.954 -0.1940 -1.1357  0.1512
   98SAPS   H5X 9833   5.386   1.697   6.986  0.2082  1.0258 -0.8897
   98SAPS   H5Y 9834   5.549   1.750   6.974  0.7172 -2.0953  1.8682
   98SAPS   C36 9835   5.538   1.553   7.057  0.6428 -0.4474  0.8134
   98SAPS   H6X 9836   5.643   1.531   7.031  0.4196 -0.5001 -0.0648
   98SAPS   H6Y 9837   5.464   1.470   7.048 -0.2880  0.5880 -3.2315
   98SAPS   C37 9838   5.535   1.601   7.203  0.2504 -0.3241  0.2015
   98SAPS   H7X 9839   5.437   1.649   7.223  0.7836  1.0293 -0.3452
   98SAPS   H7Y 9840   5.611   1.678   7.228  1.7281 -1.7836  0.3992
   98SAPS   C38 9841   5.555   1.487   7.304 -0.4430 -1.1472  0.7453
   98SAPS   H8X 9842   5.657   1.459   7.272  0.5668  1.8071  1.1381
   98SAPS   H8Y 9843   5.485   1.403   7.280 -0.0992 -1.4777  0.8869
   98SAPS   C39 9844   5.544   1.532   7.445  0.7616 -0.2046 -0.5739
   98SAPS   H9X 9845   5.441   1.571   7.457  0.1581 -1.8222 -0.2317
   98SAPS   H9Y 9846   5.620   1.613   7.448  1.4786 -0.8891  1.0250
   98SAPS  C310 9847   5.589   1.435   7.546 -0.0378  0.0731  0.0602
   98SAPS  H10X 9848   5.697   1.413   7.529 -0.3083 -0.3374 -1.2314
   98SAPS  H10Y 9849   5.526   1.344   7.547 -0.0066  0.0483 -0.2715
   98SAPS  C311 9850   5.564   1.491   7.684 -0.0890 -0.2800 -0.0158
   98SAPS  H11X 9851   5.458   1.519   7.702 -0.5479  0.4423 -3.3660
   98SAPS  H11Y 9852   5.613   1.590   7.695 -2.4770  0.8893  0.7745
   98SAPS  C312 9853   5.607   1.404   7.803 -0.5453 -0.0178 -0.4588
   98SAPS  H12X 9854   5.718   1.402   7.813 -0.5969 -0.4606  0.0796
   98SAPS  H12Y 9855   5.578   1.298   7.784  0.3938 -0.8694  2.3676
   98SAPS  C313 9856   5.552   1.454   7.943  0.1673 -0.5926  0.3606
   98SAPS  H13X 9857   5.446   1.484   7.932  0.0341 -1.6098 -1.5932
   98SAPS  H13Y 9858   5.605   1.550   7.961 -0.0663 -0.1707 -1.1009
   98SAPS  C314 9859   5.580   1.357   8.057  0.2812  0.0836  0.2073
   98SAPS  H14X 9860   5.679   1.306   8.057  0.2493 -0.0573  2.1504
   98SAPS  H14Y 9861   5.508   1.273   8.047  0.9612 -0.4128 -0.6865
   98SAPS  C315 9862   5.564   1.435   8.189 -0.5037 -0.3755  0.8293
   98SAPS  H15X 9863   5.469   1.491   8.176  0.2357  0.3397 -2.7089
   98SAPS  H15Y 9864   5.646   1.509   8.203  1.5134 -2.2836 -0.1851
   98SAPS  C316 9865   5.564   1.353   8.309 -0.8471 -0.2222 -0.1026
   98SAPS  H16X 9866   5.486   1.277   8.291 -0.7136  0.1036 -2.2779
   98SAPS  H16Y 9867   5.537   1.415   8.397 -2.6526 -0.8219 -0.2023
   98SAPS  C317 9868   5.690   1.274   8.339 -1.0250 -0.1723 -0.1103
   98SAPS  H17X 9869   5.759   1.358   8.363 -2.8210  1.2790  0.1858
   98SAPS  H17Y 9870   5.735   1.221   8.252  1.1836  1.2794  0.0604
   98SAPS  C318 9871   5.678   1.188   8.460 -0.9014 -0.9545  0.0861
   98SAPS  H18X 9872   5.622   1.096   8.430 -0.8937 -1.1638  0.7117
   98SAPS  H18Y 9873   5.617   1.240   8.536  1.0401  1.2296  0.2610
   98SAPS  H18Z 9874   5.768   1.155   8.515  0.8450  1.3076 -1.2333
   99SAPS     N 9875   6.317   6.215   6.032 -0.2360 -0.1406 -0.5642
   99SAPS   HN1 9876   6.319   6.111   6.031 -2.0913 -0.2108 -0.9072
   99SAPS   HN2 9877   6.275   6.252   6.120  1.1391  2.1871 -0.8083
   99SAPS   HN3 9878   6.254   6.253   5.958 -0.4830  1.0958  0.2359
   99SAPS   C12 9879   6.448   6.280   6.000  0.0814  0.2117 -0.4303
   99SAPS  H12A 9880   6.496   6.225   5.920 -0.8410 -1.2879  0.0103
   99SAPS   C13 9881   6.435   6.429   5.951  0.2171 -0.1493 -0.6721
   99SAPS  O13A 9882   6.326   6.473   5.905 -0.2314  0.3172 -0.1284
   99SAPS  O13B 9883   6.543   6.500   5.955  0.2469  0.0406  0.2024
   99SAPS   C11 9884   6.542   6.271   6.132 -0.3114  0.4704  0.2622
   99SAPS  H11A 9885   6.502   6.337   6.212 -0.7614 -0.5068  0.8611
   99SAPS  H11B 9886   6.647   6.299   6.108  0.7045 -0.7852  2.8272
   99SAPS     P 9887   6.566   6.088   6.321 -0.3941 -0.1371  0.1321
   99SAPS   O13 9888   6.516   5.954   6.340 -0.4520 -0.1416  0.1203
   99SAPS   O14 9889   6.705   6.122   6.366  0.6202  0.2551 -0.0033
   99SAPS   O12 9890   6.546   6.138   6.175 -0.0035  0.0150 -0.3692
   99SAPS   O11 9891   6.471   6.182   6.390  0.3555  0.1410 -0.0487
   99SAPS    C1 9892   6.331   6.171   6.403 -0.3426  0.2539 -0.6420
   99SAPS    HA 9893   6.294   6.275   6.394 -4.0005 -0.7337  1.0171
   99SAPS    HB 9894   6.279   6.110   6.326 -1.1937  0.3637 -0.1599
   99SAPS    C2 9895   6.276   6.130   6.543 -0.2613  0.4386  0.0697
   99SAPS    HS 9896   6.167   6.120   6.527 -0.0415 -3.0143  0.1398
   99SAPS   O21 9897   6.327   6.237   6.627 -0.0443 -0.2975  0.3470
   99SAPS   C21 9898   6.247   6.271   6.720  0.2833  1.1223 -1.4074
   99SAPS   O22 9899   6.134   6.231   6.741 -0.1256  0.2388  0.1739
   99SAPS   C22 9900   6.319   6.355   6.826  0.4007  0.1435  0.3455
   99SAPS   H2R 9901   6.419   6.381   6.787  0.9690 -0.7054  1.1993
   99SAPS   H2S 9902   6.263   6.451   6.832 -1.5473 -0.8899 -0.3673
   99SAPS    C3 9903   6.324   5.992   6.590 -0.3755 -0.2146  0.2183
   99SAPS    HX 9904   6.433   5.999   6.612 -0.3056 -0.3927 -0.0630
   99SAPS    HY 9905   6.304   5.923   6.505  0.8164 -0.1656 -0.1291
   99SAPS   O31 9906   6.262   5.940   6.711 -0.3716 -0.1928  0.0107
   99SAPS   C31 9907   6.140   5.906   6.689  0.0738  0.0336  0.0531
   99SAPS   O32 9908   6.090   5.885   6.578  0.6295  0.3707 -0.0117
   99SAPS   C32 9909   6.048   5.915   6.815  0.1212  0.6994 -0.2877
   99SAPS   H2X 9910   5.974   5.832   6.814  0.7217  0.1381 -2.0646
   99SAPS   H2Y 9911   5.991   6.010   6.806  0.7212  1.0724 -0.1935
   99SAPS   C23 9912   6.337   6.278   6.960 -0.0111  0.1586 -0.4604
   99SAPS   H3R 9913   6.407   6.192   6.950  0.2969  0.0845  1.8463
   99SAPS   H3S 9914   6.239   6.230   6.978  0.6575 -1.3552 -0.7151
   99SAPS   C24 9915   6.381   6.368   7.076 -0.1475 -0.6103  0.0343
   99SAPS   H4R 9916   6.452   6.444   7.038 -0.6819 -0.4887 -0.7503
   99SAPS   H4S 9917   6.428   6.298   7.149 -1.5500 -1.8627 -0.2155
   99SAPS   C25 9918   6.267   6.439   7.140  0.5243 -0.1690 -0.2393
   99SAPS   H5R 9919   6.229   6.526   7.085 -0.7581 -0.1652  0.6308
   99SAPS   C26 9920   6.187   6.392   7.238 -0.9761 -0.6632 -0.1005
   99SAPS   H6R 9921   6.105   6.459   7.268  1.0234  1.6989  0.3811
   99SAPS   C27 9922   6.200   6.264   7.309  0.0100 -0.0222 -0.9252
   99SAPS   H7R 9923   6.229   6.181   7.242 -2.1972  0.1468 -2.1693
   99SAPS   H7S 9924   6.101   6.232   7.347  0.5898  0.3988  1.0626
   99SAPS   C28 9925   6.293   6.286   7.432  0.1125  0.4357  0.3466
   99SAPS   H8R 9926   6.393   6.324   7.410  0.1206  0.1077 -0.1950
   99SAPS   C29 9927   6.266   6.278   7.565 -0.1729 -0.5454 -0.0331
   99SAPS   H9R 9928   6.349   6.314   7.626 -0.2820 -0.6583  0.1835
   99SAPS  C210 9929   6.137   6.235   7.625  0.0971 -0.6668 -0.3413
   99SAPS  H10R 9930   6.167   6.150   7.690 -0.4864 -0.6255 -0.0108
   99SAPS  H10S 9931   6.064   6.205   7.546  0.8229 -0.7794 -0.9807
   99SAPS  C211 9932   6.053   6.335   7.701  0.0414  0.1528 -0.2002
   99SAPS  H11R 9933   6.006   6.416   7.643  0.7963 -0.3165 -1.5047
   99SAPS  C212 9934   6.014   6.323   7.829  0.0197 -0.4498 -0.4370
   99SAPS  H12R 9935   5.944   6.401   7.865  0.1818  0.8931 -2.8392
   99SAPS  C213 9936   6.051   6.218   7.937  0.5714 -0.4593  0.8225
   99SAPS  H13R 9937   6.093   6.133   7.879 -1.4262 -1.0934  0.2482
   99SAPS  H13S 9938   5.959   6.166   7.969  0.2883 -0.2898  0.3019
   99SAPS  C214 9939   6.147   6.262   8.040 -0.3664 -0.4291  0.3948
   99SAPS  H14R 9940   6.253   6.281   8.020  0.1989 -1.1128  2.4899
   99SAPS  C215 9941   6.107   6.296   8.166 -0.4336  0.7648  0.8157
   99SAPS  H15R 9942   6.187   6.320   8.237 -0.4770  0.0945  1.1004
   99SAPS  C216 9943   5.970   6.290   8.225 -0.0951  0.5404  0.4824
   99SAPS  H16R 9944   5.958   6.208   8.299  1.0483 -0.4852 -0.4354
   99SAPS  H16S 9945   5.895   6.292   8.143 -0.7911  1.2544  1.1179
   99SAPS  C217 9946   5.946   6.421   8.305 -0.1598  0.1135 -0.1953
   99SAPS  H17R 9947   5.836   6.422   8.318 -0.2303 -0.2129 -0.7556
   99SAPS  H17S 9948   5.974   6.512   8.248 -0.8592  1.3690  1.3801
   99SAPS  C218 9949   6.018   6.424   8.442 -0.1665  0.3987 -0.3389
   99SAPS  H18R 9950   6.124   6.396   8.422 -0.5799 -3.7593  2.1174
   99SAPS  H18S 9951   5.982   6.337   8.501  2.0121 -0.3811 -0.0789
   99SAPS  C219 9952   6.011   6.554   8.533 -0.0514  0.1009 -0.1949
   99SAPS  H19R 9953   6.055   6.530   8.632  1.4527 -2.8174 -1.4365
   99SAPS  H19S 9954   5.908   6.588   8.556  0.6102  2.0426  0.1208
   99SAPS  C220 9955   6.091   6.666   8.468 -0.2643 -0.0427 -0.9688
   99SAPS  H20R 9956   6.042   6.696   8.373 -1.6132 -0.8343 -0.5547
   99SAPS  H20S 9957   6.192   6.627   8.442  0.3674  1.3765 -0.7194
   99SAPS  H20T 9958   6.111   6.752   8.536 -1.3246  0.6787 -1.5394
   99SAPS   C33 9959   6.114   5.918   6.954 -0.7030  0.0620 -0.3502
   99SAPS   H3X 9960   6.184   6.004   6.949  0.4916 -0.8835 -0.2231
   99SAPS   H3Y 9961   6.169   5.825   6.977  0.7440  1.4037  2.0755
   99SAPS   C34 9962   6.011   5.948   7.067 -0.4773 -0.4502  0.1474
   99SAPS   H4X 9963   5.915   5.894   7.055 -0.2439 -0.6273 -1.0065
   99SAPS   H4Y 9964   5.982   6.056   7.065  1.6380  0.2133  1.4245
   99SAPS   C35 9965   6.079   5.920   7.204 -0.4757 -0.4145  0.7560
   99SAPS   H5X 9966   6.174   5.978   7.208 -0.2922 -0.5009 -1.2304
   99SAPS   H5Y 9967   6.101   5.812   7.214 -1.8281 -0.9292 -1.1383
   99SAPS   C36 9968   5.997   5.961   7.330 -0.1804 -0.4884 -0.1682
   99SAPS   H6X 9969   5.903   5.903   7.339 -0.6138  0.4059  1.5712
   99SAPS   H6Y 9970   5.967   6.067   7.321  1.5480 -0.0722 -1.7502
   99SAPS   C37 9971   6.079   5.942   7.456 -0.1016 -0.9040 -0.2653
   99SAPS   H7X 9972   6.021   5.980   7.544  0.1381 -0.0944 -0.4485
   99SAPS   H7Y 9973   6.165   6.012   7.461 -0.0236 -1.0545  0.8878
   99SAPS   C38 9974   6.130   5.802   7.490 -0.8371  0.3061  0.8732
   99SAPS   H8X 9975   6.208   5.769   7.418 -0.9785  1.4080  0.1932
   99SAPS   H8Y 9976   6.049   5.726   7.493 -1.2401  0.6631 -0.3506
   99SAPS   C39 9977   6.219   5.798   7.613 -0.3771  0.9085 -0.0440
   99SAPS   H9X 9978   6.299   5.875   7.604  0.2498  0.2780  0.1247
   99SAPS   H9Y 9979   6.273   5.702   7.625 -0.4380  0.9049  0.2074
   99SAPS  C310 9980   6.148   5.817   7.753 -0.4489  0.0855  0.9706
   99SAPS  H10X 9981   6.093   5.726   7.783  0.8948 -1.3490 -0.7250
   99SAPS  H10Y 9982   6.077   5.902   7.739 -2.1155 -1.5780 -1.5112
   99SAPS  C311 9983   6.253   5.842   7.864  0.1469  0.1201 -0.0570
   99SAPS  H11X 9984   6.315   5.932   7.841 -0.0378  0.2905  0.1064
   99SAPS  H11Y 9985   6.323   5.756   7.864  0.0896  0.0618 -0.8984
   99SAPS  C312 9986   6.191   5.868   8.004  0.2865  0.1302 -1.3415
   99SAPS  H12X 9987   6.135   5.780   8.041  0.0990  1.1235  0.9747
   99SAPS  H12Y 9988   6.115   5.947   7.987  1.4381  1.3030 -1.2504
   99SAPS  C313 9989   6.285   5.902   8.119 -0.1504 -0.6846  0.4405
   99SAPS  H13X 9990   6.325   6.004   8.101 -1.4354 -0.1392  0.5275
   99SAPS  H13Y 9991   6.368   5.829   8.122  0.9658  0.4418 -1.1441
   99SAPS  C314 9992   6.209   5.890   8.262 -0.2159  0.4032  0.5072
   99SAPS  H14X 9993   6.171   5.786   8.271  1.2233 -0.2097 -0.1862
   99SAPS  H14Y 9994   6.120   5.957   8.267 -1.3150 -0.7239 -2.2793
   99SAPS  C315 9995   6.297   5.921   8.378 -0.2231 -0.5548 -0.1609
   99SAPS  H15X 9996   6.335   6.025   8.365  0.5327 -0.8293 -0.1839
   99SAPS  H15Y 9997   6.389   5.859   8.379 -0.1435 -0.5025  2.1818
   99SAPS  C316 9998   6.214   5.909   8.508  0.0908 -0.2909  0.0210
   99SAPS  H16X 9999   6.164   5.810   8.521 -0.1249 -0.2354 -0.3400
   99SAPS  H16Y10000   6.126   5.977   8.513  1.8874  2.0231  2.1905
   99SAPS  C31710001   6.278   5.947   8.639  0.2146  0.4074 -0.4138
   99SAPS  H17X10002   6.375   5.894   8.624  0.0630  0.0840 -0.2367
   99SAPS  H17Y10003   6.217   5.912   8.724 -0.1985  0.8236 -0.5375
   99SAPS  C31810004   6.305   6.097   8.647  0.4491 -0.0895 -0.3964
   99SAPS  H18X10005   6.223   6.165   8.615  1.6717  0.7186 -2.0044
   99SAPS  H18Y10006   6.401   6.123   8.597  1.5183 -0.4016  1.4200
   99SAPS  H18Z10007   6.316   6.129   8.753  0.3463 -1.3052 -0.0072
  100SAPS     N10008   0.761   1.581   6.172 -0.4161 -0.0199 -0.0538
  100SAPS   HN110009   0.702   1.587   6.087  0.7327  3.1815 -0.7595
  100SAPS   HN210010   0.750   1.672   6.221 -5.3928 -0.7174  0.6091
  100SAPS   HN310011   0.857   1.561   6.137 -0.6988 -3.7569  0.8983
  100SAPS   C1210012   0.720   1.468   6.261  0.2936 -0.0577 -0.2180
  100SAPS  H12A10013   0.691   1.511   6.356  0.4383 -2.4022  0.9746
  100SAPS   C1310014   0.614   1.377   6.207  0.3109  0.0615  0.8721
  100SAPS  O13A10015   0.548   1.416   6.108 -0.3047 -0.7359  0.6123
  100SAPS  O13B10016   0.575   1.281   6.281  0.5940 -0.0864  0.1866
  100SAPS   C1110017   0.849   1.388   6.289 -0.0202 -0.2156 -0.0801
  100SAPS  H11A10018   0.901   1.365   6.194 -0.1411 -0.5113 -0.0763
  100SAPS  H11B10019   0.820   1.291   6.334  1.1926 -0.9763 -0.8641
  100SAPS     P10020   1.062   1.406   6.432 -0.3583  0.1626 -0.0671
  100SAPS   O1310021   1.037   1.282   6.492  0.6468  0.1531 -0.8928
  100SAPS   O1410022   1.173   1.408   6.335 -0.1435  0.1445  0.2703
  100SAPS   O1210023   0.935   1.461   6.370  0.2601  0.2830 -0.0405
  100SAPS   O1110024   1.100   1.511   6.543 -0.2997  0.5369 -0.1175
  100SAPS    C110025   1.019   1.622   6.582 -0.0970  0.3100 -0.1974
  100SAPS    HA10026   1.091   1.705   6.598  1.9343 -1.5252  0.6008
  100SAPS    HB10027   0.942   1.649   6.506 -0.3005 -2.4740 -1.0817
  100SAPS    C210028   0.947   1.606   6.728  0.1616 -0.5096 -0.9020
  100SAPS    HS10029   0.933   1.703   6.780 -0.5468 -1.2228  0.2903
  100SAPS   O2110030   1.021   1.525   6.817  0.3608  0.0447  0.1729
  100SAPS   C2110031   1.142   1.559   6.850 -0.2501  0.0777  0.0468
  100SAPS   O2210032   1.192   1.676   6.849 -0.1765 -0.5690  0.5176
  100SAPS   C2210033   1.228   1.443   6.901 -0.4145  0.7672  0.0076
  100SAPS   H2R10034   1.158   1.357   6.895  0.7120 -0.0590 -2.2032
  100SAPS   H2S10035   1.306   1.414   6.828  0.0028 -2.7464  1.6518
  100SAPS    C310036   0.810   1.530   6.711 -0.5042 -0.4003 -0.1559
  100SAPS    HX10037   0.833   1.446   6.642  1.7529  2.1006 -2.6893
  100SAPS    HY10038   0.759   1.611   6.655  0.1713 -1.5699 -2.5934
  100SAPS   O3110039   0.753   1.494   6.832  0.3964 -0.0791 -0.5949
  100SAPS   C3110040   0.751   1.364   6.858  0.0357  0.3912  0.0149
  100SAPS   O3210041   0.798   1.279   6.789 -0.1608  0.2065 -0.0528
  100SAPS   C3210042   0.678   1.320   6.984 -0.5326 -0.7743 -0.2862
  100SAPS   H2X10043   0.670   1.209   6.975  1.3228 -0.8124 -2.3217
  100SAPS   H2Y10044   0.578   1.368   6.978 -0.8646 -1.5687 -1.3901
  100SAPS   C2310045   1.300   1.465   7.042  0.0481  0.3290 -0.8407
  100SAPS   H3R10046   1.361   1.557   7.039  0.8386 -0.1992 -1.4762
  100SAPS   H3S10047   1.367   1.376   7.051  1.3710  1.2951 -0.8096
  100SAPS   C2410048   1.199   1.462   7.159 -0.3476 -0.8391 -0.0828
  100SAPS   H4R10049   1.125   1.540   7.132  0.0309 -0.4458  0.0079
  100SAPS   H4S10050   1.253   1.500   7.249 -0.2833 -1.7853  0.2905
  100SAPS   C2510051   1.138   1.325   7.188  0.3328 -0.3320  0.0303
  100SAPS   H5R10052   1.052   1.294   7.126  1.4283 -0.0940 -1.6665
  100SAPS   C2610053   1.171   1.253   7.297 -0.9771  0.2381 -0.6021
  100SAPS   H6R10054   1.132   1.152   7.316  1.4657 -0.7331 -0.4232
  100SAPS   C2710055   1.286   1.280   7.394  0.1878 -0.4389  0.4998
  100SAPS   H7R10056   1.354   1.363   7.367 -0.3954 -0.7558 -2.2370
  100SAPS   H7S10057   1.347   1.188   7.406  1.7772  0.4297 -0.5105
  100SAPS   C2810058   1.240   1.322   7.529  0.4871 -0.5987 -1.2281
  100SAPS   H8R10059   1.212   1.428   7.540 -1.4343 -0.9649 -2.1701
  100SAPS   C2910060   1.194   1.237   7.627  0.2695 -0.7467  0.0524
  100SAPS   H9R10061   1.163   1.286   7.720 -1.4385  0.2876 -1.0189
  100SAPS  C21010062   1.193   1.088   7.624 -0.0189  0.4656 -0.6710
  100SAPS  H10R10063   1.199   1.053   7.518  1.4379  0.8797 -0.7468
  100SAPS  H10S10064   1.104   1.049   7.677  1.0741  0.7091  1.4555
  100SAPS  C21110065   1.311   1.025   7.690 -0.2559  0.3149  0.3814
  100SAPS  H11R10066   1.370   0.966   7.618 -1.3177  0.2721 -0.4766
  100SAPS  C21210067   1.346   1.028   7.814 -0.0613  0.5947  0.4448
  100SAPS  H12R10068   1.435   0.970   7.842  0.3030  0.7795 -0.3022
  100SAPS  C21310069   1.276   1.088   7.932  0.3445 -0.6044 -0.2796
  100SAPS  H13R10070   1.245   1.003   7.997 -1.0266  0.4896  0.5669
  100SAPS  H13S10071   1.194   1.152   7.893  0.1655 -1.1515 -0.8219
  100SAPS  C21410072   1.383   1.173   7.996  0.0311  0.3525 -0.1735
  100SAPS  H14R10073   1.455   1.229   7.935  0.5329  0.0045  0.0887
  100SAPS  C21510074   1.407   1.196   8.128  0.1685 -0.0255 -0.1441
  100SAPS  H15R10075   1.496   1.255   8.156 -0.2911  0.3398  0.6046
  100SAPS  C21610076   1.332   1.136   8.246  0.3312  0.1369  0.1175
  100SAPS  H16R10077   1.245   1.086   8.198  0.4330  0.6649 -0.6345
  100SAPS  H16S10078   1.315   1.211   8.326  1.4167  0.2014  0.3101
  100SAPS  C21710079   1.407   1.028   8.331  1.2153 -0.0566 -0.1354
  100SAPS  H17R10080   1.496   1.079   8.374  0.3513  0.0260  1.6633
  100SAPS  H17S10081   1.434   0.952   8.255 -0.9657 -2.0252  0.9323
  100SAPS  C21810082   1.310   0.966   8.432  0.3595 -0.1634 -0.1613
  100SAPS  H18R10083   1.226   0.912   8.384 -1.6464  1.9097  0.7467
  100SAPS  H18S10084   1.257   1.050   8.483  0.8153 -0.4539  0.8240
  100SAPS  C21910085   1.377   0.884   8.535 -0.1118 -0.1872 -0.2968
  100SAPS  H19R10086   1.454   0.816   8.491 -0.2191  0.4240 -1.4846
  100SAPS  H19S10087   1.301   0.827   8.592 -1.9887  1.3677 -1.1272
  100SAPS  C22010088   1.456   0.975   8.632  0.2905  0.0385  0.3339
  100SAPS  H20R10089   1.506   0.908   8.705 -1.0368 -0.2369  1.0084
  100SAPS  H20S10090   1.379   1.041   8.678  0.1972  0.2381 -0.0990
  100SAPS  H20T10091   1.533   1.036   8.579  1.0929 -1.0318  0.2282
  100SAPS   C3310092   0.743   1.365   7.121 -0.0880 -0.1177  1.0659
  100SAPS   H3X10093   0.785   1.467   7.106  1.4814 -1.1311 -2.3737
  100SAPS   H3Y10094   0.833   1.302   7.134 -1.0659 -1.5752  0.9527
  100SAPS   C3410095   0.637   1.339   7.221  0.2181  0.3325 -0.2685
  100SAPS   H4X10096   0.593   1.239   7.206  1.3651 -0.1170 -0.7973
  100SAPS   H4Y10097   0.558   1.415   7.207 -0.6465 -0.7238 -1.2689
  100SAPS   C3510098   0.711   1.348   7.362 -0.1099  0.4260 -0.1049
  100SAPS   H5X10099   0.767   1.443   7.372  1.0420 -0.2529  0.0490
  100SAPS   H5Y10100   0.780   1.262   7.375 -0.8749 -0.0154  1.2610
  100SAPS   C3610101   0.602   1.337   7.469  0.1573 -0.0916  0.0775
  100SAPS   H6X10102   0.545   1.242   7.471  0.6035 -0.3668  2.2311
  100SAPS   H6Y10103   0.523   1.412   7.447  0.7899  0.0917 -1.7746
  100SAPS   C3710104   0.660   1.375   7.611  0.5851  1.0619  0.3670
  100SAPS   H7X10105   0.570   1.412   7.666 -0.3845  0.8933 -1.0503
  100SAPS   H7Y10106   0.736   1.454   7.595  1.0021  0.5846 -0.0382
  100SAPS   C3810107   0.715   1.253   7.688  0.4638  0.1608 -0.0429
  100SAPS   H8X10108   0.807   1.206   7.648  2.9687  2.5597  2.4054
  100SAPS   H8Y10109   0.638   1.174   7.695 -0.3954  1.0872  1.5972
  100SAPS   C3910110   0.720   1.277   7.843  0.4362 -0.3344 -0.3951
  100SAPS   H9X10111   0.617   1.304   7.874  0.5331 -1.6205  1.2091
  100SAPS   H9Y10112   0.782   1.363   7.875 -0.1207  0.2343 -0.8275
  100SAPS  C31010113   0.750   1.146   7.920  0.5005  0.2279  0.4410
  100SAPS  H10X10114   0.701   1.066   7.862 -2.2331  2.4244 -0.4959
  100SAPS  H10Y10115   0.696   1.148   8.017 -0.3840  3.3911 -0.0149
  100SAPS  C31110116   0.899   1.128   7.953  0.5884 -0.1850  0.0758
  100SAPS  H11X10117   0.929   1.234   7.968 -0.9391  0.3047 -0.1155
  100SAPS  H11Y10118   0.952   1.087   7.864  0.9369  1.2792 -0.4185
  100SAPS  C31210119   0.916   1.062   8.091  0.0228  0.1309  0.2044
  100SAPS  H12X10120   0.871   1.125   8.171  0.3037  0.1830  0.3230
  100SAPS  H12Y10121   1.026   1.062   8.110  0.8957  1.6775 -3.8093
  100SAPS  C31310122   0.855   0.918   8.099 -0.6240 -0.4383 -0.0157
  100SAPS  H13X10123   0.822   0.869   8.005  0.3727  1.2036 -1.2762
  100SAPS  H13Y10124   0.761   0.929   8.157  0.3862 -0.6270  1.6993
  100SAPS  C31410125   0.937   0.817   8.177 -0.0209 -0.0997 -0.6944
  100SAPS  H14X10126   1.032   0.782   8.131  0.0688  1.8456 -2.1340
  100SAPS  H14Y10127   0.878   0.724   8.160  0.5462 -0.3251 -1.5054
  100SAPS  C31510128   0.943   0.850   8.331 -0.1572  0.0753 -0.3462
  100SAPS  H15X10129   0.839   0.876   8.359 -0.8815 -2.9376  0.1638
  100SAPS  H15Y10130   0.998   0.944   8.352 -0.7647  0.1913  0.7974
  100SAPS  C31610131   1.000   0.743   8.421  0.7892  0.6498  0.1607
  100SAPS  H16X10132   1.014   0.782   8.524  0.7106  0.2374  0.3294
  100SAPS  H16Y10133   1.105   0.720   8.395  0.2965 -0.2892 -1.0841
  100SAPS  C31710134   0.930   0.601   8.431 -0.4298 -0.5634 -0.1235
  100SAPS  H17X10135   0.929   0.550   8.333  0.5899  1.1457 -1.0722
  100SAPS  H17Y10136   0.828   0.626   8.469 -0.1720 -0.0798  0.2527
  100SAPS  C31810137   0.993   0.510   8.529  0.6641 -0.0161  0.2379
  100SAPS  H18X10138   0.919   0.427   8.535  0.8010 -0.1284  0.3813
  100SAPS  H18Y10139   1.010   0.563   8.625  0.1991 -0.1654  0.4027
  100SAPS  H18Z10140   1.092   0.483   8.485  0.6577  1.9073 -1.0729
  101OSM      N10141   3.433   6.100  10.741  0.5124 -0.9002  0.1505
  101OSM    C1510142   3.590   6.128  10.746  0.7490  0.4115  0.6744
  101OSM   H15A10143   3.623   6.158  10.647  1.7825  3.1103  1.7455
  101OSM   H15B10144   3.645   6.040  10.776  2.2173  1.9135  2.6338
  101OSM   H15C10145   3.615   6.213  10.806  0.8763  1.1038 -0.3359
  101OSM    C1410146   3.399   6.030  10.863  0.4401  0.3731 -0.0100
  101OSM   H14A10147   3.293   6.012  10.858  0.4326  0.5237 -0.4282
  101OSM   H14B10148   3.416   6.093  10.949 -1.4391  0.0193  0.6594
  101OSM   H14C10149   3.450   5.936  10.875 -0.2117  0.0623  0.3321
  101OSM    C1310150   3.367   6.236  10.729  0.1736 -0.0199  0.3018
  101OSM   H13A10151   3.350   6.287  10.823 -0.0728  0.6624 -0.1048
  101OSM   H13B10152   3.266   6.215  10.698 -0.0158 -1.8493  1.9698
  101OSM   H13C10153   3.412   6.292  10.648 -1.7998  1.5048  0.1852
  101OSM    C1210154   3.390   6.022  10.616 -0.4418  1.0081 -0.5873
  101OSM   H12A10155   3.439   5.925  10.622  2.1990  2.1687 -1.7155
  101OSM   H12B10156   3.434   6.073  10.531  0.1193  2.6903  0.6643
  101OSM    C1110157   3.244   5.989  10.589  0.0222 -0.4974  0.2476
  101OSM   H11A10158   3.239   5.924  10.499  1.1932  1.6860 -1.4896
  101OSM   H11B10159   3.198   6.087  10.564  0.5519  0.4160  2.5784
  101OSM      P10160   3.132   5.791  10.709 -0.0867  0.1892  0.2003
  101OSM    O1310161   3.246   5.709  10.672 -0.2354  0.1323 -0.2848
  101OSM    O1410162   3.069   5.767  10.841  0.3605  0.3345  0.2224
  101OSM    O1110163   3.026   5.774  10.604  0.0772  0.1325 -0.2650
  101OSM    O1210164   3.177   5.943  10.699 -0.0199  0.1696 -0.7997
  101OSM    C1S10165   2.925   5.874  10.584  0.1756  0.2343 -0.1719
  101OSM    H1S10166   2.922   5.955  10.660  0.9370 -0.1962  0.3355
  101OSM    H1T10167   2.825   5.826  10.592  0.5360 -0.4322  0.5476
  101OSM     NF10168   2.818   6.029  10.420 -0.1417 -0.8166 -0.2715
  101OSM    HNF10169   2.728   5.998  10.389 -0.5159 -0.6141  0.5623
  101OSM    C2S10170   2.918   5.930  10.433  0.1170 -0.5571 -0.5944
  101OSM    H2S10171   3.015   5.979  10.413  0.7423 -0.5690  2.0552
  101OSM    C3S10172   2.910   5.819  10.320 -0.0229  0.5932 -0.5080
  101OSM    H3S10173   2.815   5.767  10.345 -0.8614  2.5124  0.4832
  101OSM     O310174   3.010   5.721  10.326 -0.6754 -0.8468 -0.8318
  101OSM    HO310175   3.031   5.699  10.417 -1.8454 -1.7646 -0.7685
  101OSM    C4S10176   2.907   5.881  10.186  0.0114  0.6589 -1.0225
  101OSM    H4S10177   2.809   5.898  10.140 -1.1184 -1.2027  0.5725
  101OSM    C5S10178   3.011   5.907  10.101  0.6849 -0.5629 -0.5637
  101OSM    H5S10179   3.114   5.875  10.123  1.9300  1.5550 -2.8363
  101OSM    C6S10180   2.982   5.962   9.962 -0.2315 -0.3778  0.9572
  101OSM    H6S10181   3.072   6.018   9.930  0.2615 -1.4649  0.3757
  101OSM    H6T10182   2.895   6.030   9.955 -1.0945 -1.5292 -0.0860
  101OSM    C7S10183   2.960   5.851   9.853  0.2580 -0.0022 -0.2767
  101OSM    H7S10184   2.863   5.798   9.868  0.2705 -0.1009 -0.5357
  101OSM    H7T10185   3.041   5.776   9.858  0.9262  0.7990  2.6695
  101OSM    C8S10186   2.949   5.913   9.717 -0.2593  0.5546 -0.1862
  101OSM    H8S10187   3.046   5.964   9.696 -0.1290  0.2350 -0.3666
  101OSM    H8T10188   2.859   5.978   9.710 -1.9074 -1.6813 -0.9002
  101OSM    C9S10189   2.940   5.807   9.602 -0.1171 -0.0459 -0.4586
  101OSM    H9S10190   2.848   5.745   9.612  0.2045 -0.3766  0.6061
  101OSM    H9T10191   3.019   5.729   9.608  0.7192  0.8383  0.5706
  101OSM   C10S10192   2.960   5.869   9.464  0.4409 -0.4538  0.2092
  101OSM   H10S10193   3.064   5.906   9.456 -0.0933  1.4213  1.3051
  101OSM   H10T10194   2.900   5.960   9.444  1.4923 -0.3373 -3.0536
  101OSM   C11S10195   2.925   5.763   9.348  0.5063 -0.4711 -0.8435
  101OSM   H11S10196   2.822   5.737   9.382  1.1688  0.0376  1.7424
  101OSM   H11T10197   2.992   5.675   9.360  0.8482  0.0984  2.2074
  101OSM   C12S10198   2.933   5.812   9.199 -0.4059  0.1579 -0.6626
  101OSM   H12S10199   2.843   5.872   9.174 -0.0098  0.8991 -0.3737
  101OSM   H12T10200   2.933   5.719   9.139  2.3612 -1.1753  1.1784
  101OSM   C13S10201   3.063   5.877   9.161  0.5794  0.7910  0.1760
  101OSM   H13S10202   3.144   5.806   9.188 -0.2906 -1.1580 -1.9972
  101OSM   H13T10203   3.077   5.977   9.207 -0.6991  2.4012 -2.7009
  101OSM   C14S10204   3.082   5.895   9.008  0.1766  0.2576 -0.6270
  101OSM   H14S10205   3.018   5.976   8.966 -1.9402 -1.3931 -0.7474
  101OSM   H14T10206   3.066   5.796   8.960  0.6151  0.8861 -2.1473
  101OSM   C15S10207   3.215   5.943   8.965  0.1043  0.3174  0.0919
  101OSM   H15S10208   3.293   5.902   9.034  1.0870 -1.0596 -1.7578
  101OSM   H15T10209   3.225   6.052   8.986  0.5315 -0.1393  2.6603
  101OSM   C16S10210   3.261   5.911   8.815  0.0708  0.0441  0.3681
  101OSM   H16S10211   3.173   5.911   8.747  0.7886 -0.4154 -0.5847
  101OSM   H16T10212   3.305   5.810   8.803  1.4777  0.7312 -0.5438
  101OSM   C17S10213   3.360   6.011   8.761  0.4387  0.1075 -0.4962
  101OSM   H17S10214   3.456   5.982   8.810 -0.3188 -1.8519 -0.0932
  101OSM   H17T10215   3.342   6.114   8.799  1.4895  0.3223 -0.5491
  101OSM   C18S10216   3.381   6.018   8.612  0.2006 -0.3766  0.9032
  101OSM   H18S10217   3.442   6.109   8.594  0.6166 -0.6437  0.9550
  101OSM   H18T10218   3.288   6.036   8.554  1.3655  0.7239 -0.7183
  101OSM   H18U10219   3.437   5.939   8.558  1.2895  0.4868  0.7080
  101OSM    C1F10220   2.832   6.152  10.473 -0.3991 -0.4344  0.2662
  101OSM     OF10221   2.940   6.200  10.515 -0.1980 -0.0916 -0.0162
  101OSM    C2F10222   2.702   6.220  10.483  0.3459  0.7630  0.0663
  101OSM    H2F10223   2.694   6.258  10.587  3.7280 -0.5154  0.9125
  101OSM    H2G10224   2.617   6.155  10.454 -0.2432  0.4004  2.4072
  101OSM    C3F10225   2.703   6.340  10.388 -0.2806 -0.5199  0.0270
  101OSM    H3F10226   2.794   6.394  10.422 -0.0871 -0.3060 -0.8044
  101OSM    H3G10227   2.614   6.405  10.402 -1.3143 -2.0185  0.6498
  101OSM    C4F10228   2.711   6.308  10.237 -0.1693  0.5042 -1.3068
  101OSM    H4F10229   2.625   6.243  10.210  0.0065 -1.9950  3.1757
  101OSM    H4G10230   2.804   6.247  10.227 -0.2091  0.6072 -2.3568
  101OSM    C5F10231   2.714   6.431  10.152  0.0720 -0.1596  0.0576
  101OSM    H5F10232   2.817   6.472  10.160  0.0541  0.1302 -1.0123
  101OSM    H5G10233   2.639   6.511  10.169  2.1390  1.7221  0.9436
  101OSM    C6F10234   2.723   6.393  10.003  0.1273  0.1326 -0.0500
  101OSM    H6F10235   2.633   6.330   9.984 -0.5168  1.3654 -1.2027
  101OSM    H6G10236   2.814   6.333   9.981  0.4365  0.0778  1.2720
  101OSM    C7F10237   2.712   6.526   9.920 -0.1472 -0.5504 -0.2086
  101OSM    H7F10238   2.805   6.576   9.953 -0.5887 -0.7395  1.4042
  101OSM    H7G10239   2.625   6.592   9.941  1.5754  1.6531  0.3644
  101OSM    C8F10240   2.735   6.501   9.770  0.0311 -0.2403 -0.5981
  101OSM    H8F10241   2.839   6.464   9.759 -0.2565 -1.5313  0.6801
  101OSM    H8G10242   2.711   6.589   9.707  1.4603 -0.0857 -0.9505
  101OSM    C9F10243   2.651   6.388   9.724  0.9770  0.3698 -0.6985
  101OSM    H9F10244   2.556   6.365   9.773  0.3078 -2.1460 -2.8809
  101OSM   C10F10245   2.683   6.308   9.623 -0.3725  0.2076  0.0196
  101OSM   H10F10246   2.609   6.230   9.601 -3.4674  3.0282 -0.1968
  101OSM   C11F10247   2.814   6.313   9.542  0.3286 -0.6658 -0.3687
  101OSM   H11F10248   2.882   6.238   9.587 -0.2033 -0.6032  0.5704
  101OSM   H11G10249   2.866   6.410   9.536  0.2082 -0.5900 -0.1942
  101OSM   C12F10250   2.771   6.265   9.398  0.4778 -0.0355 -0.2078
  101OSM   H12F10251   2.675   6.310   9.366 -0.1596 -0.2898  1.2395
  101OSM   H12G10252   2.744   6.158   9.411 -1.5935  0.5022  0.1726
  101OSM   C13F10253   2.873   6.294   9.290  0.3101 -0.5403 -0.4936
  101OSM   H13F10254   2.977   6.261   9.312  0.0546  0.1751  2.2174
  101OSM   H13G10255   2.872   6.404   9.273  0.0273  0.0724  2.8156
  101OSM   C14F10256   2.826   6.229   9.156 -0.1048  0.0734  0.4354
  101OSM   H14F10257   2.716   6.242   9.146 -0.5415 -0.5558  3.3395
  101OSM   H14G10258   2.824   6.118   9.166 -1.3372  0.0332 -0.0728
  101OSM   C15F10259   2.901   6.288   9.034  0.4907  0.7184 -0.1205
  101OSM   H15F10260   3.010   6.267   9.029  1.2252  4.1974 -2.8657
  101OSM   H15G10261   2.898   6.399   9.041 -1.4265  0.6118  2.9274
  101OSM   C16F10262   2.834   6.244   8.908  0.2904  0.7068  0.3681
  101OSM   H16F10263   2.731   6.284   8.900  0.3052  0.6433 -0.1586
  101OSM   H16G10264   2.823   6.134   8.909 -5.0239  0.9944 -0.5234
  101OSM   C17F10265   2.917   6.289   8.782  0.6840 -0.5360 -0.0390
  101OSM   H17F10266   3.017   6.241   8.779 -0.3387 -2.9559  1.1995
  101OSM   H17G10267   2.924   6.397   8.806  1.7239 -0.6428  0.2004
  101OSM   C18F10268   2.860   6.241   8.646  0.0844  0.2631 -0.7933
  101OSM   H18F10269   2.877   6.131   8.640  0.0961  0.1908  0.5031
  101OSM   H18G10270   2.925   6.297   8.575 -0.9656  2.6829  0.0495
  101OSM   H18H10271   2.752   6.266   8.639 -0.4427 -1.4248  0.6671
  102OSM      N10272   2.200   0.106  11.365  0.7425 -0.4943  0.4007
  102OSM    C1510273   2.118   0.231  11.333 -0.6183 -0.5334  0.7187
  102OSM   H15A10274   2.193   0.308  11.323 -0.6499 -0.6261 -0.3993
  102OSM   H15B10275   2.041   0.253  11.406 -1.7295  1.1941 -0.8707
  102OSM   H15C10276   2.065   0.231  11.238 -0.4171  3.2022  0.4730
  102OSM    C1410277   2.290   0.140  11.477 -0.0611  1.0531 -0.8178
  102OSM   H14A10278   2.230   0.147  11.567  2.9619  0.8603  1.3636
  102OSM   H14B10279   2.340   0.234  11.458  0.1765  0.6191 -2.5431
  102OSM   H14C10280   2.367   0.066  11.494  0.0884  1.4085  0.1018
  102OSM    C1310281   2.103  -0.002  11.400 -0.0641  0.1123  0.2812
  102OSM   H13A10282   2.049   0.016  11.492 -1.7397 -0.6364 -0.5167
  102OSM   H13B10283   2.157  -0.096  11.400  0.5563  0.4511 -0.9171
  102OSM   H13C10284   2.037  -0.017  11.316  0.8288  1.7943 -0.7723
  102OSM    C1210285   2.295   0.080  11.254  0.0342  0.8098  0.7229
  102OSM   H12A10286   2.354  -0.005  11.285 -0.4381  0.2803  0.1985
  102OSM   H12B10287   2.362   0.163  11.236 -0.8649  0.9807 -2.4523
  102OSM    C1110288   2.234   0.047  11.117 -0.1112  0.1358 -0.9491
  102OSM   H11A10289   2.166  -0.040  11.126  1.3484 -0.9848 -0.5167
  102OSM   H11B10290   2.313   0.010  11.049  1.0687 -0.3633  0.6399
  102OSM      P10291   2.245   0.288  11.012 -0.1333 -0.0479 -0.2374
  102OSM    O1310292   2.138   0.379  10.971  0.3400  0.1603  0.7730
  102OSM    O1410293   2.349   0.336  11.108 -0.8081  0.1477  0.0817
  102OSM    O1110294   2.320   0.243  10.876 -0.1245 -0.1666 -1.0619
  102OSM    O1210295   2.166   0.158  11.058 -0.3785  0.3365  0.1242
  102OSM    C1S10296   2.240   0.152  10.795 -0.5540  0.0544  0.5355
  102OSM    H1S10297   2.132   0.175  10.791 -0.7330 -0.9106 -1.7125
  102OSM    H1T10298   2.262   0.047  10.825 -0.7628  0.2283  1.3227
  102OSM     NF10299   2.179   0.074  10.569  0.1751  0.0805 -0.0077
  102OSM    HNF10300   2.203  -0.021  10.553 -0.1915 -0.0014 -0.0781
  102OSM    C2S10301   2.275   0.155  10.637  0.3407  0.2091  0.5201
  102OSM    H2S10302   2.252   0.260  10.606  0.4107  0.3495  0.9305
  102OSM    C3S10303   2.418   0.115  10.611  0.8507 -0.2361 -0.1707
  102OSM    H3S10304   2.430   0.005  10.629  2.9240  0.1413  1.0714
  102OSM     O310305   2.513   0.166  10.707 -0.1994 -0.0412  0.4734
  102OSM    HO310306   2.458   0.195  10.780  0.7804  0.9967  0.8119
  102OSM    C4S10307   2.469   0.144  10.468 -1.1405 -0.1503  0.0558
  102OSM    H4S10308   2.501   0.249  10.469 -2.0242  0.1314  1.4118
  102OSM    C5S10309   2.499   0.060  10.365  0.0457 -0.3274  0.5450
  102OSM    H5S10310   2.475  -0.048  10.371 -3.1209  0.1407 -1.3695
  102OSM    C6S10311   2.548   0.101  10.226 -0.5914  0.1519  0.2873
  102OSM    H6S10312   2.657   0.090  10.213 -0.5741  0.5652  0.0681
  102OSM    H6T10313   2.526   0.210  10.220  1.3413  0.6044  0.8596
  102OSM    C7S10314   2.462   0.037  10.111 -0.3549  0.1105 -0.1850
  102OSM    H7S10315   2.352   0.030  10.123 -0.5050  0.2119 -1.3319
  102OSM    H7T10316   2.491  -0.069  10.096 -1.0065 -0.1960  0.6641
  102OSM    C8S10317   2.497   0.106   9.985  0.3297 -0.4624  0.0072
  102OSM    H8S10318   2.604   0.112   9.956 -0.0415  0.1429 -1.2683
  102OSM    H8T10319   2.471   0.213   9.999 -0.5229 -0.5420 -0.9148
  102OSM    C9S10320   2.410   0.057   9.867 -0.5384 -0.2966 -0.0034
  102OSM    H9S10321   2.303   0.055   9.896 -0.3752  0.1791  0.6580
  102OSM    H9T10322   2.446  -0.046   9.846  0.3971  0.0920 -0.3299
  102OSM   C10S10323   2.435   0.144   9.746 -0.2337  0.0390 -0.1556
  102OSM   H10S10324   2.545   0.156   9.735 -0.2662 -0.5580 -1.2275
  102OSM   H10T10325   2.398   0.244   9.779 -0.9626 -0.4352  0.5053
  102OSM   C11S10326   2.374   0.114   9.607 -0.3340  0.2060  1.0766
  102OSM   H11S10327   2.264   0.096   9.612 -0.9978  3.8476  2.8405
  102OSM   H11T10328   2.425   0.021   9.572  1.4844  1.2339  0.9104
  102OSM   C12S10329   2.390   0.230   9.505 -0.0711 -0.8228 -0.2253
  102OSM   H12S10330   2.499   0.241   9.486 -0.4861  3.2651 -1.1275
  102OSM   H12T10331   2.355   0.326   9.548  0.4110 -0.3049 -0.9676
  102OSM   C13S10332   2.301   0.216   9.384 -0.1362  0.0104 -0.1107
  102OSM   H13S10333   2.196   0.201   9.418 -1.2387  1.6610 -2.5245
  102OSM   H13T10334   2.345   0.132   9.327  1.5992 -0.9460  2.4352
  102OSM   C14S10335   2.305   0.342   9.298  0.6161  0.4148  0.2414
  102OSM   H14S10336   2.412   0.355   9.274  1.1429 -1.9200  1.1037
  102OSM   H14T10337   2.275   0.433   9.354 -0.0788  1.2767 -1.4745
  102OSM   C15S10338   2.208   0.336   9.182  0.3193 -0.2060  0.1095
  102OSM   H15S10339   2.105   0.322   9.222  0.4196  0.8464  0.7785
  102OSM   H15T10340   2.222   0.249   9.114  0.4266 -0.8300  0.9041
  102OSM   C16S10341   2.227   0.465   9.106 -0.3383 -0.2487 -0.2822
  102OSM   H16S10342   2.328   0.467   9.059  0.2685 -0.8302  0.9444
  102OSM   H16T10343   2.215   0.552   9.174 -0.6941  0.4481 -1.2097
  102OSM   C17S10344   2.120   0.481   9.003  0.7505 -0.3464  0.5439
  102OSM   H17S10345   2.144   0.557   8.926  0.6570 -1.0103 -0.1565
  102OSM   H17T10346   2.022   0.505   9.051  0.6297 -0.4416  0.3485
  102OSM   C18S10347   2.098   0.353   8.916  0.5617  0.1118  0.4476
  102OSM   H18S10348   2.044   0.281   8.980 -3.9456  0.6248 -2.3977
  102OSM   H18T10349   2.194   0.313   8.877  0.7100  0.1917  0.7258
  102OSM   H18U10350   2.022   0.374   8.838 -0.5589 -0.4344  1.3791
  102OSM    C1F10351   2.053   0.106  10.538  0.1187 -0.0545 -0.1360
  102OSM     OF10352   2.013   0.216  10.577  0.7970 -0.5170  0.2727
  102OSM    C2F10353   1.960   0.005  10.472  0.0198 -0.3319  0.6074
  102OSM    H2F10354   1.859   0.014  10.518 -0.2487 -0.9117  0.1510
  102OSM    H2G10355   2.003  -0.095  10.497  1.0223  0.0839  0.5825
  102OSM    C3F10356   1.943   0.038  10.318 -0.2103  0.4282 -0.4019
  102OSM    H3F10357   1.907   0.143  10.317 -0.1998  0.4366  0.0624
  102OSM    H3G10358   1.866  -0.035  10.283 -0.7496  0.3129  0.9818
  102OSM    C4F10359   2.069   0.032  10.240 -0.7119  0.8457 -0.2302
  102OSM    H4F10360   2.115  -0.063  10.272  0.6043  1.6485  0.3421
  102OSM    H4G10361   2.140   0.115  10.261 -1.3793  1.2375  0.5181
  102OSM    C5F10362   2.054   0.037  10.087  0.2677  0.0114 -0.8288
  102OSM    H5F10363   2.042  -0.069  10.056 -1.8626  0.2866 -1.1010
  102OSM    H5G10364   2.145   0.072  10.033 -0.8617  1.8858 -1.6379
  102OSM    C6F10365   1.935   0.108  10.029 -0.1722  0.2753  0.3445
  102OSM    H6F10366   1.927   0.215  10.056 -2.4173  0.4716 -0.8649
  102OSM    H6G10367   1.852   0.048  10.072 -0.2041 -1.1268 -1.5382
  102OSM    C7F10368   1.913   0.084   9.883 -0.2843  0.8724 -0.2649
  102OSM    H7F10369   1.809   0.116   9.863 -0.1637  2.1817  1.0887
  102OSM    H7G10370   1.936  -0.024   9.867 -1.6969  0.4192  0.5971
  102OSM    C8F10371   2.005   0.173   9.789  0.1875  0.0751  0.0415
  102OSM    H8F10372   2.111   0.164   9.820  0.0561  2.3784  1.3453
  102OSM    H8G10373   1.995   0.281   9.812  0.8755 -0.0185  0.8147
  102OSM    C9F10374   1.982   0.141   9.648 -0.3526  0.6455 -0.2538
  102OSM    H9F10375   2.049   0.071   9.597 -0.8807 -0.1641  0.1471
  102OSM   C10F10376   1.886   0.190   9.570 -0.2874 -0.2618 -0.3724
  102OSM   H10F10377   1.874   0.159   9.465  0.9960 -0.3695 -0.4995
  102OSM   C11F10378   1.778   0.287   9.621  0.2453 -0.0939  0.5947
  102OSM   H11F10379   1.821   0.355   9.698  0.2627  2.1348 -1.2676
  102OSM   H11G10380   1.696   0.238   9.678  0.0435 -1.3376 -0.7129
  102OSM   C12F10381   1.724   0.365   9.507 -0.5457  0.1709  0.5581
  102OSM   H12F10382   1.642   0.427   9.548 -1.4340  0.5285 -1.6237
  102OSM   H12G10383   1.684   0.301   9.426  0.7287  0.4483 -0.3311
  102OSM   C13F10384   1.829   0.469   9.449 -0.0820 -0.0997  0.3490
  102OSM   H13F10385   1.927   0.420   9.432 -0.2863 -0.4767  0.2434
  102OSM   H13G10386   1.851   0.536   9.535  1.2468 -0.4856  0.3280
  102OSM   C14F10387   1.773   0.541   9.330  0.2200 -0.2056  0.0061
  102OSM   H14F10388   1.670   0.578   9.352  0.1663  0.1829 -0.8493
  102OSM   H14G10389   1.756   0.465   9.251 -0.0642 -0.1408  0.0034
  102OSM   C15F10390   1.855   0.658   9.267  0.4777 -0.1725  0.0732
  102OSM   H15F10391   1.957   0.622   9.240  0.2955 -1.5703  1.1712
  102OSM   H15G10392   1.877   0.725   9.353 -0.2527 -1.4246  1.2530
  102OSM   C16F10393   1.775   0.733   9.159 -1.0542  0.4706  0.2537
  102OSM   H16F10394   1.691   0.790   9.202 -1.6105  0.5044 -0.8550
  102OSM   H16G10395   1.731   0.651   9.098  0.3230  0.7121 -1.1237
  102OSM   C17F10396   1.863   0.822   9.076 -0.1833 -0.2748  0.1505
  102OSM   H17F10397   1.939   0.760   9.024  0.7712 -1.1572  2.4314
  102OSM   H17G10398   1.920   0.893   9.139  1.2599 -1.7524  0.5798
  102OSM   C18F10399   1.784   0.894   8.964 -0.1633  0.6385  0.4204
  102OSM   H18F10400   1.845   0.965   8.904  0.1834  0.2303  0.2794
  102OSM   H18G10401   1.696   0.955   8.993 -1.0536  0.1645 -1.2036
  102OSM   H18H10402   1.748   0.815   8.896 -0.7169  0.2886  1.1074
  103OSM      N10403   2.660   1.531  10.928 -0.3468  0.3881  0.1418
  103OSM    C1510404   2.633   1.432  11.036 -0.3087  0.3188  0.1469
  103OSM   H15A10405   2.685   1.341  11.012  1.5592  1.5809 -0.8449
  103OSM   H15B10406   2.531   1.400  11.048 -0.1338 -0.6549 -0.7613
  103OSM   H15C10407   2.673   1.461  11.132 -4.3663  0.6820  1.9260
  103OSM    C1410408   2.801   1.569  10.927 -0.1268 -0.9615 -0.6047
  103OSM   H14A10409   2.821   1.642  10.851  1.5026 -1.5518 -0.7882
  103OSM   H14B10410   2.861   1.480  10.912  0.7838 -0.4359 -0.1908
  103OSM   H14C10411   2.833   1.609  11.022  2.3936 -0.5695 -1.5357
  103OSM    C1310412   2.640   1.461  10.797 -0.2954 -0.2475 -0.8311
  103OSM   H13A10413   2.721   1.391  10.783  0.6289  1.1671 -3.1302
  103OSM   H13B10414   2.653   1.531  10.716  0.0041 -0.0636 -0.6242
  103OSM   H13C10415   2.539   1.425  10.781 -0.4191  0.3277 -1.3919
  103OSM    C1210416   2.577   1.659  10.940 -0.1412  0.1396  0.3157
  103OSM   H12A10417   2.599   1.698  11.038  2.4129 -2.8462  1.1397
  103OSM   H12B10418   2.472   1.638  10.931 -0.4375  1.3812  0.8100
  103OSM    C1110419   2.607   1.774  10.849 -0.2317  0.0448  0.1667
  103OSM   H11A10420   2.527   1.847  10.872 -2.1329 -1.7223 -0.5562
  103OSM   H11B10421   2.583   1.748  10.744 -1.5872  1.0545  0.2038
  103OSM      P10422   2.771   1.942  10.972 -0.0761  0.1304 -0.3267
  103OSM    O1310423   2.682   1.903  11.085 -0.1364  0.2051 -0.2863
  103OSM    O1410424   2.914   1.952  11.006 -0.0721  0.2093  0.5052
  103OSM    O1110425   2.716   2.076  10.916  0.3374 -0.1100 -0.2097
  103OSM    O1210426   2.738   1.836  10.860 -0.0920 -0.4180 -0.0813
  103OSM    C1S10427   2.792   2.146  10.812  0.2378  0.6440 -0.5118
  103OSM    H1S10428   2.903   2.135  10.813  0.0987 -1.2985 -1.6852
  103OSM    H1T10429   2.777   2.255  10.826  0.2753  0.4618  1.2073
  103OSM     NF10430   2.849   2.186  10.580 -0.5017 -0.3849  0.4256
  103OSM    HNF10431   2.835   2.281  10.551 -0.0735 -0.3597  0.2914
  103OSM    C2S10432   2.747   2.119  10.660 -1.0124 -0.5444  0.3779
  103OSM    H2S10433   2.753   2.009  10.651  0.6884 -0.6854  2.5278
  103OSM    C3S10434   2.603   2.182  10.648 -0.4568 -0.0636 -0.5362
  103OSM    H3S10435   2.603   2.291  10.673 -1.6203 -0.4504  1.3799
  103OSM     O310436   2.508   2.133  10.746 -0.0440 -0.0288  0.7372
  103OSM    HO310437   2.565   2.093  10.812 -0.4824  2.7167  2.9433
  103OSM    C4S10438   2.551   2.158  10.516  0.6449  0.5799 -0.5308
  103OSM    H4S10439   2.577   2.062  10.469  2.9586  0.3462  1.0702
  103OSM    C5S10440   2.498   2.246  10.435 -0.1486 -0.6079 -0.3332
  103OSM    H5S10441   2.512   2.353  10.455  2.5407 -0.8326 -0.6735
  103OSM    C6S10442   2.451   2.216  10.294  0.6946  0.6275 -0.2278
  103OSM    H6S10443   2.455   2.106  10.287  0.5951  0.6246 -0.2435
  103OSM    H6T10444   2.515   2.252  10.211 -0.8152  2.5074 -0.6710
  103OSM    C7S10445   2.306   2.249  10.268  0.3663 -0.3107  0.7222
  103OSM    H7S10446   2.295   2.358  10.249  0.9712 -0.2123  0.9288
  103OSM    H7T10447   2.256   2.216  10.361 -0.6730  0.6129  0.5186
  103OSM    C8S10448   2.249   2.182  10.141  0.0467  0.5758 -0.1764
  103OSM    H8S10449   2.141   2.204  10.151 -0.2879 -1.1085  0.1883
  103OSM    H8T10450   2.262   2.072  10.153  0.2627  0.7995  1.9436
  103OSM    C9S10451   2.321   2.234  10.017  0.0798 -0.1441 -0.2182
  103OSM    H9S10452   2.418   2.185   9.994  0.0625 -0.6166  0.6666
  103OSM    H9T10453   2.351   2.338  10.044 -0.3704 -1.0304  4.6598
  103OSM   C10S10454   2.227   2.239   9.895 -0.0935 -0.0993  0.9583
  103OSM   H10S10455   2.174   2.336   9.903 -0.8983 -0.6486  3.1334
  103OSM   H10T10456   2.158   2.151   9.897  0.4497 -0.5704 -0.0728
  103OSM   C11S10457   2.308   2.241   9.766  0.5462 -0.2637  0.1849
  103OSM   H11S10458   2.373   2.151   9.773  0.8931  0.0373  0.9898
  103OSM   H11T10459   2.370   2.333   9.775 -0.5691  0.5641 -0.3015
  103OSM   C12S10460   2.229   2.251   9.627 -1.1838  0.3664 -0.5437
  103OSM   H12S10461   2.138   2.189   9.643 -1.4087  1.3611  2.5490
  103OSM   H12T10462   2.295   2.209   9.548 -0.4872 -2.2041  1.2723
  103OSM   C13S10463   2.223   2.393   9.594  0.2793 -1.0268  0.9028
  103OSM   H13S10464   2.316   2.428   9.545 -1.4170  0.2126 -1.7279
  103OSM   H13T10465   2.204   2.448   9.688 -0.2919 -0.2335  0.3472
  103OSM   C14S10466   2.105   2.424   9.483 -0.4437  0.0485 -0.0700
  103OSM   H14S10467   2.077   2.531   9.477  0.2867  0.3747  1.7609
  103OSM   H14T10468   2.012   2.371   9.511 -1.2688  1.7199  0.4586
  103OSM   C15S10469   2.150   2.370   9.346 -0.1445 -0.8068 -0.0503
  103OSM   H15S10470   2.140   2.259   9.349  0.8447 -0.8821  1.0295
  103OSM   H15T10471   2.257   2.382   9.321 -0.4975  0.8843 -0.8720
  103OSM   C16S10472   2.062   2.423   9.234 -0.1021  0.3253  0.3364
  103OSM   H16S10473   1.952   2.410   9.244 -0.1344  1.5785  1.9842
  103OSM   H16T10474   2.094   2.374   9.139  0.1890 -0.4682  0.8299
  103OSM   C17S10475   2.069   2.576   9.209 -0.5634  0.5582  0.7691
  103OSM   H17S10476   2.177   2.603   9.207 -0.6111  0.7035 -0.6864
  103OSM   H17T10477   2.013   2.639   9.281  0.9093  2.0886  0.6260
  103OSM   C18S10478   2.009   2.601   9.070  0.4268  0.1462 -0.3032
  103OSM   H18S10479   1.990   2.709   9.051 -0.2751  0.1846  0.5509
  103OSM   H18T10480   1.912   2.548   9.066  0.0220  0.6574  1.6710
  103OSM   H18U10481   2.080   2.558   8.997  1.3409 -1.7156  1.5961
  103OSM    C1F10482   2.963   2.127  10.557 -0.3368  0.0101  0.2035
  103OSM     OF10483   2.983   2.014  10.591  1.4091 -0.1054 -0.2974
  103OSM    C2F10484   3.072   2.208  10.495  0.1240  0.5056 -0.2118
  103OSM    H2F10485   3.157   2.201  10.566  1.2373  1.5383 -1.3955
  103OSM    H2G10486   3.061   2.318  10.483  0.8230  0.7181  0.9404
  103OSM    C3F10487   3.101   2.159  10.350  0.2188  0.0126  0.1289
  103OSM    H3F10488   3.114   2.049  10.360  0.4174 -0.0197 -0.4505
  103OSM    H3G10489   3.195   2.207  10.314  0.7625 -1.5176 -0.6237
  103OSM    C4F10490   2.991   2.183  10.242  0.5367 -0.5062 -0.4963
  103OSM    H4F10491   2.964   2.291  10.247 -0.4892 -0.6849 -1.9495
  103OSM    H4G10492   2.898   2.131  10.271 -0.9849  2.5934  0.6780
  103OSM    C5F10493   3.028   2.136  10.106 -0.1849  0.0384  0.1447
  103OSM    H5F10494   3.037   2.026  10.114  1.7956  0.2024  0.7809
  103OSM    H5G10495   3.125   2.175  10.069  0.1952 -1.6777 -0.7441
  103OSM    C6F10496   2.911   2.159  10.009 -0.2533 -1.0335 -0.1082
  103OSM    H6F10497   2.881   2.266  10.011  1.9308 -0.3311 -1.2233
  103OSM    H6G10498   2.819   2.116  10.053 -0.3203  0.7161  1.6142
  103OSM    C7F10499   2.938   2.107   9.869 -0.0538 -0.4335 -0.1290
  103OSM    H7F10500   2.954   1.998   9.872 -0.9860 -0.5631  1.0397
  103OSM    H7G10501   3.036   2.148   9.838  0.6804  0.0556  2.5577
  103OSM    C8F10502   2.820   2.121   9.768  0.1727  0.3190 -0.0298
  103OSM    H8F10503   2.725   2.099   9.822 -0.3617  1.1466 -0.6054
  103OSM    H8G10504   2.838   2.055   9.681 -1.6834 -0.6529  0.2757
  103OSM    C9F10505   2.809   2.256   9.716 -0.2095 -0.0143  0.2506
  103OSM    H9F10506   2.880   2.330   9.758 -0.9321 -0.5787  2.5951
  103OSM   C10F10507   2.738   2.291   9.606 -0.1490  0.1944  0.8199
  103OSM   H10F10508   2.741   2.396   9.572 -0.2066 -0.0444  0.0565
  103OSM   C11F10509   2.650   2.198   9.524 -0.3162 -0.1847 -0.2360
  103OSM   H11F10510   2.546   2.205   9.563 -0.0528  0.0227  0.4342
  103OSM   H11G10511   2.676   2.092   9.544 -0.9122 -0.1188  0.9958
  103OSM   C12F10512   2.638   2.232   9.374 -0.0582  0.5811 -0.3917
  103OSM   H12F10513   2.741   2.234   9.332 -0.5136 -2.0963 -1.9037
  103OSM   H12G10514   2.595   2.332   9.355 -1.6699 -0.1059 -0.4815
  103OSM   C13F10515   2.569   2.117   9.296 -0.3970 -0.5285 -0.4515
  103OSM   H13F10516   2.624   2.025   9.327  1.0727  0.6012  0.4570
  103OSM   H13G10517   2.462   2.100   9.320 -0.4310 -1.7302 -1.3780
  103OSM   C14F10518   2.588   2.135   9.147  0.4572  0.1712  0.0287
  103OSM   H14F10519   2.537   2.047   9.102  0.5768 -0.1827  0.5848
  103OSM   H14G10520   2.694   2.142   9.113  0.2589  2.3459 -0.2989
  103OSM   C15F10521   2.516   2.262   9.098 -0.8673  0.5361  0.1169
  103OSM   H15F10522   2.555   2.359   9.136  1.9005  0.2781 -1.7390
  103OSM   H15G10523   2.409   2.258   9.124 -0.5780  1.2763  1.4917
  103OSM   C16F10524   2.525   2.245   8.947 -0.2236  0.0717  0.3379
  103OSM   H16F10525   2.460   2.161   8.914  1.3220 -0.4718 -1.5107
  103OSM   H16G10526   2.630   2.221   8.920  0.1633  2.8454 -0.9501
  103OSM   C17F10527   2.504   2.378   8.869  0.2749 -0.1355 -0.1878
  103OSM   H17F10528   2.539   2.374   8.764  0.3975  2.3492 -0.2902
  103OSM   H17G10529   2.573   2.454   8.912 -1.5257  1.9815 -0.8649
  103OSM   C18F10530   2.364   2.437   8.879  0.5645  0.3875  0.2774
  103OSM   H18F10531   2.335   2.499   8.966 -1.1867  0.0549 -0.0265
  103OSM   H18G10532   2.287   2.359   8.863  0.4964  0.1733  1.5752
  103OSM   H18H10533   2.354   2.498   8.786 -1.4926 -1.8811 -1.0891
  104OSM      N10534   6.548   0.237  10.985  0.0108 -0.4117  0.5446
  104OSM    C1510535   6.502   0.362  11.063  0.5611 -0.0050 -0.3800
  104OSM   H15A10536   6.537   0.351  11.164 -3.1355  1.2920  1.2021
  104OSM   H15B10537   6.394   0.365  11.067  0.5054 -1.5747 -0.1178
  104OSM   H15C10538   6.549   0.449  11.018  2.1184  0.0165  1.1882
  104OSM    C1410539   6.494   0.121  11.063  0.7854 -0.7213  0.4447
  104OSM   H14A10540   6.553   0.112  11.153 -0.6903 -1.3072  1.3849
  104OSM   H14B10541   6.518   0.037  10.998  1.8723  0.1409 -0.3158
  104OSM   H14C10542   6.386   0.125  11.068  0.5522 -3.5158 -0.5708
  104OSM    C1310543   6.487   0.238  10.847  0.2857 -0.6687 -0.0436
  104OSM   H13A10544   6.379   0.235  10.856  0.3992 -3.3296  1.2250
  104OSM   H13B10545   6.505   0.141  10.804  2.2850 -1.3746  2.1417
  104OSM   H13C10546   6.532   0.315  10.786 -2.1885  1.9914  1.2352
  104OSM    C1210547   6.697   0.224  10.972  0.6237  0.2559 -0.2193
  104OSM   H12A10548   6.731   0.208  11.074  0.2886  1.7605  0.1526
  104OSM   H12B10549   6.738   0.317  10.935 -1.0513  1.3340  0.4808
  104OSM    C1110550   6.754   0.104  10.895  0.5549 -0.1744 -0.7246
  104OSM   H11A10551   6.734   0.140  10.791 -0.4722  0.5840 -0.2802
  104OSM   H11B10552   6.706   0.011  10.932  1.7835 -0.6448 -0.2592
  104OSM      P10553   6.972  -0.031  10.894  0.1751  0.1492  0.3715
  104OSM    O1310554   7.099  -0.010  10.970 -0.2222 -0.3074  0.3905
  104OSM    O1410555   6.893  -0.142  10.953  0.3691 -0.2502 -0.5181
  104OSM    O1110556   6.997  -0.054  10.739  0.1915  0.3308 -0.0052
  104OSM    O1210557   6.895   0.101  10.917 -0.2205 -0.9208 -0.0615
  104OSM    C1S10558   7.058   0.053  10.665  0.2633  0.3484 -0.3709
  104OSM    H1S10559   7.157   0.087  10.702  0.5066  0.7589 -1.3815
  104OSM    H1T10560   6.986   0.138  10.664 -0.9707 -0.6606 -1.6806
  104OSM     NF10561   7.164   0.103  10.445  0.2874  0.1026  0.0688
  104OSM    HNF10562   7.121   0.141  10.364 -1.0619 -0.0230  0.6976
  104OSM    C2S10563   7.084   0.005  10.520  0.2787  0.0734  0.7254
  104OSM    H2S10564   7.137  -0.092  10.532  2.1301  0.8882 -0.4063
  104OSM    C3S10565   6.948  -0.024  10.448  0.2150 -0.3423 -0.2036
  104OSM    H3S10566   6.898   0.076  10.443  1.1728  0.1232 -0.8184
  104OSM     O310567   6.863  -0.096  10.531  0.6359  0.0414  0.0517
  104OSM    HO310568   6.916  -0.089  10.610  0.1603  2.0003  0.2578
  104OSM    C4S10569   6.951  -0.069  10.308  0.0558  0.2133  0.3510
  104OSM    H4S10570   6.966   0.018  10.243  0.9670  0.8775  1.4169
  104OSM    C5S10571   6.933  -0.197  10.262  0.9253 -0.3077 -0.4182
  104OSM    H5S10572   6.924  -0.274  10.340  1.6956  1.5194  1.5702
  104OSM    C6S10573   6.933  -0.262  10.129  0.0494 -0.3015 -0.0511
  104OSM    H6S10574   6.827  -0.292  10.113 -0.9465  2.1827  1.1593
  104OSM    H6T10575   7.003  -0.347  10.116  0.6536  0.1668  0.0685
  104OSM    C7S10576   6.959  -0.160  10.015 -0.7511 -0.0227 -0.4882
  104OSM    H7S10577   7.057  -0.109  10.024  0.3402 -2.1007 -0.0596
  104OSM    H7T10578   6.878  -0.084  10.008 -2.5228 -1.9573 -2.6430
  104OSM    C8S10579   6.940  -0.227   9.880 -0.3118 -0.3565 -0.1659
  104OSM    H8S10580   6.843  -0.280   9.868 -1.6798  2.1836 -1.0582
  104OSM    H8T10581   7.032  -0.285   9.861  0.3975  0.6770  0.0607
  104OSM    C9S10582   6.936  -0.113   9.768 -0.0902  0.6184  0.1672
  104OSM    H9S10583   7.034  -0.061   9.782 -1.1665  3.1534 -1.0772
  104OSM    H9T10584   6.847  -0.048   9.783 -0.9303 -0.4361 -0.1471
  104OSM   C10S10585   6.922  -0.177   9.629 -0.7378 -0.7784 -0.9001
  104OSM   H10S10586   6.828  -0.236   9.632 -0.2524 -1.6297  3.4114
  104OSM   H10T10587   7.003  -0.252   9.615  0.7478  0.4431  0.6689
  104OSM   C11S10588   6.914  -0.068   9.520 -0.3643 -0.1164  0.7591
  104OSM   H11S10589   6.995   0.006   9.538  0.3629 -0.8531  0.5766
  104OSM   H11T10590   6.817  -0.019   9.542  0.3387  1.1791  1.0670
  104OSM   C12S10591   6.911  -0.118   9.375  0.2147  0.5150 -0.1086
  104OSM   H12S10592   6.838  -0.201   9.361  2.5398 -1.6852  0.1075
  104OSM   H12T10593   7.007  -0.173   9.364  0.7188  1.1009  1.1664
  104OSM   C13S10594   6.903  -0.007   9.275 -0.4768 -0.2537 -0.3855
  104OSM   H13S10595   7.000   0.047   9.280 -0.4206 -0.2034 -1.5729
  104OSM   H13T10596   6.823   0.064   9.304 -0.5298 -0.5513  0.1951
  104OSM   C14S10597   6.901  -0.054   9.125  0.0389  0.7351  0.0188
  104OSM   H14S10598   6.816  -0.125   9.118 -0.5203  1.0305  2.6767
  104OSM   H14T10599   6.995  -0.108   9.100  1.0094  1.6113  1.6279
  104OSM   C15S10600   6.874   0.053   9.020 -0.1461  0.1609  1.0859
  104OSM   H15S10601   6.940   0.138   9.048  1.4296 -1.3959  2.2936
  104OSM   H15T10602   6.771   0.095   9.012  0.3235  1.2503  0.5460
  104OSM   C16S10603   6.922   0.003   8.879 -0.2935  0.0288  0.5534
  104OSM   H16S10604   6.871  -0.092   8.852  0.7035 -0.3735  0.0001
  104OSM   H16T10605   7.028  -0.027   8.893 -0.8351 -0.8415  3.2619
  104OSM   C17S10606   6.887   0.111   8.767  0.4199 -0.3421 -0.4173
  104OSM   H17S10607   6.946   0.201   8.795 -1.9336  1.2175 -0.1752
  104OSM   H17T10608   6.777   0.128   8.767  0.2694 -1.2525 -1.4957
  104OSM   C18S10609   6.927   0.068   8.625 -0.6221 -1.0430  0.2420
  104OSM   H18S10610   6.969   0.155   8.571 -1.0769 -1.1044 -0.2162
  104OSM   H18T10611   6.835   0.038   8.571 -1.6993  0.6105  1.0608
  104OSM   H18U10612   7.003  -0.013   8.627  1.4866  0.8443  0.8497
  104OSM    C1F10613   7.287   0.142  10.469 -0.2239  0.2108 -0.3324
  104OSM     OF10614   7.351   0.078  10.549 -0.4203  0.5446  0.2730
  104OSM    C2F10615   7.352   0.248  10.387 -0.4264 -0.0950 -0.2019
  104OSM    H2F10616   7.345   0.224  10.279  0.3878  1.0061 -0.5125
  104OSM    H2G10617   7.457   0.233  10.421  0.2348  2.4348 -0.9696
  104OSM    C3F10618   7.318   0.394  10.422  0.2820 -0.4660  0.1688
  104OSM    H3F10619   7.209   0.406  10.403  0.3062 -0.9121 -0.3013
  104OSM    H3G10620   7.371   0.473  10.365  1.3557 -0.2177  1.4921
  104OSM    C4F10621   7.368   0.434  10.564 -0.3112 -0.8878 -0.3946
  104OSM    H4F10622   7.476   0.456  10.553  0.0769 -2.8850 -1.0775
  104OSM    H4G10623   7.351   0.359  10.645  1.3452  0.0646  0.9108
  104OSM    C5F10624   7.316   0.571  10.616  0.5300  0.0565 -0.3124
  104OSM    H5F10625   7.391   0.611  10.689  0.0647 -0.7398  0.6309
  104OSM    H5G10626   7.214   0.551  10.655  1.0095  1.6964  2.0057
  104OSM    C6F10627   7.318   0.689  10.524 -0.7314  0.0120 -0.2819
  104OSM    H6F10628   7.269   0.664  10.428  2.8478 -0.1565 -2.2497
  104OSM    H6G10629   7.416   0.738  10.503 -0.3121 -0.3557  0.7250
  104OSM    C7F10630   7.233   0.803  10.573  0.8401  0.0019 -0.5375
  104OSM    H7F10631   7.154   0.772  10.643 -0.1386  2.5047 -0.4324
  104OSM    H7G10632   7.182   0.841  10.482  4.3284  0.8286 -2.3634
  104OSM    C8F10633   7.318   0.915  10.653  0.4340  0.2784  0.3508
  104OSM    H8F10634   7.423   0.883  10.641  0.6475  1.2333 -0.4290
  104OSM    H8G10635   7.298   0.918  10.762 -0.8664 -0.4260  0.1510
  104OSM    C9F10636   7.314   1.051  10.597  0.4255 -0.0002  0.3870
  104OSM    H9F10637   7.226   1.106  10.633  0.5578  0.0291  0.6667
  104OSM   C10F10638   7.405   1.107  10.517 -0.0930 -0.1060  0.4000
  104OSM   H10F10639   7.388   1.213  10.493 -0.8528 -0.2080  0.4611
  104OSM   C11F10640   7.539   1.058  10.460 -0.2098 -0.1624  0.0446
  104OSM   H11F10641   7.528   0.948  10.443  0.8455  0.0399 -2.3833
  104OSM   H11G10642   7.621   1.086  10.529 -0.5404  2.8025 -0.6194
  104OSM   C12F10643   7.568   1.124  10.323  1.2293 -0.8884 -0.4027
  104OSM   H12F10644   7.633   1.049  10.273  1.6996 -0.4220 -0.5001
  104OSM   H12G10645   7.614   1.222  10.344  0.6658 -1.0879  2.0296
  104OSM   C13F10646   7.461   1.167  10.224  0.2383 -0.1497 -0.5526
  104OSM   H13F10647   7.394   1.244  10.269 -0.0952  0.1092 -1.4764
  104OSM   H13G10648   7.390   1.081  10.216  1.0613 -1.1047  1.4947
  104OSM   C14F10649   7.515   1.191  10.088  0.0303  0.0088 -0.0372
  104OSM   H14F10650   7.572   1.099  10.061  1.5482  0.3119  1.8909
  104OSM   H14G10651   7.578   1.282  10.086 -2.9127  2.2307 -3.3058
  104OSM   C15F10652   7.391   1.218   9.999 -0.6637  0.0286 -0.0229
  104OSM   H15F10653   7.321   1.294  10.039 -0.8914 -1.0623  1.7910
  104OSM   H15G10654   7.328   1.126  10.000  1.8649 -1.8261 -0.0662
  104OSM   C16F10655   7.432   1.258   9.855  0.5052  0.0026 -0.0677
  104OSM   H16F10656   7.512   1.334   9.858 -0.3913  1.0296 -1.3408
  104OSM   H16G10657   7.341   1.302   9.810  0.2530  0.7766  1.1413
  104OSM   C17F10658   7.478   1.149   9.763  0.2637 -0.5378 -0.2758
  104OSM   H17F10659   7.400   1.070   9.765 -0.4244  0.1312 -0.0105
  104OSM   H17G10660   7.565   1.103   9.814  0.6401  1.2686  0.7990
  104OSM   C18F10661   7.501   1.197   9.625 -0.1808 -0.2496 -0.0876
  104OSM   H18F10662   7.585   1.267   9.607  0.7803 -0.7125  2.1880
  104OSM   H18G10663   7.410   1.244   9.583 -0.7573 -0.1266  1.2270
  104OSM   H18H10664   7.519   1.108   9.562  0.5350 -1.8234  2.1891
  105OSM      N10665   6.206   6.100  11.182  0.2399 -0.5025  0.0837
  105OSM    C1510666   6.135   6.004  11.276 -0.0844  0.5707 -0.0220
  105OSM   H15A10667   6.167   6.015  11.379  2.1222 -0.5351 -0.5248
  105OSM   H15B10668   6.164   5.908  11.235 -1.5780  0.1577 -0.1942
  105OSM   H15C10669   6.029   6.025  11.273  0.2319  2.2137 -0.7402
  105OSM    C1410670   6.349   6.064  11.190 -0.5385 -0.1421 -0.6954
  105OSM   H14A10671   6.372   5.964  11.154 -0.4987  0.2311 -1.7256
  105OSM   H14B10672   6.394   6.066  11.288 -0.9446  0.0928 -0.5122
  105OSM   H14C10673   6.401   6.143  11.139 -0.7482 -0.1909 -0.9881
  105OSM    C1310674   6.170   6.093  11.039  0.1181 -0.2240 -0.2251
  105OSM   H13A10675   6.168   5.988  11.014  1.2181 -0.4116  0.4235
  105OSM   H13B10676   6.241   6.148  10.979  0.3090  1.7111  1.6311
  105OSM   H13C10677   6.071   6.136  11.023 -0.5864 -1.1018  1.5483
  105OSM    C1210678   6.187   6.243  11.236  0.2115  0.1438  1.1336
  105OSM   H12A10679   6.183   6.245  11.344  0.0381  0.9092  1.1149
  105OSM   H12B10680   6.089   6.279  11.208  1.4946  2.2749 -0.9744
  105OSM    C1110681   6.294   6.355  11.202  0.6056  0.0099  0.5399
  105OSM   H11A10682   6.392   6.327  11.245  0.7363 -2.2260 -1.0180
  105OSM   H11B10683   6.265   6.453  11.244  1.5215  1.1080 -1.2767
  105OSM      P10684   6.376   6.504  11.007 -0.4011 -0.6862  0.1336
  105OSM    O1310685   6.276   6.613  11.013  0.0376  0.2721  0.0393
  105OSM    O1410686   6.506   6.529  11.075 -0.4876 -0.2931 -0.1936
  105OSM    O1110687   6.415   6.463  10.854  0.3136  0.2101  0.5230
  105OSM    O1210688   6.320   6.371  11.064 -0.2785 -0.1439  0.3149
  105OSM    C1S10689   6.547   6.436  10.802  0.0093 -0.1935 -0.4202
  105OSM    H1S10690   6.571   6.330  10.822  1.3511  0.3692  1.3511
  105OSM    H1T10691   6.629   6.500  10.844 -0.7963 -0.0557  1.0052
  105OSM     NF10692   6.679   6.412  10.606  0.4122 -0.5169 -0.4490
  105OSM    HNF10693   6.739   6.477  10.560 -0.9067  0.3877 -0.9630
  105OSM    C2S10694   6.549   6.458  10.649  0.5244 -1.0049  0.3562
  105OSM    H2S10695   6.468   6.393  10.609 -0.1812 -1.4984  2.4424
  105OSM    C3S10696   6.527   6.609  10.612 -0.1740  0.2259  0.4144
  105OSM    H3S10697   6.603   6.671  10.663  0.2673  0.8545 -0.9640
  105OSM     O310698   6.413   6.672  10.672  0.4646 -0.1461  0.5076
  105OSM    HO310699   6.389   6.617  10.747  3.0756 -1.2677  0.6209
  105OSM    C4S10700   6.536   6.628  10.463  0.2294  0.7978  0.6811
  105OSM    H4S10701   6.630   6.602  10.412 -1.3545 -2.8335 -0.7123
  105OSM    C5S10702   6.437   6.637  10.368 -0.9017 -0.1420 -0.7104
  105OSM    H5S10703   6.332   6.616  10.394 -1.3697  0.3279 -2.1338
  105OSM    C6S10704   6.474   6.660  10.226  0.5235 -0.1055  0.2164
  105OSM    H6S10705   6.576   6.697  10.202  0.3792 -0.2933 -0.7359
  105OSM    H6T10706   6.400   6.738  10.197 -0.8503 -1.1153  0.9066
  105OSM    C7S10707   6.461   6.535  10.141  0.3413 -0.4729 -0.8487
  105OSM    H7S10708   6.363   6.486  10.128  0.2225 -0.1144 -1.3388
  105OSM    H7T10709   6.521   6.455  10.190  0.7329 -0.5070 -1.3803
  105OSM    C8S10710   6.511   6.568   9.995 -0.2003 -0.6794  0.3311
  105OSM    H8S10711   6.609   6.619  10.000 -0.4577 -0.2723  1.5412
  105OSM    H8T10712   6.432   6.636   9.956 -0.3552  1.0407  3.3850
  105OSM    C9S10713   6.530   6.439   9.911  0.4200  0.0427 -0.0262
  105OSM    H9S10714   6.438   6.379   9.897  1.2616 -1.6207  1.1759
  105OSM    H9T10715   6.600   6.371   9.964 -0.0990  1.2537  2.3511
  105OSM   C10S10716   6.576   6.457   9.769 -0.5432 -0.2665 -0.1409
  105OSM   H10S10717   6.625   6.366   9.729  1.1855 -0.7744  2.8443
  105OSM   H10T10718   6.658   6.531   9.760 -0.5911 -0.2398 -0.3584
  105OSM   C11S10719   6.464   6.505   9.668  0.2800 -0.1070  0.0536
  105OSM   H11S10720   6.433   6.608   9.695  2.4403  0.3324  1.0908
  105OSM   H11T10721   6.377   6.438   9.683 -0.0999 -0.0730 -1.7893
  105OSM   C12S10722   6.504   6.517   9.521 -0.3790  0.1452  0.0659
  105OSM   H12S10723   6.550   6.418   9.504  2.0889  1.1102  0.6538
  105OSM   H12T10724   6.578   6.600   9.511 -1.6398  1.7259  2.7575
  105OSM   C13S10725   6.395   6.535   9.413  0.0357 -0.3322 -0.5499
  105OSM   H13S10726   6.316   6.606   9.446  0.3332 -0.0261 -0.4902
  105OSM   H13T10727   6.334   6.445   9.390 -2.2133  1.6133 -2.8434
  105OSM   C14S10728   6.468   6.565   9.280  0.1653 -0.3085  0.0893
  105OSM   H14S10729   6.549   6.491   9.265  0.7886  0.3526  0.1197
  105OSM   H14T10730   6.527   6.659   9.292  1.2729 -1.0088  0.2922
  105OSM   C15S10731   6.385   6.575   9.151  0.3934 -0.3646  0.1776
  105OSM   H15S10732   6.294   6.638   9.166  0.7013  0.5572 -1.5541
  105OSM   H15T10733   6.344   6.476   9.123  0.8442  0.6013 -5.0026
  105OSM   C16S10734   6.466   6.641   9.039  0.2283 -0.2074 -0.2916
  105OSM   H16S10735   6.547   6.571   9.007 -0.2141 -1.0526  0.4100
  105OSM   H16T10736   6.513   6.733   9.081 -1.1083 -0.4057  1.7483
  105OSM   C17S10737   6.394   6.661   8.908  0.8627  0.5841 -0.1408
  105OSM   H17S10738   6.466   6.689   8.828  0.0404  0.2850 -1.0057
  105OSM   H17T10739   6.316   6.739   8.926 -2.5956 -2.0478 -2.2967
  105OSM   C18S10740   6.309   6.541   8.874  0.0218  0.2075  0.4489
  105OSM   H18S10741   6.385   6.460   8.873 -0.6988 -0.6911  4.2937
  105OSM   H18T10742   6.262   6.547   8.773 -1.4884  0.9011  1.1682
  105OSM   H18U10743   6.236   6.519   8.954  0.0885 -1.7834  0.0022
  105OSM    C1F10744   6.698   6.277  10.583  0.3016 -0.4510  0.6800
  105OSM     OF10745   6.614   6.194  10.613 -0.4873 -1.3487 -0.1511
  105OSM    C2F10746   6.842   6.237  10.543 -0.2521 -0.3104 -0.1523
  105OSM    H2F10747   6.894   6.201  10.635 -2.2533  1.1953  1.6828
  105OSM    H2G10748   6.898   6.326  10.506 -1.4167  1.3654  1.8842
  105OSM    C3F10749   6.837   6.139  10.424 -0.4945  0.1623 -0.6063
  105OSM    H3F10750   6.755   6.065  10.435  1.1208 -1.7081 -0.7059
  105OSM    H3G10751   6.932   6.081  10.428  0.0598  1.1016  0.4099
  105OSM    C4F10752   6.811   6.207  10.288  0.2405  0.8220  0.3512
  105OSM    H4F10753   6.895   6.280  10.278  0.2032  0.8155 -0.0078
  105OSM    H4G10754   6.708   6.246  10.276 -0.3897  0.1698  2.9945
  105OSM    C5F10755   6.825   6.101  10.178 -0.0754 -0.2250 -0.9267
  105OSM    H5F10756   6.741   6.029  10.180 -2.1836  2.0512  2.2555
  105OSM    H5G10757   6.921   6.044  10.175 -0.4862 -0.9319 -0.8617
  105OSM    C6F10758   6.826   6.170  10.040 -0.0956  1.1897 -0.0026
  105OSM    H6F10759   6.898   6.254  10.049 -1.6790  2.8110 -1.5059
  105OSM    H6G10760   6.725   6.212  10.021 -0.9122 -1.2634 -1.7061
  105OSM    C7F10761   6.879   6.081   9.928 -0.5611 -0.1381 -0.6467
  105OSM    H7F10762   6.827   5.986   9.902 -0.0091 -0.8975  0.9250
  105OSM    H7G10763   6.980   6.053   9.964 -0.8276  0.6601  0.8008
  105OSM    C8F10764   6.887   6.166   9.796 -0.2083 -1.0921 -0.0697
  105OSM    H8F10765   6.956   6.249   9.821 -2.1742  0.0645  1.9356
  105OSM    H8G10766   6.784   6.207   9.784 -0.6501 -1.2187  2.5876
  105OSM    C9F10767   6.924   6.083   9.674  0.3815 -1.1073  0.2920
  105OSM    H9F10768   7.026   6.041   9.674  1.2866  0.8804 -1.1041
  105OSM   C10F10769   6.845   6.042   9.578  0.2467  0.2509 -0.4550
  105OSM   H10F10770   6.894   5.983   9.499 -0.8612  0.3265 -1.2234
  105OSM   C11F10771   6.697   6.062   9.549  0.5531  0.3582  0.1747
  105OSM   H11F10772   6.647   6.102   9.640  1.2132  3.0782 -0.5575
  105OSM   H11G10773   6.647   5.967   9.522  0.7843  0.0288  0.8786
  105OSM   C12F10774   6.693   6.164   9.433  0.2752 -0.1286  0.4753
  105OSM   H12F10775   6.762   6.249   9.454  1.3425 -1.4074  2.5630
  105OSM   H12G10776   6.588   6.200   9.436  1.3446  3.6926 -0.9772
  105OSM   C13F10777   6.720   6.112   9.294 -0.3183 -0.1476 -0.5280
  105OSM   H13F10778   6.655   6.028   9.260  0.7453 -0.6330 -1.3950
  105OSM   H13G10779   6.825   6.083   9.275 -0.4187 -0.5791 -0.4355
  105OSM   C14F10780   6.708   6.214   9.178  0.1582 -0.5669  0.3065
  105OSM   H14F10781   6.756   6.176   9.085  0.5163  0.6401 -0.0176
  105OSM   H14G10782   6.770   6.303   9.200 -1.1064  1.0891 -2.2928
  105OSM   C15F10783   6.561   6.257   9.150  0.1773 -0.1454 -0.7843
  105OSM   H15F10784   6.562   6.345   9.082 -0.4692  0.2147 -0.3343
  105OSM   H15G10785   6.505   6.290   9.240  3.0699 -0.5637  1.2774
  105OSM   C16F10786   6.472   6.150   9.086 -0.3772 -0.7712  0.1913
  105OSM   H16F10787   6.482   6.062   9.153  2.0278 -0.2284  0.6306
  105OSM   H16G10788   6.509   6.125   8.985  1.1408  2.2415 -0.1197
  105OSM   C17F10789   6.323   6.182   9.079 -0.1400  0.1475  0.7468
  105OSM   H17F10790   6.314   6.254   8.994  1.8011 -2.1588 -1.5743
  105OSM   H17G10791   6.298   6.242   9.169 -0.7654 -1.0127  1.3623
  105OSM   C18F10792   6.235   6.060   9.057 -0.5839 -0.3199  0.4808
  105OSM   H18F10793   6.244   6.017   8.955  0.3444  1.3065 -0.1723
  105OSM   H18G10794   6.126   6.082   9.059 -1.1054 -2.3261 -1.9725
  105OSM   H18H10795   6.256   5.975   9.126 -1.1103  0.1122  1.1873
  106OSM      N10796   0.302   6.091  10.951 -0.5060  0.1807 -0.0603
  106OSM    C1510797   0.148   6.101  10.981  0.4031 -0.4516 -0.4261
  106OSM   H15A10798   0.123   6.092  11.085 -0.2591 -1.5127 -0.6553
  106OSM   H15B10799   0.092   6.027  10.925 -2.4850  0.9703  0.4236
  106OSM   H15C10800   0.106   6.192  10.943  1.3702 -0.1616 -0.8429
  106OSM    C1410801   0.357   6.227  10.995  0.7884  0.1855  1.0807
  106OSM   H14A10802   0.463   6.246  10.985  0.5048  2.5349  1.8263
  106OSM   H14B10803   0.323   6.253  11.094  1.1094  0.8001  1.0375
  106OSM   H14C10804   0.305   6.304  10.939  0.9875 -0.1523  0.4307
  106OSM    C1310805   0.361   5.985  11.038  0.4061 -0.5532 -0.0099
  106OSM   H13A10806   0.344   6.024  11.137 -0.0368  2.2575 -1.0988
  106OSM   H13B10807   0.469   5.985  11.034  0.3836  0.1546 -1.5811
  106OSM   H13C10808   0.323   5.884  11.025  0.2936 -0.5400  0.2114
  106OSM    C1210809   0.332   6.070  10.806 -0.6609  0.1954 -0.1834
  106OSM   H12A10810   0.438   6.054  10.793 -0.4864  0.2175  1.1073
  106OSM   H12B10811   0.308   6.164  10.757 -0.4013 -0.1291 -0.9541
  106OSM    C1110812   0.253   5.958  10.725  0.0366  0.7806 -0.2387
  106OSM   H11A10813   0.285   5.959  10.619  0.0594  1.7658 -0.2294
  106OSM   H11B10814   0.145   5.980  10.709 -0.1236  1.1516  1.2311
  106OSM      P10815   0.135   5.730  10.802  0.0399  0.4790 -0.3061
  106OSM    O1310816   0.156   5.615  10.895 -0.7154  0.0910  0.1225
  106OSM    O1410817   0.008   5.806  10.811  0.3626 -0.2470  0.2590
  106OSM    O1110818   0.150   5.676  10.650  0.1255  0.8466 -0.2446
  106OSM    O1210819   0.256   5.836  10.798  0.0634 -0.0393  0.1942
  106OSM    C1S10820   0.275   5.636  10.597 -0.6230  0.4772  0.1127
  106OSM    H1S10821   0.320   5.562  10.667  0.5218 -0.1261 -1.2173
  106OSM    H1T10822   0.340   5.726  10.593 -2.1561  1.7849  2.3085
  106OSM     NF10823   0.355   5.485  10.413 -0.4247  0.4202  0.2337
  106OSM    HNF10824   0.426   5.510  10.348 -1.5089 -2.4616 -2.3200
  106OSM    C2S10825   0.254   5.583  10.451 -0.1059 -0.0379  0.6132
  106OSM    H2S10826   0.157   5.532  10.431  0.9827 -1.2226 -2.1774
  106OSM    C3S10827   0.258   5.711  10.356 -0.1325  0.1868 -0.0445
  106OSM    H3S10828   0.353   5.766  10.370  1.5609 -2.2392 -1.2071
  106OSM     O310829   0.151   5.802  10.388  0.3355  0.1741  0.4464
  106OSM    HO310830   0.119   5.762  10.469 -0.3785 -0.6913 -0.2376
  106OSM    C4S10831   0.257   5.692  10.207 -0.0312  0.3341 -0.0758
  106OSM    H4S10832   0.166   5.646  10.168  1.6319 -2.1516 -1.2623
  106OSM    C5S10833   0.355   5.732  10.124 -0.2076 -0.1826  0.2741
  106OSM    H5S10834   0.445   5.781  10.164 -0.3140 -0.4547  0.8648
  106OSM    C6S10835   0.347   5.715   9.974 -0.2577 -0.5010  0.3108
  106OSM    H6S10836   0.449   5.707   9.932 -0.2457 -0.7980  0.3895
  106OSM    H6T10837   0.310   5.804   9.919  1.1676  0.0326  0.1849
  106OSM    C7S10838   0.289   5.585   9.918 -0.4747 -0.6198 -0.3377
  106OSM    H7S10839   0.184   5.575   9.955 -0.2726 -0.2549  0.3439
  106OSM    H7T10840   0.356   5.511   9.966 -0.3663 -0.0592  0.4022
  106OSM    C8S10841   0.286   5.584   9.770  0.1404 -0.5615  0.1184
  106OSM    H8S10842   0.255   5.683   9.729 -2.7033 -1.1478  0.6721
  106OSM    H8T10843   0.209   5.511   9.736 -0.0663 -2.0709  3.4713
  106OSM    C9S10844   0.422   5.537   9.711 -0.9514  0.1086  0.2969
  106OSM    H9S10845   0.445   5.431   9.737 -1.3838 -0.0349  0.1004
  106OSM    H9T10846   0.498   5.605   9.756  1.2510 -1.3448 -1.0012
  106OSM   C10S10847   0.439   5.563   9.566  0.1506 -0.2169 -0.2954
  106OSM   H10S10848   0.543   5.578   9.529  0.0280  1.4987 -0.0403
  106OSM   H10T10849   0.387   5.658   9.541 -3.1293 -1.5108  1.1544
  106OSM   C11S10850   0.368   5.457   9.482  0.6345  0.3705 -0.3767
  106OSM   H11S10851   0.264   5.451   9.520  0.7271 -0.9369 -0.2815
  106OSM   H11T10852   0.415   5.359   9.503  1.1252  1.0814  2.2291
  106OSM   C12S10853   0.374   5.478   9.331  0.6457  0.3342  0.6670
  106OSM   H12S10854   0.332   5.393   9.273 -1.5739  1.6105  0.2885
  106OSM   H12T10855   0.479   5.499   9.299  0.3247  1.4175  0.2700
  106OSM   C13S10856   0.276   5.595   9.301  0.2926 -0.3409  0.6186
  106OSM   H13S10857   0.322   5.683   9.350  0.6228 -1.9462  3.4160
  106OSM   H13T10858   0.178   5.579   9.352 -0.3708  1.2294 -0.1066
  106OSM   C14S10859   0.260   5.636   9.152  0.0196 -0.8147 -0.5198
  106OSM   H14S10860   0.221   5.561   9.080 -1.6848  1.9322 -2.6473
  106OSM   H14T10861   0.362   5.655   9.112  0.0200  1.7815  0.5032
  106OSM   C15S10862   0.188   5.771   9.151  0.6006  0.2324 -0.2619
  106OSM   H15S10863   0.238   5.853   9.207 -0.0023 -1.1073  2.4430
  106OSM   H15T10864   0.084   5.747   9.184  1.3584  0.3870  2.5316
  106OSM   C16S10865   0.180   5.839   9.009 -0.1423  0.3366  0.2215
  106OSM   H16S10866   0.115   5.928   9.013  1.0527  1.2191  0.6432
  106OSM   H16T10867   0.124   5.772   8.940  1.3029 -1.1696  0.4375
  106OSM   C17S10868   0.321   5.875   8.939 -0.4545  0.1590 -0.2943
  106OSM   H17S10869   0.385   5.796   8.894  0.5888  1.8852 -2.0012
  106OSM   H17T10870   0.379   5.923   9.021  0.0911 -0.2857 -0.4118
  106OSM   C18S10871   0.307   5.978   8.832  0.2799  0.1956 -0.5760
  106OSM   H18S10872   0.254   6.068   8.870  1.1523  0.3926  0.1962
  106OSM   H18T10873   0.246   5.938   8.748 -0.2888 -0.9633  0.3528
  106OSM   H18U10874   0.404   6.022   8.799 -0.5624  1.7370 -1.1289
  106OSM    C1F10875   0.371   5.368  10.478  0.1613  0.2871 -0.9100
  106OSM     OF10876   0.289   5.336  10.566 -0.1172  0.0330 -0.6190
  106OSM    C2F10877   0.492   5.280  10.448  0.0509 -0.5632  0.6469
  106OSM    H2F10878   0.535   5.227  10.536  0.5253  0.4404  1.0439
  106OSM    H2G10879   0.571   5.351  10.417  3.8593 -4.8555 -0.4601
  106OSM    C3F10880   0.475   5.182  10.332  0.7498  0.4976  0.0036
  106OSM    H3F10881   0.387   5.119  10.356  0.9543 -0.7179 -2.1853
  106OSM    H3G10882   0.565   5.116  10.339  1.0050  0.8382 -0.0688
  106OSM    C4F10883   0.472   5.229  10.190  0.0337  0.1329  0.6615
  106OSM    H4F10884   0.565   5.287  10.171  0.2099 -0.3432  0.0403
  106OSM    H4G10885   0.383   5.293  10.172  0.0170  0.6663  2.4617
  106OSM    C5F10886   0.477   5.110  10.088 -0.1686 -0.2003  0.7037
  106OSM    H5F10887   0.381   5.059  10.111 -0.3279  0.2978  1.1947
  106OSM    H5G10888   0.566   5.047  10.104  0.2880  0.9511  3.1344
  106OSM    C6F10889   0.462   5.145   9.938 -0.6544  0.5725  0.2074
  106OSM    H6F10890   0.538   5.223   9.921 -0.9473  0.6332 -0.9363
  106OSM    H6G10891   0.369   5.202   9.915 -0.1083  1.7295  0.8332
  106OSM    C7F10892   0.497   5.033   9.835  0.0607  0.6218  0.0688
  106OSM    H7F10893   0.443   4.947   9.880 -1.7255  1.7426  0.2051
  106OSM    H7G10894   0.605   5.010   9.827  0.1955  1.6294 -1.6624
  106OSM    C8F10895   0.430   5.064   9.698 -0.7037 -0.3937 -0.3901
  106OSM    H8F10896   0.452   5.167   9.663 -1.1136  0.0855  0.7234
  106OSM    H8G10897   0.322   5.067   9.720 -0.5233  0.9759  0.4603
  106OSM    C9F10898   0.473   4.963   9.600 -0.4948  0.7121  0.2362
  106OSM    H9F10899   0.486   4.862   9.643  0.6746  2.1713  3.6367
  106OSM   C10F10900   0.506   4.989   9.472  0.1631  0.2408 -0.0595
  106OSM   H10F10901   0.545   4.906   9.411 -1.9389  0.5864 -1.9998
  106OSM   C11F10902   0.495   5.112   9.387  0.5313  0.6142 -0.3025
  106OSM   H11F10903   0.538   5.204   9.431 -0.8958  1.9378 -1.5415
  106OSM   H11G10904   0.387   5.131   9.368  0.5350 -0.6296 -1.8260
  106OSM   C12F10905   0.552   5.099   9.245 -0.6003  0.0234  0.0235
  106OSM   H12F10906   0.652   5.052   9.234 -0.9135 -0.2529 -2.2998
  106OSM   H12G10907   0.576   5.198   9.201  0.8904 -0.8278 -1.1951
  106OSM   C13F10908   0.453   5.022   9.147  0.6757  0.2710 -0.1795
  106OSM   H13F10909   0.349   5.060   9.144  0.2619 -0.8772 -1.3793
  106OSM   H13G10910   0.435   4.925   9.199 -1.3032 -0.2985 -1.8065
  106OSM   C14F10911   0.507   5.014   9.002 -0.3361 -0.9243  0.0754
  106OSM   H14F10912   0.608   4.968   9.006 -0.9865 -2.3096  1.4382
  106OSM   H14G10913   0.529   5.115   8.962 -1.5051  0.1837  2.0929
  106OSM   C15F10914   0.416   4.936   8.907  0.4727  0.2341 -0.0552
  106OSM   H15F10915   0.387   4.834   8.942 -0.6451  0.0286 -1.5037
  106OSM   H15G10916   0.481   4.917   8.819  0.9055 -0.5785  0.4213
  106OSM   C16F10917   0.286   5.019   8.871 -0.0813  0.3112  0.0467
  106OSM   H16F10918   0.311   5.127   8.868  0.3290  0.2250  0.3235
  106OSM   H16G10919   0.222   4.994   8.957  1.6862 -1.1058  1.0304
  106OSM   C17F10920   0.223   4.971   8.738  0.4676 -0.0131  0.2168
  106OSM   H17F10921   0.211   4.861   8.741 -3.2957  0.2823  0.6052
  106OSM   H17G10922   0.280   5.021   8.656 -0.0945  1.2483  0.5657
  106OSM   C18F10923   0.082   5.031   8.733 -0.5135 -0.5146  0.0261
  106OSM   H18F10924   0.021   4.995   8.647 -1.9886  0.6130  0.5498
  106OSM   H18G10925   0.096   5.136   8.701  4.8953 -1.4049 -1.5857
  106OSM   H18H10926   0.036   5.013   8.832  1.5193  1.3374  1.3908
  107OSM      N10927   2.777   2.767  11.297  0.3382  0.8432  0.1976
  107OSM    C1510928   2.878   2.735  11.390  0.1147  0.3099  0.1187
  107OSM   H15A10929   2.942   2.821  11.403  0.9576 -0.4771  1.4681
  107OSM   H15B10930   2.948   2.658  11.359  0.5237  0.5042  0.5404
  107OSM   H15C10931   2.837   2.718  11.489  0.0051 -1.8923 -0.2643
  107OSM    C1410932   2.704   2.636  11.277  0.2025 -0.3603 -1.2080
  107OSM   H14A10933   2.613   2.641  11.218  0.0353 -0.5210 -0.9672
  107OSM   H14B10934   2.688   2.589  11.373  0.3442  0.7242 -0.6490
  107OSM   H14C10935   2.768   2.576  11.214 -0.9729 -0.9344 -1.9115
  107OSM    C1310936   2.687   2.865  11.370 -0.4175 -0.2839 -0.0684
  107OSM   H13A10937   2.667   2.849  11.475  0.5653  0.2604  0.2043
  107OSM   H13B10938   2.587   2.856  11.327 -2.1370  0.3405  3.4683
  107OSM   H13C10939   2.729   2.963  11.356  0.2909 -0.7961 -1.9064
  107OSM    C1210940   2.823   2.823  11.162  0.3186  0.3887  0.1713
  107OSM   H12A10941   2.918   2.782  11.131 -0.7524 -3.3528  1.2729
  107OSM   H12B10942   2.854   2.923  11.186  0.5024  0.4003 -0.1142
  107OSM    C1110943   2.728   2.828  11.043 -0.4948  0.3393  0.2102
  107OSM   H11A10944   2.696   2.725  11.019  2.1791 -0.4196 -0.4052
  107OSM   H11B10945   2.783   2.861  10.952  0.5875 -2.4954 -0.2724
  107OSM      P10946   2.627   3.072  11.051  0.6198 -0.0470 -0.2579
  107OSM    O1310947   2.490   3.126  11.080 -0.0093  0.3760 -0.2277
  107OSM    O1410948   2.747   3.118  11.130 -0.2017 -0.2053 -0.2381
  107OSM    O1110949   2.655   3.105  10.898 -0.1580 -0.6431 -0.1778
  107OSM    O1210950   2.615   2.915  11.060  0.1283  0.1294  0.1372
  107OSM    C1S10951   2.606   3.023  10.793  0.0074  0.2688  0.6865
  107OSM    H1S10952   2.498   3.042  10.783  0.1181  0.0489 -1.6318
  107OSM    H1T10953   2.615   2.914  10.812 -0.9174 -0.0517 -0.5654
  107OSM     NF10954   2.599   2.998  10.545  0.2093  0.1908 -0.2179
  107OSM    HNF10955   2.641   2.909  10.530 -0.1235  0.2857 -1.9170
  107OSM    C2S10956   2.665   3.071  10.655  0.7413  1.0306 -0.4779
  107OSM    H2S10957   2.640   3.179  10.643 -3.3751  0.3693  0.8101
  107OSM    C3S10958   2.823   3.061  10.660 -0.2044 -0.1806 -0.1263
  107OSM    H3S10959   2.843   2.952  10.669 -2.5452 -0.6859 -0.3451
  107OSM     O310960   2.886   3.117  10.773 -0.3637 -0.6291 -0.4947
  107OSM    HO310961   2.815   3.137  10.833  0.3615  1.9707 -0.3820
  107OSM    C4S10962   2.884   3.111  10.535 -0.2214 -0.5027 -0.4465
  107OSM    H4S10963   2.843   3.207  10.501 -0.9759  0.0257  1.8173
  107OSM    C5S10964   2.967   3.050  10.446 -0.4143  0.2876 -0.1449
  107OSM    H5S10965   2.997   2.945  10.454 -1.1913 -0.1895 -2.5524
  107OSM    C6S10966   3.020   3.120  10.324  0.3898 -0.2075 -0.0244
  107OSM    H6S10967   3.125   3.141  10.353  0.0380 -0.7919  1.7681
  107OSM    H6T10968   2.982   3.223  10.313  1.6092  0.1104 -1.6029
  107OSM    C7S10969   2.998   3.035  10.191 -0.4217  0.7581 -0.5734
  107OSM    H7S10970   3.043   2.934  10.196 -4.4004 -1.2605 -1.4932
  107OSM    H7T10971   3.068   3.087  10.122  0.2997 -0.3013 -0.6609
  107OSM    C8S10972   2.847   3.033  10.147  0.1112  0.7059 -0.3614
  107OSM    H8S10973   2.788   2.996  10.234  1.6709  0.3216  0.5918
  107OSM    H8T10974   2.836   2.965  10.061 -0.9329  0.4152 -0.0084
  107OSM    C9S10975   2.799   3.172  10.111  0.4317 -0.3422 -0.1179
  107OSM    H9S10976   2.866   3.208  10.030  2.3302 -0.2767  1.4204
  107OSM    H9T10977   2.808   3.245  10.194  0.1567  1.4953 -1.6491
  107OSM   C10S10978   2.659   3.175  10.056  0.6797 -0.2529  0.1684
  107OSM   H10S10979   2.613   3.276  10.061 -1.4405 -1.0767 -1.1773
  107OSM   H10T10980   2.599   3.124  10.135 -0.8698  1.5704  0.2449
  107OSM   C11S10981   2.643   3.115   9.914  0.0902  0.1959  0.2419
  107OSM   H11S10982   2.536   3.087   9.907 -0.4961  2.1716  0.4323
  107OSM   H11T10983   2.709   3.026   9.903  0.0691  0.2569 -0.4542
  107OSM   C12S10984   2.681   3.218   9.806 -0.6120 -0.2006 -0.1417
  107OSM   H12S10985   2.780   3.263   9.826 -0.4603  0.1772 -1.6244
  107OSM   H12T10986   2.602   3.295   9.820 -0.5548 -0.1895  0.1247
  107OSM   C13S10987   2.677   3.163   9.663 -0.8135 -0.1647  0.5251
  107OSM   H13S10988   2.579   3.122   9.631 -1.4348  0.7006  1.2470
  107OSM   H13T10989   2.739   3.072   9.651  0.0123  0.3593  0.7216
  107OSM   C14S10990   2.716   3.274   9.565 -0.0250 -0.0334 -0.4034
  107OSM   H14S10991   2.778   3.341   9.629  0.0071 -1.7847  1.5294
  107OSM   H14T10992   2.625   3.334   9.544  1.2468  1.3056 -2.4447
  107OSM   C15S10993   2.789   3.220   9.444 -0.4886 -0.6508  0.1648
  107OSM   H15S10994   2.739   3.124   9.416 -0.3997 -0.9973  1.1528
  107OSM   H15T10995   2.889   3.179   9.469 -0.4765 -1.5772 -1.2351
  107OSM   C16S10996   2.778   3.310   9.321 -0.1432  0.7601 -0.3145
  107OSM   H16S10997   2.851   3.263   9.252 -0.7129  0.9481 -1.0530
  107OSM   H16T10998   2.809   3.415   9.337 -0.8678  0.9875 -0.3672
  107OSM   C17S10999   2.635   3.324   9.262  0.2035 -0.0339 -0.1260
  107OSM   H17S11000   2.643   3.412   9.195 -1.1860  0.5759  0.4716
  107OSM   H17T11001   2.563   3.358   9.339  2.6130  0.8447  1.8892
  107OSM   C18S11002   2.593   3.199   9.182  1.1866  0.5969  0.3723
  107OSM   H18S11003   2.671   3.180   9.105  0.5416  0.5617 -0.2775
  107OSM   H18T11004   2.489   3.204   9.143  0.5110 -0.4053  1.9321
  107OSM   H18U11005   2.582   3.108   9.245 -0.7819 -0.9734 -2.0163
  107OSM    C1F11006   2.476   3.017  10.503  0.3032  0.0424  0.4196
  107OSM     OF11007   2.398   3.090  10.567 -0.2738  0.0046  0.9679
  107OSM    C2F11008   2.429   2.935  10.390 -0.3803 -0.6223 -0.5811
  107OSM    H2F11009   2.412   2.836  10.437 -1.7185  0.5261  1.4987
  107OSM    H2G11010   2.513   2.931  10.318  1.0034 -5.1711  0.9774
  107OSM    C3F11011   2.291   2.970  10.323 -0.0636  0.6221  0.5533
  107OSM    H3F11012   2.281   3.071  10.276 -0.6741  0.5046  0.4228
  107OSM    H3G11013   2.214   2.963  10.402  0.1482 -0.7609  0.6455
  107OSM    C4F11014   2.252   2.862  10.218 -0.1819 -0.3788 -0.4649
  107OSM    H4F11015   2.153   2.886  10.175  0.8055  1.3927 -1.8829
  107OSM    H4G11016   2.249   2.768  10.279  0.1731  1.2777  2.2924
  107OSM    C5F11017   2.338   2.854  10.091 -0.0783  0.0171  0.2074
  107OSM    H5F11018   2.437   2.835  10.138  0.2210  0.3303 -0.2954
  107OSM    H5G11019   2.346   2.953  10.040  1.9657 -0.4638 -0.4984
  107OSM    C6F11020   2.294   2.752   9.986 -0.6081  0.2715 -0.3548
  107OSM    H6F11021   2.191   2.769   9.947 -0.9717 -0.7724  0.1192
  107OSM    H6G11022   2.286   2.663  10.052 -1.1492  0.5851  0.0181
  107OSM    C7F11023   2.400   2.730   9.882  0.2657 -0.7292 -0.0531
  107OSM    H7F11024   2.390   2.627   9.841 -0.0932  0.3381 -2.9089
  107OSM    H7G11025   2.494   2.765   9.928 -0.2461  0.5928  0.0189
  107OSM    C8F11026   2.364   2.833   9.773 -0.3559 -0.0881 -0.9311
  107OSM    H8F11027   2.329   2.925   9.824 -0.1985 -1.5630  2.0595
  107OSM    H8G11028   2.279   2.789   9.717 -1.5631  2.1969 -0.9923
  107OSM    C9F11029   2.479   2.881   9.692  0.1265  0.5651 -0.1010
  107OSM    H9F11030   2.566   2.900   9.758 -1.5074 -1.1802  2.7842
  107OSM   C10F11031   2.491   2.881   9.557  0.1696  0.4517 -0.0843
  107OSM   H10F11032   2.592   2.905   9.521  1.2035 -0.9300  1.7298
  107OSM   C11F11033   2.399   2.830   9.449  0.9517 -0.7162  0.5853
  107OSM   H11F11034   2.410   2.903   9.365  3.2308  0.5322  1.8463
  107OSM   H11G11035   2.293   2.829   9.480  0.4696 -2.4510 -0.9823
  107OSM   C12F11036   2.438   2.689   9.399  0.2762  0.6095  0.3024
  107OSM   H12F11037   2.351   2.654   9.340  1.2209 -0.3668 -0.5604
  107OSM   H12G11038   2.447   2.620   9.485  2.4096 -1.1973 -1.2266
  107OSM   C13F11039   2.570   2.666   9.325 -0.0136 -0.1793 -0.5183
  107OSM   H13F11040   2.586   2.559   9.299  1.5990  0.0457 -0.5698
  107OSM   H13G11041   2.646   2.700   9.399 -1.9077  0.6415  1.1162
  107OSM   C14F11042   2.576   2.748   9.189  0.0217  0.1498  0.1273
  107OSM   H14F11043   2.582   2.856   9.213  0.0700 -0.0449  1.0039
  107OSM   H14G11044   2.497   2.714   9.118 -1.6889 -0.8287  2.3860
  107OSM   C15F11045   2.714   2.715   9.124  0.0184 -0.5496  0.3412
  107OSM   H15F11046   2.720   2.608   9.097 -2.5725 -0.2367 -1.9198
  107OSM   H15G11047   2.789   2.732   9.205 -0.3778 -1.5416  0.9285
  107OSM   C16F11048   2.744   2.815   9.014 -0.3420  0.0917  0.5465
  107OSM   H16F11049   2.855   2.818   9.009 -0.3312  2.6490  0.7826
  107OSM   H16G11050   2.702   2.913   9.047 -4.2665 -0.4555 -2.1629
  107OSM   C17F11051   2.672   2.786   8.877  0.1951  0.5587  0.2601
  107OSM   H17F11052   2.562   2.779   8.896 -0.0629  1.0239 -0.9960
  107OSM   H17G11053   2.703   2.681   8.857  0.6811  0.7784 -0.1652
  107OSM   C18F11054   2.710   2.868   8.751 -0.4403  0.2236  0.4918
  107OSM   H18F11055   2.671   2.811   8.663  0.4483 -0.2617  0.4045
  107OSM   H18G11056   2.821   2.863   8.751 -0.4175  0.5707  1.3615
  107OSM   H18H11057   2.680   2.975   8.746  0.1228  0.3456 -0.7067
  108OSM      N11058   5.262   1.240  11.157  0.4526  0.5416 -0.1933
  108OSM    C1511059   5.291   1.278  11.300  0.5000 -0.1557  1.1987
  108OSM   H15A11060   5.236   1.208  11.360  3.0139 -2.2895  1.2075
  108OSM   H15B11061   5.247   1.374  11.322 -2.4377 -1.0926 -0.0126
  108OSM   H15C11062   5.399   1.283  11.309  0.5641  1.4992  0.0588
  108OSM    C1411063   5.340   1.319  11.067  0.6382 -0.0129  0.0243
  108OSM   H14A11064   5.304   1.421  11.067 -1.1074 -0.5975 -0.2144
  108OSM   H14B11065   5.343   1.283  10.966 -2.3751  0.0800 -0.1937
  108OSM   H14C11066   5.445   1.318  11.093  0.8986 -1.6702 -0.9872
  108OSM    C1311067   5.290   1.095  11.138 -0.0932  0.4265  0.2189
  108OSM   H13A11068   5.284   1.072  11.033  0.9085 -2.7235  0.7566
  108OSM   H13B11069   5.236   1.034  11.209 -2.2048 -0.3804 -1.9448
  108OSM   H13C11070   5.396   1.078  11.152 -0.3484 -1.4960  0.0195
  108OSM    C1211071   5.111   1.273  11.123 -0.3654 -0.0734 -0.1667
  108OSM   H12A11072   5.096   1.377  11.145 -0.2561  0.5418 -2.7110
  108OSM   H12B11073   5.045   1.211  11.182  1.0934 -0.5808  1.0105
  108OSM    C1111074   5.066   1.276  10.978  0.0784  0.4487  0.3197
  108OSM   H11A11075   5.136   1.329  10.909 -0.9012  0.2601 -0.8506
  108OSM   H11B11076   4.982   1.344  10.955  0.1077 -0.2265 -2.0406
  108OSM      P11077   4.901   1.063  10.964  0.2499 -0.4407 -0.2024
  108OSM    O1311078   4.898   0.928  10.907 -0.6807  0.9535 -0.1473
  108OSM    O1411079   4.874   1.061  11.110  0.3057 -0.1391 -0.3887
  108OSM    O1111080   4.787   1.155  10.898 -0.2500 -0.2338  0.6022
  108OSM    O1211081   5.040   1.139  10.925  0.4814 -0.0841  0.3454
  108OSM    C1S11082   4.792   1.185  10.760 -0.1587  0.4560  0.1902
  108OSM    H1S11083   4.896   1.184  10.719 -0.4828  2.2688 -0.7440
  108OSM    H1T11084   4.741   1.278  10.729 -0.2902  0.3447  0.0732
  108OSM     NF11085   4.736   1.096  10.536  0.7082 -0.1798  0.3392
  108OSM    HNF11086   4.672   1.145  10.479  1.4546  1.2425  0.6679
  108OSM    C2S11087   4.704   1.079  10.676 -0.0789  0.8396  0.2220
  108OSM    H2S11088   4.743   0.982  10.713  0.9490  2.4817  3.9105
  108OSM    C3S11089   4.547   1.089  10.703 -0.2930 -0.9169 -0.0451
  108OSM    H3S11090   4.502   1.169  10.640  2.6799 -0.0948 -1.3353
  108OSM     O311091   4.506   1.118  10.836 -0.1296 -0.2902  0.3539
  108OSM    HO311092   4.585   1.141  10.885  0.1050  0.9900 -0.5696
  108OSM    C4S11093   4.473   0.978  10.657 -0.4269  0.6057  0.3444
  108OSM    H4S11094   4.511   0.885  10.701 -0.8543  0.8659  1.2875
  108OSM    C5S11095   4.370   0.970  10.571 -0.8736 -0.2173  0.1366
  108OSM    H5S11096   4.332   1.060  10.519  0.1332  0.8889  1.2494
  108OSM    C6S11097   4.311   0.836  10.539 -0.1825  0.1265  0.4427
  108OSM    H6S11098   4.208   0.854  10.501  0.2499  1.2309 -0.2801
  108OSM    H6T11099   4.303   0.779  10.634  0.2769  0.1204  0.4802
  108OSM    C7S11100   4.375   0.744  10.437 -0.1456  0.6582 -0.6490
  108OSM    H7S11101   4.327   0.645  10.447  1.2349 -0.1370 -1.5065
  108OSM    H7T11102   4.481   0.735  10.471 -0.0523 -0.3841 -1.1569
  108OSM    C8S11103   4.359   0.790  10.291 -0.0051  0.0417 -0.3115
  108OSM    H8S11104   4.421   0.882  10.283  0.8797 -0.4787  0.4402
  108OSM    H8T11105   4.251   0.805  10.270 -0.6677 -4.6008 -1.3255
  108OSM    C9S11106   4.399   0.686  10.181  0.1031  0.2485 -0.1583
  108OSM    H9S11107   4.353   0.585  10.185  1.1659 -0.2582 -0.1915
  108OSM    H9T11108   4.510   0.674  10.181  0.0018 -0.8597  0.6376
  108OSM   C10S11109   4.371   0.743  10.039  0.4713 -0.6045  0.3987
  108OSM   H10S11110   4.431   0.834  10.019 -0.1456 -0.3401 -0.2615
  108OSM   H10T11111   4.265   0.776  10.037  0.8671  0.7270 -1.3673
  108OSM   C11S11112   4.397   0.642   9.927 -0.4572  0.0970  0.5602
  108OSM   H11S11113   4.325   0.558   9.916  0.7701 -0.9642  0.4307
  108OSM   H11T11114   4.499   0.604   9.947 -1.2114 -0.1484  4.6419
  108OSM   C12S11115   4.396   0.709   9.786  0.0443  0.0237  0.4206
  108OSM   H12S11116   4.471   0.790   9.799 -0.2299  0.3167  0.1772
  108OSM   H12T11117   4.303   0.765   9.764  0.5701  0.7949  0.0850
  108OSM   C13S11118   4.435   0.608   9.677 -1.2470 -0.1608  0.0016
  108OSM   H13S11119   4.388   0.510   9.700 -3.4622 -0.0102 -3.1284
  108OSM   H13T11120   4.545   0.596   9.682 -1.4971 -2.3025  1.2357
  108OSM   C14S11121   4.403   0.650   9.530  0.1814 -0.6043  0.3177
  108OSM   H14S11122   4.470   0.728   9.487 -0.3522  0.3751  1.2105
  108OSM   H14T11123   4.302   0.694   9.536 -0.2749 -1.6717  0.7267
  108OSM   C15S11124   4.394   0.534   9.433  0.3411 -1.0030 -0.2162
  108OSM   H15S11125   4.317   0.468   9.480 -0.9616  0.1883 -0.6305
  108OSM   H15T11126   4.488   0.475   9.428  1.8275  1.2259  0.3422
  108OSM   C16S11127   4.371   0.570   9.286 -0.0639  0.6904 -0.0869
  108OSM   H16S11128   4.422   0.666   9.264  0.9190  0.0934 -0.4687
  108OSM   H16T11129   4.262   0.583   9.266 -0.6136 -2.2138  0.5610
  108OSM   C17S11130   4.414   0.461   9.189  0.0605  0.3435  0.2151
  108OSM   H17S11131   4.365   0.369   9.227 -0.9201  0.7424 -0.0638
  108OSM   H17T11132   4.524   0.444   9.193 -0.0484 -0.6349 -0.4929
  108OSM   C18S11133   4.371   0.492   9.047 -0.5486  0.4292  0.1549
  108OSM   H18S11134   4.441   0.563   8.999  0.2254 -0.1245  0.4480
  108OSM   H18T11135   4.267   0.533   9.044  0.1637  2.4030  1.2229
  108OSM   H18U11136   4.378   0.403   8.980 -3.3521 -0.3687  0.7517
  108OSM    C1F11137   4.855   1.066  10.480 -0.2863  1.1223 -0.2482
  108OSM     OF11138   4.950   1.015  10.542 -0.4364  0.0272  0.3593
  108OSM    C2F11139   4.870   1.098  10.342  0.7062 -0.4604 -0.7778
  108OSM    H2F11140   4.934   1.019  10.297 -1.0186 -0.7788 -2.8357
  108OSM    H2G11141   4.898   1.205  10.338  0.0381  0.0834  3.8157
  108OSM    C3F11142   4.735   1.087  10.258  0.7875  0.4154  0.9943
  108OSM    H3F11143   4.662   1.164  10.289  2.2952  2.1006  0.5005
  108OSM    H3G11144   4.690   0.985  10.259  0.0103  0.5423 -2.9686
  108OSM    C4F11145   4.761   1.099  10.105  0.3327  0.5692  0.3852
  108OSM    H4F11146   4.833   1.023  10.066 -0.0567  2.0070 -3.6187
  108OSM    H4G11147   4.809   1.196  10.082  1.0072  0.1032 -0.1818
  108OSM    C5F11148   4.637   1.085  10.016 -0.2826  0.4578  0.0022
  108OSM    H5F11149   4.566   1.166  10.043 -1.3814 -0.2527 -0.7197
  108OSM    H5G11150   4.583   0.988  10.023  0.1223  0.0095 -2.3078
  108OSM    C6F11151   4.675   1.104   9.869 -0.4579  0.0025  0.5071
  108OSM    H6F11152   4.739   1.018   9.840 -1.2355 -1.0152  1.7050
  108OSM    H6G11153   4.742   1.189   9.843  1.6939 -1.1087  2.1007
  108OSM    C7F11154   4.551   1.108   9.771 -0.9766 -0.6450 -0.1849
  108OSM    H7F11155   4.479   1.189   9.791 -4.2785 -2.1800 -4.3166
  108OSM    H7G11156   4.489   1.017   9.785 -1.0010 -0.4112  1.4769
  108OSM    C8F11157   4.585   1.139   9.623  0.0494 -0.0850  0.0713
  108OSM    H8F11158   4.678   1.082   9.600 -0.9892 -2.2513  0.9889
  108OSM    H8G11159   4.606   1.247   9.636  1.1839 -0.2933  0.0237
  108OSM    C9F11160   4.474   1.101   9.529  0.9743 -0.2135  0.0357
  108OSM    H9F11161   4.374   1.100   9.574  0.2827  0.5495 -1.4096
  108OSM   C10F11162   4.485   1.086   9.392  0.4155 -0.1875  0.0910
  108OSM   H10F11163   4.398   1.066   9.329  1.6191  1.1523 -2.1011
  108OSM   C11F11164   4.614   1.097   9.317 -0.5704  0.4221  0.1234
  108OSM   H11F11165   4.705   1.124   9.375 -0.0608 -0.6487 -0.1487
  108OSM   H11G11166   4.602   1.182   9.247 -0.8941  0.3661  0.1121
  108OSM   C12F11167   4.647   0.968   9.232  0.2323  0.1173  0.3211
  108OSM   H12F11168   4.555   0.939   9.176 -0.5989  0.0172  1.6895
  108OSM   H12G11169   4.669   0.892   9.309  0.5105  0.8537  0.9879
  108OSM   C13F11170   4.765   0.984   9.134  0.6273  0.8877  0.1672
  108OSM   H13F11171   4.856   1.010   9.192  1.8960 -0.6280 -1.0538
  108OSM   H13G11172   4.745   1.063   9.057 -1.5798 -0.1976 -0.4671
  108OSM   C14F11173   4.800   0.850   9.052  0.4699  0.1742 -0.3547
  108OSM   H14F11174   4.716   0.806   8.993  0.0181  0.3957  0.1188
  108OSM   H14G11175   4.832   0.777   9.130 -1.8189 -0.2198  0.3001
  108OSM   C15F11176   4.923   0.870   8.964 -0.0636  0.4809 -0.5752
  108OSM   H15F11177   5.009   0.910   9.022  0.1583  0.8302 -1.1358
  108OSM   H15G11178   4.905   0.939   8.878  0.1805 -0.7199 -1.6122
  108OSM   C16F11179   4.968   0.733   8.909  0.9718 -0.3940  0.5626
  108OSM   H16F11180   4.885   0.695   8.846  0.2616 -0.2273  1.3815
  108OSM   H16G11181   4.989   0.658   8.989 -0.2797 -0.8921  0.4469
  108OSM   C17F11182   5.079   0.745   8.811  0.6749 -0.6510  0.3585
  108OSM   H17F11183   5.166   0.801   8.851  0.6001 -1.6540  2.0146
  108OSM   H17G11184   5.024   0.793   8.727  1.5371 -0.6125 -0.1896
  108OSM   C18F11185   5.126   0.605   8.766  0.1607  0.7634  0.6842
  108OSM   H18F11186   5.179   0.612   8.668 -1.6632 -0.5383 -0.4549
  108OSM   H18G11187   5.043   0.532   8.756  0.2467  0.5191  1.6584
  108OSM   H18H11188   5.200   0.580   8.845 -1.2618  0.4976  1.9871
  109OSM      N11189   0.476   0.322  11.120 -0.6426  0.0174 -0.4631
  109OSM    C1511190   0.608   0.257  11.104  0.4361 -0.2687  0.2748
  109OSM   H15A11191   0.684   0.317  11.152  1.0025  0.2949 -1.2529
  109OSM   H15B11192   0.633   0.270  11.000  1.0062  0.2019  0.4611
  109OSM   H15C11193   0.609   0.154  11.135  0.6449 -0.5008 -0.4958
  109OSM    C1411194   0.428   0.264  11.249  0.2391  0.6211  0.3287
  109OSM   H14A11195   0.439   0.157  11.250  0.5009  0.5653 -2.3635
  109OSM   H14B11196   0.321   0.267  11.262 -0.1788 -2.0674 -1.5487
  109OSM   H14C11197   0.476   0.308  11.335 -3.7823 -0.8490  3.6636
  109OSM    C1311198   0.466   0.469  11.138 -0.4625 -0.2858 -0.0456
  109OSM   H13A11199   0.552   0.511  11.187 -1.2553  0.6052  0.6269
  109OSM   H13B11200   0.381   0.496  11.198 -0.2586 -2.6433  1.4423
  109OSM   H13C11201   0.465   0.519  11.042  1.5598 -2.1552 -1.1259
  109OSM    C1211202   0.389   0.286  11.002 -0.1799 -0.4623  0.0051
  109OSM   H12A11203   0.287   0.306  11.031 -0.0351 -0.0887  0.2576
  109OSM   H12B11204   0.383   0.180  10.983  1.4534 -0.6737  0.5188
  109OSM    C1111205   0.409   0.355  10.866  0.8756  0.4554  0.1474
  109OSM   H11A11206   0.361   0.295  10.786  0.3848 -1.7644  2.0014
  109OSM   H11B11207   0.515   0.368  10.837  0.2566  1.2023 -1.9312
  109OSM      P11208   0.205   0.512  10.836  0.2213 -0.0285 -0.7188
  109OSM    O1311209   0.109   0.492  10.943 -0.1604 -0.3463  0.4647
  109OSM    O1411210   0.202   0.654  10.788 -0.1858  0.3348 -0.4006
  109OSM    O1111211   0.170   0.412  10.721 -0.6814  0.3766  0.3134
  109OSM    O1211212   0.357   0.487  10.872 -0.3227  0.0152  0.2156
  109OSM    C1S11213   0.192   0.449  10.585 -0.7318 -0.5270  0.3970
  109OSM    H1S11214   0.296   0.425  10.556  0.0644  2.4266  0.4705
  109OSM    H1T11215   0.186   0.560  10.577 -0.5924 -0.6221 -1.1980
  109OSM     NF11216   0.114   0.438  10.344  0.0551 -0.6848 -0.2409
  109OSM    HNF11217   0.053   0.507  10.307  0.6940 -1.3690 -2.7317
  109OSM    C2S11218   0.086   0.391  10.477 -0.5045 -0.5342  0.2952
  109OSM    H2S11219   0.092   0.280  10.471 -1.8786 -0.6572  0.8244
  109OSM    C3S11220  -0.058   0.423  10.521  0.3052 -0.9182  0.1948
  109OSM    H3S11221  -0.074   0.533  10.520 -4.0161 -1.3778 -0.2919
  109OSM     O311222  -0.101   0.391  10.651  0.3895  0.5554  0.0633
  109OSM    HO311223  -0.022   0.365  10.698  0.7297  1.7978  0.2075
  109OSM    C4S11224  -0.155   0.361  10.422 -0.5464 -0.7391  0.7361
  109OSM    H4S11225  -0.140   0.253  10.409  0.1913 -0.4485 -1.1917
  109OSM    C5S11226  -0.244   0.422  10.339 -0.2714  0.9370 -0.5145
  109OSM    H5S11227  -0.277   0.526  10.353 -4.5489 -0.2840  0.0034
  109OSM    C6S11228  -0.326   0.340  10.236  0.2144 -0.4885 -0.9541
  109OSM    H6S11229  -0.435   0.360  10.230  0.1059 -0.2368  1.2895
  109OSM    H6T11230  -0.322   0.232  10.261  1.8538 -0.3617 -0.5826
  109OSM    C7S11231  -0.269   0.363  10.091  1.0055  0.5815 -0.3835
  109OSM    H7S11232  -0.263   0.474  10.088  0.5147  0.7049  1.7128
  109OSM    H7T11233  -0.342   0.325  10.017 -1.2825  0.0705  1.9891
  109OSM    C8S11234  -0.127   0.299  10.080 -0.2466  0.2864 -0.6702
  109OSM    H8S11235  -0.141   0.192  10.106  1.0424 -0.2515 -2.0918
  109OSM    H8T11236  -0.053   0.347  10.148 -1.3125 -0.1650  0.8704
  109OSM    C9S11237  -0.063   0.306   9.940 -0.6209 -0.7470 -0.3216
  109OSM    H9S11238  -0.055   0.412   9.909 -0.0443 -0.3605  1.0822
  109OSM    H9T11239  -0.136   0.273   9.863  0.4942  0.0602 -1.7827
  109OSM   C10S11240   0.076   0.227   9.919  0.3228 -0.4664  0.1975
  109OSM   H10S11241   0.069   0.130   9.972  0.2047 -0.6440 -0.1401
  109OSM   H10T11242   0.148   0.287   9.977 -2.3120  2.7819  0.4381
  109OSM   C11S11243   0.121   0.219   9.766  0.1265 -0.1325 -0.6337
  109OSM   H11S11244   0.046   0.160   9.709  0.2207  1.2746 -2.2958
  109OSM   H11T11245   0.213   0.157   9.767 -1.5229 -2.8952  3.2108
  109OSM   C12S11246   0.137   0.355   9.696  0.0505  0.3084 -0.1894
  109OSM   H12S11247   0.198   0.429   9.753  0.5623  0.0004 -0.3313
  109OSM   H12T11248   0.037   0.403   9.688  0.6867  1.6514 -0.3243
  109OSM   C13S11249   0.206   0.347   9.553 -0.0232  0.2055 -0.9540
  109OSM   H13S11250   0.165   0.257   9.503 -0.0136 -1.5580  1.9648
  109OSM   H13T11251   0.311   0.320   9.574 -0.5327 -0.2030  1.3040
  109OSM   C14S11252   0.208   0.479   9.482  0.3343  0.7184 -0.2676
  109OSM   H14S11253   0.222   0.561   9.556  1.5391 -0.7489  1.2001
  109OSM   H14T11254   0.108   0.505   9.441  0.3605  0.5343 -0.4532
  109OSM   C15S11255   0.307   0.484   9.365 -0.3230 -0.3293 -0.2634
  109OSM   H15S11256   0.408   0.477   9.411 -0.1524  2.0561 -0.1670
  109OSM   H15T11257   0.309   0.591   9.334 -0.1573 -0.0450  0.6889
  109OSM   C16S11258   0.287   0.404   9.235  0.3303  0.1958 -0.4900
  109OSM   H16S11259   0.183   0.427   9.201 -0.4731 -1.5066  0.6818
  109OSM   H16T11260   0.291   0.297   9.261  0.5844  0.2018 -0.5026
  109OSM   C17S11261   0.387   0.436   9.127 -0.8186 -0.1168 -0.2111
  109OSM   H17S11262   0.489   0.419   9.166 -0.4272  0.9648 -0.7157
  109OSM   H17T11263   0.386   0.542   9.093 -2.6082 -0.0481 -0.0528
  109OSM   C18S11264   0.361   0.347   9.001 -0.4855 -0.4359 -0.4559
  109OSM   H18S11265   0.385   0.247   9.044  1.2779  1.0629  2.3635
  109OSM   H18T11266   0.425   0.372   8.914  0.3264  1.3330  0.5991
  109OSM   H18U11267   0.254   0.352   8.972 -0.8323 -0.7999  0.7110
  109OSM    C1F11268   0.218   0.404  10.270  0.0697  0.7847 -0.3833
  109OSM     OF11269   0.280   0.300  10.286 -0.0427  0.4750  0.0119
  109OSM    C2F11270   0.255   0.495  10.160 -0.1981  0.4426  0.3824
  109OSM    H2F11271   0.184   0.579  10.148  1.5389  1.8433 -0.5064
  109OSM    H2G11272   0.246   0.435  10.067  1.2661  2.4381 -1.1217
  109OSM    C3F11273   0.392   0.554  10.178 -1.2660 -0.1421  0.3517
  109OSM    H3F11274   0.469   0.476  10.198 -1.5298 -0.4699  0.1198
  109OSM    H3G11275   0.390   0.619  10.268  1.1699 -0.0609  0.4013
  109OSM    C4F11276   0.446   0.628  10.051  0.1394 -0.1366  0.3865
  109OSM    H4F11277   0.430   0.569   9.957 -0.2503  2.0218 -0.9766
  109OSM    H4G11278   0.556   0.637  10.055 -0.0386  2.5025  0.9431
  109OSM    C5F11279   0.384   0.766  10.047  0.4997 -0.8225  0.7158
  109OSM    H5F11280   0.449   0.817  10.120 -0.7099  0.5133  0.9103
  109OSM    H5G11281   0.288   0.757  10.103  0.4524 -1.5891  0.5160
  109OSM    C6F11282   0.379   0.827   9.915 -0.4178 -0.0487  0.1011
  109OSM    H6F11283   0.323   0.765   9.842  1.1739 -0.0427 -1.1858
  109OSM    H6G11284   0.485   0.843   9.885 -0.5975 -0.5147 -0.8341
  109OSM    C7F11285   0.304   0.960   9.930  0.1573  0.3683  0.1967
  109OSM    H7F11286   0.360   1.017  10.007  1.0615  0.2729 -0.3862
  109OSM    H7G11287   0.202   0.938   9.970 -2.1079  3.7243 -2.9875
  109OSM    C8F11288   0.292   1.052   9.806  0.9726 -1.3116  0.4403
  109OSM    H8F11289   0.393   1.090   9.781  0.6076 -0.2173  0.5788
  109OSM    H8G11290   0.239   1.145   9.836  1.6757 -0.1652 -1.6617
  109OSM    C9F11291   0.212   0.984   9.696  0.5729  0.1072 -0.6569
  109OSM    H9F11292   0.105   0.968   9.716  1.4527 -3.8622  2.0596
  109OSM   C10F11293   0.264   0.972   9.574  0.2719  0.1413  0.5797
  109OSM   H10F11294   0.205   0.919   9.498 -0.2063  0.7125  0.5401
  109OSM   C11F11295   0.407   1.010   9.537  0.2800  0.1310 -0.7377
  109OSM   H11F11296   0.476   0.950   9.600 -0.2594 -1.3590 -1.5289
  109OSM   H11G11297   0.434   1.115   9.561  0.1621 -0.2564  1.2935
  109OSM   C12F11298   0.447   0.972   9.393  0.4896  0.2474  0.3186
  109OSM   H12F11299   0.445   0.862   9.380  0.7135  0.2249  0.4696
  109OSM   H12G11300   0.555   0.993   9.378  1.1299 -2.4766  0.7015
  109OSM   C13F11301   0.361   1.048   9.291  0.1989 -0.2722  0.1087
  109OSM   H13F11302   0.377   1.153   9.325 -3.0758  0.4690 -0.2253
  109OSM   H13G11303   0.252   1.032   9.307  0.2781 -0.5756  0.3613
  109OSM   C14F11304   0.398   1.027   9.143 -0.4688 -0.4244  0.0084
  109OSM   H14F11305   0.509   1.038   9.138 -0.7548  3.2169 -1.2810
  109OSM   H14G11306   0.349   1.105   9.081 -0.6352 -0.3274  0.2635
  109OSM   C15F11307   0.358   0.892   9.085 -0.3724 -0.1484  0.8777
  109OSM   H15F11308   0.264   0.856   9.133 -2.1097  1.3738 -1.1647
  109OSM   H15G11309   0.434   0.815   9.109 -0.5452 -1.1085 -1.4012
  109OSM   C16F11310   0.336   0.876   8.938  0.6452 -0.6741  0.4395
  109OSM   H16F11311   0.435   0.897   8.892  0.9491  0.9932  1.7429
  109OSM   H16G11312   0.266   0.956   8.904  0.5253 -0.6498  0.7347
  109OSM   C17F11313   0.278   0.736   8.891  0.5918 -0.8108  0.1438
  109OSM   H17F11314   0.186   0.721   8.950 -0.6409 -1.5776 -1.8642
  109OSM   H17G11315   0.345   0.653   8.923  0.4821 -1.6126 -1.6173
  109OSM   C18F11316   0.243   0.730   8.744 -0.1948  0.0054 -0.0717
  109OSM   H18F11317   0.182   0.820   8.721 -0.9127 -0.6914 -0.9348
  109OSM   H18G11318   0.182   0.640   8.722 -2.3334  1.2265  0.5581
  109OSM   H18H11319   0.327   0.736   8.671 -0.2601  1.2290 -0.0685
  110OSM      N11320   1.166   6.523  11.455  0.9875  0.6341 -0.2693
  110OSM    C1511321   1.206   6.505  11.600 -0.5821  0.1152 -0.0967
  110OSM   H15A11322   1.138   6.444  11.657  0.5769 -1.2527 -0.1149
  110OSM   H15B11323   1.225   6.600  11.648  1.4632 -0.4552  0.3318
  110OSM   H15C11324   1.299   6.450  11.599  1.3447  3.0996 -1.0952
  110OSM    C1411325   1.199   6.401  11.380  0.8075 -0.0281  0.1282
  110OSM   H14A11326   1.297   6.358  11.399 -0.4508 -2.9211  0.5558
  110OSM   H14B11327   1.193   6.423  11.275  0.9122 -1.7238 -0.2610
  110OSM   H14C11328   1.124   6.325  11.393 -0.6564  1.0145 -1.8102
  110OSM    C1311329   1.018   6.552  11.428 -0.0113 -0.1334 -0.4495
  110OSM   H13A11330   0.987   6.631  11.495 -1.5045 -3.3436  3.0407
  110OSM   H13B11331   0.962   6.461  11.442  0.5464 -0.8279 -2.3509
  110OSM   H13C11332   1.021   6.573  11.322  3.8901 -1.4750 -0.7777
  110OSM    C1211333   1.255   6.639  11.400 -0.2849  0.2200 -0.1344
  110OSM   H12A11334   1.360   6.616  11.410 -0.0728  1.2052  0.0258
  110OSM   H12B11335   1.227   6.707  11.479 -2.9585 -1.6843  0.6819
  110OSM    C1111336   1.218   6.701  11.263  0.4069 -0.3466  0.0539
  110OSM   H11A11337   1.287   6.787  11.247  0.2076 -0.1311  0.3617
  110OSM   H11B11338   1.121   6.755  11.266  0.4584 -0.2795  0.5163
  110OSM      P11339   1.118   6.588  11.055 -0.0383 -0.4807 -0.0941
  110OSM    O1311340   1.151   6.466  10.982 -0.0363  0.1131 -0.0075
  110OSM    O1411341   0.992   6.602  11.135 -0.0308 -0.3486  0.6062
  110OSM    O1111342   1.111   6.704  10.955 -0.3238  0.4968  0.0803
  110OSM    O1211343   1.240   6.619  11.144  0.0417 -0.8258 -0.2392
  110OSM    C1S11344   1.221   6.779  10.893 -0.2470  0.2760  0.3346
  110OSM    H1S11345   1.323   6.738  10.907  0.2131  0.7708 -1.3877
  110OSM    H1T11346   1.222   6.885  10.926  0.0169  0.7708 -1.1847
  110OSM     NF11347   1.299   6.860  10.672 -0.5633  0.6883  0.0536
  110OSM    HNF11348   1.301   6.941  10.613  0.3427 -1.5661 -3.3242
  110OSM    C2S11349   1.186   6.799  10.741 -0.1057 -0.7570  0.3125
  110OSM    H2S11350   1.174   6.699  10.694 -2.1017 -1.4658  2.1582
  110OSM    C3S11351   1.048   6.872  10.712 -0.1838  0.7060  0.3412
  110OSM    H3S11352   1.064   6.981  10.725  1.0308  0.5877 -0.0820
  110OSM     O311353   0.943   6.821  10.783  0.6715  0.3516  0.3434
  110OSM    HO311354   0.982   6.744  10.825 -0.6663 -0.5587 -0.0240
  110OSM    C4S11355   1.010   6.857  10.561  0.2982 -0.5407 -0.2130
  110OSM    H4S11356   1.038   6.943  10.499  0.8664  1.5675  2.7101
  110OSM    C5S11357   0.959   6.749  10.497  0.4577 -0.2303  0.2468
  110OSM    H5S11358   0.944   6.651  10.543  0.5807 -0.5848 -0.4594
  110OSM    C6S11359   0.924   6.756  10.348  0.1960  0.4955  0.3809
  110OSM    H6S11360   0.874   6.850  10.315  0.8360  0.9270  0.6234
  110OSM    H6T11361   0.853   6.674  10.323  0.0277  0.5366  0.7162
  110OSM    C7S11362   1.036   6.735  10.240 -0.0099 -0.2758 -1.1500
  110OSM    H7S11363   1.097   6.644  10.259 -3.1029 -1.7236  3.8526
  110OSM    H7T11364   1.109   6.818  10.251  3.0974 -3.0683  2.4886
  110OSM    C8S11365   0.981   6.736  10.095  0.6378 -0.0848 -0.0467
  110OSM    H8S11366   0.920   6.829  10.089  1.2901  0.2921 -1.1196
  110OSM    H8T11367   0.905   6.655  10.086 -1.3464  1.7390 -0.5975
  110OSM    C9S11368   1.075   6.754   9.975 -0.2942 -0.8261 -0.1391
  110OSM    H9S11369   1.161   6.686   9.987  0.9734  1.0656  2.5876
  110OSM    H9T11370   1.111   6.858   9.990 -2.4846 -0.2508  1.6184
  110OSM   C10S11371   1.003   6.743   9.837 -0.2882  0.1314  0.1844
  110OSM   H10S11372   0.910   6.803   9.847  0.1250  0.4048  4.2986
  110OSM   H10T11373   0.983   6.636   9.813  0.2135  0.1020 -0.1120
  110OSM   C11S11374   1.080   6.794   9.720 -0.0719 -0.3195 -1.0595
  110OSM   H11S11375   1.188   6.771   9.729  0.4746  2.4992  1.8931
  110OSM   H11T11376   1.078   6.905   9.722 -0.0115 -0.2676  2.5810
  110OSM   C12S11377   1.017   6.763   9.585 -0.6520 -0.3904 -0.0431
  110OSM   H12S11378   0.907   6.775   9.573 -0.4087  0.4022 -1.7852
  110OSM   H12T11379   1.042   6.657   9.559 -0.9194 -0.1596 -1.3031
  110OSM   C13S11380   1.091   6.828   9.469  0.2649 -0.1666  0.1998
  110OSM   H13S11381   1.195   6.789   9.476 -0.6396 -2.7246  0.1445
  110OSM   H13T11382   1.098   6.939   9.469 -1.6144 -0.0033 -0.4249
  110OSM   C14S11383   1.036   6.794   9.325 -0.9366  0.2774  0.1512
  110OSM   H14S11384   0.934   6.838   9.315 -1.0112 -0.2324 -1.7094
  110OSM   H14T11385   1.031   6.684   9.312  0.4493  0.5134 -3.5837
  110OSM   C15S11386   1.113   6.850   9.201  0.9582 -0.6113 -0.2230
  110OSM   H15S11387   1.191   6.774   9.179 -0.0056 -1.4037 -0.9448
  110OSM   H15T11388   1.160   6.943   9.240  1.7518 -1.6134  1.3227
  110OSM   C16S11389   1.032   6.872   9.073 -0.3248  0.1043 -0.7798
  110OSM   H16S11390   0.944   6.931   9.109  1.0803  1.0361  1.3580
  110OSM   H16T11391   0.993   6.777   9.032  0.7012  0.2492 -2.1345
  110OSM   C17S11392   1.110   6.936   8.958 -0.5575  0.0633 -0.5716
  110OSM   H17S11393   1.190   6.864   8.930  1.6981  1.9851  0.5298
  110OSM   H17T11394   1.161   7.024   9.005  0.4911 -0.4052 -0.7982
  110OSM   C18S11395   1.013   6.960   8.842 -0.0320 -0.8766 -0.1562
  110OSM   H18S11396   0.960   6.863   8.830 -1.0054 -0.5076  1.0565
  110OSM   H18T11397   1.073   6.982   8.751  1.2605  0.5570  0.9994
  110OSM   H18U11398   0.936   7.037   8.858  0.0702 -0.6695 -0.6238
  110OSM    C1F11399   1.419   6.792  10.662  0.2265 -0.8268  0.0323
  110OSM     OF11400   1.436   6.674  10.693 -0.3416  0.2852 -0.2445
  110OSM    C2F11401   1.528   6.867  10.590  0.1477 -0.2118 -0.3151
  110OSM    H2F11402   1.615   6.875  10.660  0.8820 -0.7550 -1.1404
  110OSM    H2G11403   1.492   6.970  10.568  1.2464 -0.0155 -1.2796
  110OSM    C3F11404   1.585   6.792  10.465 -0.1067  0.1423 -0.4378
  110OSM    H3F11405   1.616   6.694  10.507 -0.2008  0.7550  1.1450
  110OSM    H3G11406   1.676   6.848  10.432 -1.1834  0.8586 -2.3762
  110OSM    C4F11407   1.492   6.783  10.348  0.1003  0.1875  0.7798
  110OSM    H4F11408   1.390   6.746  10.371 -0.4548 -1.1984 -3.1741
  110OSM    H4G11409   1.540   6.705  10.285  0.4161 -0.4536  1.7942
  110OSM    C5F11410   1.495   6.905  10.263 -0.5629  0.3527 -0.1902
  110OSM    H5F11411   1.600   6.936  10.245 -0.0802 -0.3179  1.2749
  110OSM    H5G11412   1.438   6.986  10.312 -0.4440  0.3591 -0.0606
  110OSM    C6F11413   1.422   6.893  10.129  0.7418  0.0379  0.0089
  110OSM    H6F11414   1.356   6.982  10.131  1.1302  0.3281  1.5126
  110OSM    H6G11415   1.355   6.805  10.116  1.2428 -0.3230 -0.2223
  110OSM    C7F11416   1.511   6.909  10.005 -0.7139  0.7475 -0.4858
  110OSM    H7F11417   1.579   6.821   9.992 -1.6105  0.1612 -1.3703
  110OSM    H7G11418   1.572   7.001  10.019 -0.2851  0.3656  0.2269
  110OSM    C8F11419   1.432   6.939   9.872  0.3268  1.1961  0.7494
  110OSM    H8F11420   1.363   6.853   9.855  0.3894  1.0037  1.4506
  110OSM    H8G11421   1.510   6.932   9.794 -0.2602 -0.4298  0.2681
  110OSM    C9F11422   1.351   7.068   9.872 -0.2111 -0.1118  0.4389
  110OSM    H9F11423   1.321   7.118   9.965  0.6825  0.2256  0.5555
  110OSM   C10F11424   1.314   7.140   9.764  0.3963  0.2543 -0.5457
  110OSM   H10F11425   1.263   7.237   9.768 -0.0816  0.1305 -2.6443
  110OSM   C11F11426   1.349   7.104   9.624 -0.0210  0.6103 -0.4936
  110OSM   H11F11427   1.284   7.022   9.587  0.4827  1.5909 -3.8745
  110OSM   H11G11428   1.451   7.061   9.611 -0.3920 -0.3135 -0.4756
  110OSM   C12F11429   1.314   7.216   9.525 -0.7532 -0.1661  0.5495
  110OSM   H12F11430   1.384   7.301   9.536 -0.3749 -0.3360 -0.4234
  110OSM   H12G11431   1.212   7.258   9.539 -0.6713 -0.2399  1.4781
  110OSM   C13F11432   1.327   7.171   9.378  0.3051  0.1595  1.0144
  110OSM   H13F11433   1.255   7.090   9.356 -1.1347  2.1163 -2.2818
  110OSM   H13G11434   1.430   7.139   9.353  0.6878  2.1164 -0.2080
  110OSM   C14F11435   1.292   7.292   9.292 -0.2426  0.3018 -0.4900
  110OSM   H14F11436   1.356   7.373   9.333 -0.3385  0.2886 -0.3156
  110OSM   H14G11437   1.191   7.332   9.316 -0.3863  0.9151 -1.9785
  110OSM   C15F11438   1.317   7.267   9.142  0.3180 -0.1103 -0.3852
  110OSM   H15F11439   1.233   7.206   9.102  0.4455 -0.2584 -0.4237
  110OSM   H15G11440   1.418   7.223   9.138  0.7938  0.9368 -0.2666
  110OSM   C16F11441   1.327   7.398   9.056  0.2646  0.3532 -0.1116
  110OSM   H16F11442   1.417   7.459   9.079 -0.7540  2.0074 -0.3657
  110OSM   H16G11443   1.241   7.460   9.086  1.0724  1.4668 -0.0448
  110OSM   C17F11444   1.307   7.373   8.908 -0.4030  0.3333 -1.0852
  110OSM   H17F11445   1.247   7.452   8.858 -2.3347  0.0084  0.5961
  110OSM   H17G11446   1.232   7.294   8.884 -0.2867  1.0630 -4.4566
  110OSM   C18F11447   1.437   7.352   8.823 -0.8617  0.6765  0.4807
  110OSM   H18F11448   1.428   7.330   8.715 -0.6825  1.0929  0.3807
  110OSM   H18G11449   1.494   7.269   8.871 -1.9496 -0.9037 -0.8568
  110OSM   H18H11450   1.488   7.450   8.826  1.1448 -0.3228  0.5492
  111OSM      N11451   1.590   6.427  10.877 -0.6494  0.4605 -0.5690
  111OSM    C1511452   1.651   6.321  10.963 -0.1407 -0.3089  0.5436
  111OSM   H15A11453   1.577   6.246  10.989  0.9560 -1.8296 -0.5976
  111OSM   H15B11454   1.675   6.368  11.057 -1.2524  1.1656  0.1276
  111OSM   H15C11455   1.744   6.280  10.927  0.8874  1.4385  1.0921
  111OSM    C1411456   1.545   6.369  10.751 -0.3209  0.1080 -0.5953
  111OSM   H14A11457   1.482   6.286  10.780  0.0956  0.0331  0.1392
  111OSM   H14B11458   1.631   6.329  10.700 -1.5826 -0.8730 -2.0154
  111OSM   H14C11459   1.483   6.439  10.697 -0.7406 -0.4514 -0.8360
  111OSM    C1311460   1.469   6.496  10.946 -0.0972  0.0279  0.0369
  111OSM   H13A11461   1.429   6.579  10.890 -1.5900 -0.1397  0.8014
  111OSM   H13B11462   1.501   6.554  11.031 -1.2980 -0.0565  0.5731
  111OSM   H13C11463   1.391   6.426  10.972 -0.5419  0.0718 -1.1186
  111OSM    C1211464   1.688   6.543  10.859 -0.2676  0.4807  0.2350
  111OSM   H12A11465   1.730   6.584  10.950 -0.8649  0.0169  0.7243
  111OSM   H12B11466   1.627   6.626  10.825 -0.0481  0.4577 -0.2136
  111OSM    C1111467   1.809   6.532  10.759 -0.0664  0.4183  0.1122
  111OSM   H11A11468   1.867   6.627  10.758  1.5642 -0.4605 -2.8104
  111OSM   H11B11469   1.781   6.518  10.652  3.2010 -0.7966 -0.7312
  111OSM      P11470   1.992   6.442  10.930  0.2057 -0.2067 -0.4652
  111OSM    O1311471   1.943   6.554  11.013 -0.1487 -0.2276  0.2341
  111OSM    O1411472   2.000   6.310  11.003 -0.2252 -0.4884 -0.3587
  111OSM    O1111473   2.124   6.483  10.863  0.7582 -0.1613  0.4676
  111OSM    O1211474   1.895   6.421  10.805  0.2213  0.3728 -0.1247
  111OSM    C1S11475   2.175   6.411  10.751  0.3885  0.3749  0.5165
  111OSM    H1S11476   2.110   6.428  10.662  2.2487 -0.0357 -0.9724
  111OSM    H1T11477   2.189   6.304  10.777  1.0008  0.8791  2.3838
  111OSM     NF11478   2.354   6.414  10.580  0.3888 -0.0682 -0.0862
  111OSM    HNF11479   2.396   6.323  10.572 -1.6488 -0.9729 -1.0834
  111OSM    C2S11480   2.318   6.468  10.712  0.2885  0.9242 -0.2987
  111OSM    H2S11481   2.301   6.578  10.704  0.9301  0.9839 -1.0133
  111OSM    C3S11482   2.429   6.438  10.820  0.9348 -0.5706  0.2434
  111OSM    H3S11483   2.428   6.329  10.844 -0.8830 -0.3940  1.1858
  111OSM     O311484   2.390   6.488  10.947 -0.4797 -0.1891  0.1001
  111OSM    HO311485   2.297   6.507  10.929 -0.5959 -1.1232 -0.3391
  111OSM    C4S11486   2.562   6.491  10.780 -0.2594  0.4361 -0.3979
  111OSM    H4S11487   2.567   6.596  10.747 -1.5602  0.7284  0.2482
  111OSM    C5S11488   2.677   6.425  10.787  0.1239  0.3330  0.0571
  111OSM    H5S11489   2.672   6.317  10.805  1.8539 -0.3381 -2.7946
  111OSM    C6S11490   2.808   6.487  10.738 -0.2168  0.1983 -0.8269
  111OSM    H6S11491   2.860   6.420  10.667  1.1926 -0.9560  1.1846
  111OSM    H6T11492   2.880   6.483  10.823 -0.5942 -1.1258 -0.5540
  111OSM    C7S11493   2.812   6.633  10.680  0.1389  0.1138 -0.5162
  111OSM    H7S11494   2.780   6.701  10.762 -0.2702 -2.0179  1.1858
  111OSM    H7T11495   2.740   6.647  10.596  2.2851 -1.0617 -2.6986
  111OSM    C8S11496   2.952   6.668  10.630 -0.0979 -0.3726 -0.4775
  111OSM    H8S11497   2.970   6.576  10.570  1.1009 -0.5877  0.1650
  111OSM    H8T11498   3.032   6.668  10.707  0.5620  0.9230 -1.1128
  111OSM    C9S11499   2.961   6.802  10.549 -0.1526 -0.1252 -0.3153
  111OSM    H9S11500   2.939   6.879  10.625  0.0619  0.6048 -0.9766
  111OSM    H9T11501   2.891   6.810  10.462 -2.2119  1.8406  1.4014
  111OSM   C10S11502   3.112   6.816  10.506  0.5557  1.0504 -0.2852
  111OSM   H10S11503   3.159   6.724  10.466  3.0295  0.7334  2.9377
  111OSM   H10T11504   3.172   6.841  10.597  1.9623  1.4016 -1.2793
  111OSM   C11S11505   3.139   6.923  10.408  0.3928 -0.1168 -0.6394
  111OSM   H11S11506   3.246   6.955  10.400 -0.1004  1.9690  0.4824
  111OSM   H11T11507   3.082   7.005  10.457 -1.4736 -3.0673  2.5017
  111OSM   C12S11508   3.093   6.884  10.267 -0.5164  0.2587 -0.0592
  111OSM   H12S11509   2.989   6.845  10.261 -0.7871  0.8714  0.5746
  111OSM   H12T11510   3.149   6.792  10.238  2.4153  1.5111  1.1669
  111OSM   C13S11511   3.109   6.995  10.162 -0.6148  0.7243 -0.3425
  111OSM   H13S11512   3.219   7.006  10.172 -0.4289 -1.6187  1.2154
  111OSM   H13T11513   3.049   7.087  10.179 -0.4587  0.5702  1.2586
  111OSM   C14S11514   3.114   6.953  10.018 -0.5706  0.7863  0.5794
  111OSM   H14S11515   3.181   6.864  10.015  0.4457  1.5301  0.4983
  111OSM   H14T11516   3.163   7.035   9.961 -0.1044 -1.3465 -2.2785
  111OSM   C15S11517   2.983   6.923   9.958 -0.1554  0.1105  0.6569
  111OSM   H15S11518   2.922   7.012   9.987  1.8116  2.3605 -1.5373
  111OSM   H15T11519   2.930   6.835  10.000 -1.9222  0.4553 -0.6750
  111OSM   C16S11520   2.990   6.934   9.803  0.4350  0.3711 -0.1051
  111OSM   H16S11521   3.059   7.017   9.776  1.0359 -0.1447 -0.1880
  111OSM   H16T11522   2.895   6.942   9.746  1.3214  1.7488 -1.4973
  111OSM   C17S11523   3.056   6.814   9.733 -0.4096  0.4812  0.3164
  111OSM   H17S11524   2.997   6.724   9.760  0.4950 -0.2015  0.0441
  111OSM   H17T11525   3.160   6.799   9.769 -0.5881  0.4110  0.8085
  111OSM   C18S11526   3.063   6.827   9.579 -0.2888 -0.2519 -0.0505
  111OSM   H18S11527   3.152   6.889   9.556 -0.5366 -0.0426 -0.4497
  111OSM   H18T11528   2.964   6.864   9.548 -0.1538 -1.1039 -1.5885
  111OSM   H18U11529   3.079   6.726   9.535  0.2823  0.0583 -0.5809
  111OSM    C1F11530   2.292   6.455  10.469  0.0750 -0.1018  0.7487
  111OSM     OF11531   2.224   6.554  10.470 -0.7094 -0.2824 -0.3082
  111OSM    C2F11532   2.307   6.358  10.351  0.1164 -0.7876  0.0391
  111OSM    H2F11533   2.226   6.282  10.356 -0.6633  0.0395  0.1561
  111OSM    H2G11534   2.411   6.320  10.359  0.1522 -0.6063  0.4293
  111OSM    C3F11535   2.284   6.441  10.222 -0.3971 -0.1312 -0.6077
  111OSM    H3F11536   2.358   6.523  10.223 -0.0519 -0.4161 -1.5929
  111OSM    H3G11537   2.179   6.478  10.223 -0.8566 -1.3370  0.9670
  111OSM    C4F11538   2.316   6.350  10.104 -0.1476 -0.2688  0.0803
  111OSM    H4F11539   2.251   6.261  10.121  0.7600 -1.3357 -1.7226
  111OSM    H4G11540   2.422   6.320  10.122 -0.6136 -1.0356  1.6906
  111OSM    C5F11541   2.285   6.406   9.968  0.2965 -0.4671  1.1323
  111OSM    H5F11542   2.349   6.493   9.942 -1.6781  1.2117  1.6550
  111OSM    H5G11543   2.183   6.449   9.973 -0.2545 -1.5156 -0.2773
  111OSM    C6F11544   2.278   6.308   9.853 -1.1356  0.3397 -0.6966
  111OSM    H6F11545   2.227   6.212   9.876 -0.4174 -0.3331 -1.8467
  111OSM    H6G11546   2.380   6.270   9.829 -1.4824 -2.1362  1.2215
  111OSM    C7F11547   2.210   6.359   9.732 -0.1943 -1.0784  0.3701
  111OSM    H7F11548   2.100   6.346   9.740 -0.7230  2.4173  0.5652
  111OSM    H7G11549   2.249   6.305   9.643  0.2736 -0.0066 -0.0987
  111OSM    C8F11550   2.244   6.509   9.710  0.0522  0.3006 -0.2670
  111OSM    H8F11551   2.351   6.536   9.718  0.4684 -0.3922 -2.6913
  111OSM    H8G11552   2.185   6.570   9.781 -3.3551  0.1586 -2.7209
  111OSM    C9F11553   2.199   6.549   9.572 -0.0732 -0.0771 -0.6257
  111OSM    H9F11554   2.102   6.600   9.564 -0.2317 -0.3751 -0.6077
  111OSM   C10F11555   2.266   6.523   9.456 -0.8585 -0.1640  0.4303
  111OSM   H10F11556   2.233   6.560   9.359 -0.7031  1.1100  0.8500
  111OSM   C11F11557   2.405   6.459   9.444 -0.3126 -0.4834  0.2226
  111OSM   H11F11558   2.398   6.373   9.374  1.3883 -1.0942  0.7573
  111OSM   H11G11559   2.436   6.412   9.540 -1.5674 -1.6002  0.1082
  111OSM   C12F11560   2.509   6.558   9.389 -0.1314 -0.4912  0.3003
  111OSM   H12F11561   2.602   6.498   9.381 -0.1972 -0.5809  0.2144
  111OSM   H12G11562   2.528   6.643   9.458  0.0251 -0.0939 -0.2254
  111OSM   C13F11563   2.474   6.614   9.249 -0.6510 -0.2151  0.3967
  111OSM   H13F11564   2.384   6.679   9.258 -0.5628 -0.2212  1.4247
  111OSM   H13G11565   2.447   6.523   9.191  1.3425 -0.5933  0.0067
  111OSM   C14F11566   2.587   6.684   9.178 -0.4426 -0.0799 -0.0310
  111OSM   H14F11567   2.665   6.614   9.140  1.3498  2.0173 -0.4751
  111OSM   H14G11568   2.637   6.758   9.244  0.5991 -0.0837 -0.7827
  111OSM   C15F11569   2.529   6.763   9.056 -0.7053 -0.0081  1.4298
  111OSM   H15F11570   2.603   6.838   9.019 -2.6139  1.6713  0.8115
  111OSM   H15G11571   2.432   6.811   9.083 -0.0295  0.7419  2.6051
  111OSM   C16F11572   2.484   6.681   8.937  0.2627  0.3230  0.3712
  111OSM   H16F11573   2.471   6.746   8.847  0.2257  0.3068  0.3651
  111OSM   H16G11574   2.382   6.642   8.957  0.2102 -0.1986 -0.7842
  111OSM   C17F11575   2.583   6.565   8.899  0.0718 -0.4191  0.0236
  111OSM   H17F11576   2.592   6.492   8.983 -0.1400 -1.8187 -1.1232
  111OSM   H17G11577   2.686   6.604   8.884  0.3478 -0.8950  0.6171
  111OSM   C18F11578   2.532   6.483   8.774  0.3772  0.1111  0.1947
  111OSM   H18F11579   2.443   6.425   8.806  0.4601  0.4363  1.0639
  111OSM   H18G11580   2.600   6.411   8.724 -1.5650 -0.4347 -1.8221
  111OSM   H18H11581   2.501   6.558   8.698  2.1218  0.1047 -0.5756
  112OSM      N11582   1.266   2.763  11.005  0.1785 -0.2929 -0.3228
  112OSM    C1511583   1.261   2.873  10.907 -0.0378  0.1133 -0.1267
  112OSM   H15A11584   1.323   2.858  10.820 -0.4299  1.1967 -0.6155
  112OSM   H15B11585   1.304   2.956  10.960 -0.2191  1.0089 -1.3283
  112OSM   H15C11586   1.160   2.908  10.886  0.0021  1.8952  2.2364
  112OSM    C1411587   1.411   2.747  11.045  0.2652  1.0919 -0.2076
  112OSM   H14A11588   1.409   2.656  11.102  2.2118  1.6271  0.7903
  112OSM   H14B11589   1.444   2.831  11.104  1.8435 -0.9820  2.0403
  112OSM   H14C11590   1.472   2.745  10.956 -0.6202  3.1522 -0.9211
  112OSM    C1311591   1.170   2.801  11.117 -0.1673 -0.1174 -0.0988
  112OSM   H13A11592   1.202   2.888  11.172 -0.1145 -0.7185  0.8594
  112OSM   H13B11593   1.142   2.724  11.189 -1.1964  0.5744  0.2660
  112OSM   H13C11594   1.076   2.832  11.074  0.7871  0.9476 -1.5038
  112OSM    C1211595   1.218   2.637  10.937  0.5917 -0.2594 -0.4775
  112OSM   H12A11596   1.221   2.558  11.011  0.0402 -0.0999 -0.2749
  112OSM   H12B11597   1.299   2.617  10.869 -0.5842  1.0383 -2.3522
  112OSM    C1111598   1.078   2.630  10.870  0.8494  0.4043 -0.8675
  112OSM   H11A11599   1.065   2.532  10.820 -0.1249  0.4002 -0.6194
  112OSM   H11B11600   1.076   2.702  10.786  1.0534 -2.1782 -3.2515
  112OSM      P11601   0.926   2.544  11.069  0.5145 -0.0936  0.1235
  112OSM    O1311602   1.036   2.465  11.128  0.2812  0.3912  0.6546
  112OSM    O1411603   0.858   2.634  11.167 -0.5555 -0.1151  0.6789
  112OSM    O1111604   0.808   2.456  11.002 -0.4369 -0.1285  0.3929
  112OSM    O1211605   0.974   2.649  10.968 -0.6000 -0.0490 -0.2146
  112OSM    C1S11606   0.702   2.519  10.926  0.7751 -0.0305  0.6916
  112OSM    H1S11607   0.689   2.620  10.971  0.8269  0.8588 -1.2035
  112OSM    H1T11608   0.603   2.470  10.939  0.0920  1.0922 -0.0524
  112OSM     NF11609   0.623   2.625  10.728 -0.1147 -0.6138 -0.4235
  112OSM    HNF11610   0.548   2.565  10.705  1.3686 -2.2827 -1.1205
  112OSM    C2S11611   0.736   2.551  10.776 -0.0125  0.0047 -0.7886
  112OSM    H2S11612   0.829   2.611  10.765 -0.3320  0.6351 -0.1188
  112OSM    C3S11613   0.764   2.428  10.688  0.3887 -0.6010  0.5078
  112OSM    H3S11614   0.672   2.366  10.682  0.8622 -1.2343 -0.4214
  112OSM     O311615   0.859   2.348  10.752  0.0422  0.4944 -0.0483
  112OSM    HO311616   0.869   2.387  10.839  0.9987  0.4638 -0.1403
  112OSM    C4S11617   0.801   2.467  10.551 -0.4042  0.9383 -0.2936
  112OSM    H4S11618   0.725   2.463  10.472 -0.8130  2.3480 -0.0050
  112OSM    C5S11619   0.932   2.490  10.514  0.4129  0.2698 -0.5215
  112OSM    H5S11620   1.012   2.478  10.589  0.0809 -2.4327 -0.4888
  112OSM    C6S11621   0.971   2.526  10.376 -1.1211  0.3210  0.1101
  112OSM    H6S11622   1.017   2.433  10.336  1.2066  1.3025  0.3124
  112OSM    H6T11623   1.049   2.605  10.383 -1.6359  0.8329  0.1766
  112OSM    C7S11624   0.859   2.574  10.283 -1.1775 -0.3435  0.5108
  112OSM    H7S11625   0.811   2.663  10.330  0.7834  1.1838 -0.2646
  112OSM    H7T11626   0.782   2.498  10.259  0.9772 -2.1533 -1.1069
  112OSM    C8S11627   0.907   2.626  10.148  0.2336  0.2264  0.3772
  112OSM    H8S11628   0.983   2.706  10.159 -0.6824  1.2172 -0.2956
  112OSM    H8T11629   0.828   2.672  10.086  1.2120  0.2919 -0.8643
  112OSM    C9S11630   0.968   2.517  10.063 -0.7809 -0.0011 -0.2539
  112OSM    H9S11631   0.909   2.423  10.064  0.9749 -1.1550 -0.0650
  112OSM    H9T11632   1.057   2.498  10.128  1.0936  2.7177 -1.8486
  112OSM   C10S11633   1.004   2.559   9.919 -0.2166  0.3525  0.5728
  112OSM   H10S11634   1.085   2.489   9.892 -2.3926 -3.4956  3.0980
  112OSM   H10T11635   1.039   2.664   9.906  0.9195  0.2409  2.4395
  112OSM   C11S11636   0.894   2.529   9.820  0.2224 -0.0440  0.7795
  112OSM   H11S11637   0.803   2.592   9.831 -1.4832 -2.2984  0.1623
  112OSM   H11T11638   0.862   2.423   9.827 -3.2227  0.8427  0.0635
  112OSM   C12S11639   0.943   2.557   9.679 -0.5321  0.5073 -0.7091
  112OSM   H12S11640   1.043   2.509   9.664 -0.3378  0.8599 -0.5566
  112OSM   H12T11641   0.953   2.667   9.667  2.2659  0.4147  0.1118
  112OSM   C13S11642   0.839   2.497   9.577  0.4560 -0.4600  0.3101
  112OSM   H13S11643   0.756   2.571   9.573  2.7091  2.2478  0.4296
  112OSM   H13T11644   0.809   2.401   9.623  0.3342 -0.1671  0.8576
  112OSM   C14S11645   0.891   2.482   9.437 -0.2785  0.4867 -0.6285
  112OSM   H14S11646   0.965   2.399   9.434 -0.7660 -0.0452  0.9422
  112OSM   H14T11647   0.949   2.574   9.417 -3.6026  2.5247 -1.7344
  112OSM   C15S11648   0.783   2.450   9.330 -0.9612 -0.1349 -0.6205
  112OSM   H15S11649   0.715   2.536   9.314  1.3996  2.3792  1.7445
  112OSM   H15T11650   0.724   2.365   9.370  1.1656 -0.3477  2.4429
  112OSM   C16S11651   0.849   2.400   9.201  0.1655 -0.7284 -0.0311
  112OSM   H16S11652   0.931   2.330   9.228 -0.8646 -1.9894 -0.1077
  112OSM   H16T11653   0.893   2.485   9.145  4.1562 -1.2482  1.9244
  112OSM   C17S11654   0.762   2.312   9.116  0.5640 -0.5222  0.2271
  112OSM   H17S11655   0.739   2.222   9.177  2.8188 -0.2945  1.5421
  112OSM   H17T11656   0.807   2.276   9.021  2.9546  1.7351  0.3572
  112OSM   C18S11657   0.645   2.400   9.074  0.4298  0.0313  0.6029
  112OSM   H18S11658   0.580   2.438   9.155 -0.1338  0.9925 -0.2763
  112OSM   H18T11659   0.587   2.337   9.003  0.4137  0.8347 -0.1088
  112OSM   H18U11660   0.691   2.487   9.024 -1.1769  0.2473 -0.6007
  112OSM    C1F11661   0.623   2.760  10.746  0.0208 -0.1719 -0.1869
  112OSM     OF11662   0.716   2.820  10.793  0.7948 -0.3670 -0.1890
  112OSM    C2F11663   0.496   2.838  10.713  0.1194 -0.4833  0.6789
  112OSM    H2F11664   0.494   2.913  10.795  2.1244 -0.5938  0.8773
  112OSM    H2G11665   0.405   2.774  10.720  0.0245 -0.5423 -0.7761
  112OSM    C3F11666   0.512   2.903  10.574  0.3132 -0.5408  0.4916
  112OSM    H3F11667   0.593   2.979  10.583 -0.4618  0.4076 -0.2852
  112OSM    H3G11668   0.421   2.962  10.552 -0.5245 -1.5438  1.1752
  112OSM    C4F11669   0.539   2.799  10.461  0.5479 -0.4558 -0.7111
  112OSM    H4F11670   0.468   2.713  10.467  1.6672 -1.3376  0.1394
  112OSM    H4G11671   0.639   2.755  10.479  0.3434 -0.1449  1.3799
  112OSM    C5F11672   0.524   2.876  10.326  0.1541  0.4831  0.6995
  112OSM    H5F11673   0.608   2.949  10.325 -0.8336  1.6498 -0.1968
  112OSM    H5G11674   0.428   2.933  10.324 -1.2459 -1.7572 -1.2788
  112OSM    C6F11675   0.504   2.788  10.198  0.3359  0.1143 -0.5330
  112OSM    H6F11676   0.396   2.767  10.179  0.7150 -1.2770 -1.2611
  112OSM    H6G11677   0.555   2.693  10.225  3.5095  1.6210 -0.8349
  112OSM    C7F11678   0.562   2.840  10.070 -0.1016 -0.0062 -0.3651
  112OSM    H7F11679   0.670   2.828  10.092  0.3516  2.2577 -1.0849
  112OSM    H7G11680   0.532   2.946  10.056 -1.5350 -0.1006  1.4420
  112OSM    C8F11681   0.526   2.768   9.941 -0.4181  0.4588 -0.3684
  112OSM    H8F11682   0.554   2.661   9.951 -1.7626  0.0402 -0.8969
  112OSM    H8G11683   0.592   2.815   9.864  0.7260 -1.5819 -0.7023
  112OSM    C9F11684   0.378   2.780   9.920  0.1997 -0.2711  0.8142
  112OSM    H9F11685   0.313   2.739   9.998 -3.0622  0.3094 -1.3477
  112OSM   C10F11686   0.318   2.855   9.829  0.4815  0.9424 -0.4708
  112OSM   H10F11687   0.208   2.859   9.820  0.6113  1.4478 -2.3703
  112OSM   C11F11688   0.389   2.929   9.725  0.9212 -0.1229  0.9288
  112OSM   H11F11689   0.489   2.960   9.760  1.6857 -0.0269 -1.2023
  112OSM   H11G11690   0.333   3.021   9.697  0.4325 -0.2661  1.4152
  112OSM   C12F11691   0.421   2.845   9.588  0.0351  0.1305 -0.2373
  112OSM   H12F11692   0.328   2.828   9.529 -0.7636 -0.3777  1.1171
  112OSM   H12G11693   0.463   2.744   9.605  0.5064 -0.0640 -2.2793
  112OSM   C13F11694   0.516   2.919   9.491 -0.1169  0.0294 -0.1208
  112OSM   H13F11695   0.608   2.958   9.541  0.6011  2.5212 -3.0335
  112OSM   H13G11696   0.469   3.016   9.461 -0.1093 -0.4123 -1.6526
  112OSM   C14F11697   0.545   2.847   9.360 -0.1735 -0.3478 -0.3207
  112OSM   H14F11698   0.452   2.802   9.321  0.3959 -1.4857 -0.4119
  112OSM   H14G11699   0.606   2.759   9.390  0.8454 -0.4293 -2.4148
  112OSM   C15F11700   0.621   2.916   9.252  0.2433  0.1126 -1.2023
  112OSM   H15F11701   0.711   2.974   9.281  0.2347 -0.1831 -0.5594
  112OSM   H15G11702   0.555   2.996   9.212 -0.5061  0.1302  0.0192
  112OSM   C16F11703   0.666   2.808   9.157  0.1698 -0.0494  0.6237
  112OSM   H16F11704   0.574   2.747   9.150  0.7509 -1.0770  1.5887
  112OSM   H16G11705   0.747   2.749   9.205 -0.9064 -0.4595  1.9671
  112OSM   C17F11706   0.712   2.875   9.023 -0.7733  0.7037 -0.0011
  112OSM   H17F11707   0.803   2.937   9.039  1.9950 -2.5627 -1.7424
  112OSM   H17G11708   0.634   2.944   8.983  0.4102  0.5898 -2.7841
  112OSM   C18F11709   0.757   2.781   8.915  0.2971 -0.3665 -0.0683
  112OSM   H18F11710   0.832   2.710   8.957 -0.0965  0.8840  2.9713
  112OSM   H18G11711   0.790   2.840   8.826  0.8412 -3.9920 -2.4808
  112OSM   H18H11712   0.667   2.720   8.893 -1.8041  1.9471  1.5431
  113OSM      N11713   5.043   6.233  11.073 -0.2885  0.4625  0.2997
  113OSM    C1511714   4.966   6.326  10.984 -0.2663 -0.2851  0.3872
  113OSM   H15A11715   4.876   6.280  10.946  0.3180 -0.5914 -0.6678
  113OSM   H15B11716   5.027   6.360  10.902  1.3721 -1.2351  1.1739
  113OSM   H15C11717   4.944   6.416  11.040 -1.0100  1.0263 -1.8360
  113OSM    C1411718   5.113   6.314  11.167  0.1293  0.0000 -0.0064
  113OSM   H14A11719   5.163   6.252  11.240 -0.4075  1.1324  1.3795
  113OSM   H14B11720   5.042   6.379  11.215 -0.5535 -0.2605 -0.6443
  113OSM   H14C11721   5.180   6.379  11.112 -1.3079  0.9066 -0.7399
  113OSM    C1311722   4.937   6.159  11.148 -0.3108  0.2930  0.2133
  113OSM   H13A11723   4.985   6.091  11.218 -0.3261 -1.0237 -1.0154
  113OSM   H13B11724   4.889   6.093  11.077  1.1105  1.8280 -2.2807
  113OSM   H13C11725   4.861   6.220  11.195  0.5194 -0.7399  3.1334
  113OSM    C1211726   5.133   6.144  10.997 -0.0186  0.2502  0.2216
  113OSM   H12A11727   5.211   6.207  10.956  0.7471 -1.1060 -0.4683
  113OSM   H12B11728   5.089   6.100  10.908  2.2905 -1.3701 -0.1979
  113OSM    C1111729   5.207   6.033  11.074 -0.4022  0.2837 -0.1788
  113OSM   H11A11730   5.263   5.968  11.003 -0.1822 -0.3444  0.5408
  113OSM   H11B11731   5.133   5.955  11.101  1.4190 -2.1670 -1.8058
  113OSM      P11732   5.438   6.114  11.164 -0.3646 -0.2309  0.7223
  113OSM    O1311733   5.487   6.179  11.288  0.4815 -0.1599  0.1713
  113OSM    O1411734   5.504   5.990  11.127 -0.7318  0.0681  0.0493
  113OSM    O1111735   5.439   6.219  11.039  0.1617  0.3906 -0.2338
  113OSM    O1211736   5.289   6.081  11.180  0.0852  0.2404 -0.3051
  113OSM    C1S11737   5.558   6.294  11.010  0.4900  0.2102 -0.3117
  113OSM    H1S11738   5.623   6.299  11.099 -1.2415 -0.6351  1.0566
  113OSM    H1T11739   5.529   6.400  10.988  2.5541  0.5456 -1.6724
  113OSM     NF11740   5.761   6.307  10.881  0.1528  0.0682  0.0754
  113OSM    HNF11741   5.771   6.382  10.818 -2.0498  0.0236 -0.4071
  113OSM    C2S11742   5.631   6.241  10.892 -0.1884  0.5083  0.3901
  113OSM    H2S11743   5.660   6.137  10.917  0.7158  0.8630  0.8912
  113OSM    C3S11744   5.541   6.251  10.771  0.2242 -0.4134 -0.0487
  113OSM    H3S11745   5.504   6.356  10.763 -1.1804 -0.3860  4.3494
  113OSM     O311746   5.425   6.161  10.769 -0.7266 -0.6698 -0.4562
  113OSM    HO311747   5.413   6.118  10.854  1.5528 -1.5986 -0.5233
  113OSM    C4S11748   5.634   6.203  10.659 -0.4289  1.0643  0.2312
  113OSM    H4S11749   5.675   6.287  10.601  0.5283  0.5423  0.1445
  113OSM    C5S11750   5.659   6.076  10.625  0.3146  0.2340  0.1033
  113OSM    H5S11751   5.605   5.996  10.677  0.7293 -0.0131  0.1632
  113OSM    C6S11752   5.748   6.035  10.506 -0.5275 -0.2663  0.2148
  113OSM    H6S11753   5.695   5.976  10.429 -1.1293  1.8533 -1.0723
  113OSM    H6T11754   5.829   5.971  10.545 -1.4884 -0.1007  2.7291
  113OSM    C7S11755   5.803   6.152  10.420  0.7273  0.3914  0.0693
  113OSM    H7S11756   5.868   6.212  10.488 -0.9334  0.2395  1.8922
  113OSM    H7T11757   5.713   6.210  10.389  1.1920  1.4178  0.5944
  113OSM    C8S11758   5.880   6.105  10.294  1.0402  0.9104 -0.0291
  113OSM    H8S11759   5.963   6.033  10.306  1.0510  0.7983 -0.7347
  113OSM    H8T11760   5.928   6.193  10.247  0.1754  0.8966 -0.9861
  113OSM    C9S11761   5.791   6.024  10.194 -0.5351 -0.1252 -0.5063
  113OSM    H9S11762   5.694   6.079  10.192 -0.1528  0.5991 -2.5082
  113OSM    H9T11763   5.768   5.930  10.247  0.3903  1.4852  3.0051
  113OSM   C10S11764   5.853   6.005  10.053 -1.0838  0.1159  0.5220
  113OSM   H10S11765   5.959   5.970  10.054 -1.4783 -1.1663 -0.2985
  113OSM   H10T11766   5.852   6.107  10.010  2.7565  0.2689  0.4381
  113OSM   C11S11767   5.761   5.909   9.971 -0.1604 -0.1845  0.1942
  113OSM   H11S11768   5.656   5.944   9.981 -0.4199  0.0211 -2.4713
  113OSM   H11T11769   5.760   5.812  10.025 -1.2110  0.0015  0.5211
  113OSM   C12S11770   5.785   5.899   9.818 -0.1066  0.6637 -0.3403
  113OSM   H12S11771   5.758   5.795   9.788 -1.9208  0.7606  0.7770
  113OSM   H12T11772   5.888   5.922   9.785 -0.4753  0.6276 -1.5896
  113OSM   C13S11773   5.696   6.003   9.741 -0.2419 -0.0021  0.1306
  113OSM   H13S11774   5.735   6.106   9.758 -0.2422 -0.1566  1.0914
  113OSM   H13T11775   5.589   6.004   9.770  0.1703 -1.3765  1.8485
  113OSM   C14S11776   5.698   5.977   9.587 -0.4139 -0.2312  0.3235
  113OSM   H14S11777   5.652   5.884   9.550 -0.6292 -0.1447  0.3722
  113OSM   H14T11778   5.802   5.969   9.549  0.1678 -2.7959  2.1750
  113OSM   C15S11779   5.632   6.091   9.505  0.2339  0.4564 -0.1100
  113OSM   H15S11780   5.703   6.176   9.505  0.5723  0.1723 -0.4465
  113OSM   H15T11781   5.537   6.125   9.552  0.2997  1.7842 -0.9066
  113OSM   C16S11782   5.589   6.036   9.367 -0.5807 -0.3324 -0.2677
  113OSM   H16S11783   5.509   5.959   9.369  1.0265 -2.0787 -0.8176
  113OSM   H16T11784   5.680   5.988   9.325 -0.0745  1.5676 -1.4760
  113OSM   C17S11785   5.536   6.147   9.273 -0.4380  0.8532 -0.6169
  113OSM   H17S11786   5.628   6.208   9.260 -0.0198  0.8110  1.6496
  113OSM   H17T11787   5.452   6.207   9.315  1.0024 -0.4502  5.0334
  113OSM   C18S11788   5.492   6.083   9.143 -0.1293 -0.0793  0.1504
  113OSM   H18S11789   5.549   5.988   9.130  0.3287  0.2831 -0.5712
  113OSM   H18T11790   5.512   6.163   9.068  0.4784  0.5582  0.9753
  113OSM   H18U11791   5.384   6.061   9.151 -0.0350 -0.5316  0.2048
  113OSM    C1F11792   5.854   6.283  10.963 -0.8505  0.2735 -0.7176
  113OSM     OF11793   5.856   6.178  11.035 -0.6097 -0.1200  0.1766
  113OSM    C2F11794   5.970   6.380  10.965 -0.0627  0.3686  0.6038
  113OSM    H2F11795   6.050   6.335  11.027 -1.5363 -2.7352  0.4820
  113OSM    H2G11796   5.939   6.479  11.004 -1.2908  0.1932  0.1248
  113OSM    C3F11797   6.020   6.415  10.822  0.5038  0.6939 -0.2149
  113OSM    H3F11798   6.100   6.490  10.839 -1.4965  2.8667  0.0310
  113OSM    H3G11799   5.931   6.460  10.772 -0.0023 -0.2062 -0.1634
  113OSM    C4F11800   6.054   6.288  10.741  0.5137 -0.6121 -0.3085
  113OSM    H4F11801   5.964   6.241  10.696 -0.0322 -0.3511  0.4957
  113OSM    H4G11802   6.092   6.213  10.814 -0.9310 -0.0756  1.0386
  113OSM    C5F11803   6.153   6.320  10.624  0.4034  0.3284  0.9823
  113OSM    H5F11804   6.250   6.365  10.654  1.0323 -0.2560 -0.1099
  113OSM    H5G11805   6.104   6.381  10.546  0.7502 -0.3855  0.1895
  113OSM    C6F11806   6.183   6.180  10.555  0.4014  0.3397  0.5119
  113OSM    H6F11807   6.086   6.133  10.529 -0.2514  1.2180  1.2921
  113OSM    H6G11808   6.230   6.125  10.640 -0.9713 -0.5611  0.7188
  113OSM    C7F11809   6.263   6.205  10.425  0.7533 -0.5804 -0.0533
  113OSM    H7F11810   6.345   6.268  10.465 -0.3348 -1.3546  3.8169
  113OSM    H7G11811   6.195   6.268  10.364  1.3004  1.0818  0.9690
  113OSM    C8F11812   6.304   6.080  10.348  0.1594  0.3446 -0.2793
  113OSM    H8F11813   6.218   6.024  10.305  0.7415 -0.6924 -0.1269
  113OSM    H8G11814   6.348   6.015  10.427 -1.4371  0.8487  1.0859
  113OSM    C9F11815   6.401   6.120  10.237  0.0232 -0.9747  0.1831
  113OSM    H9F11816   6.506   6.124  10.270  0.0305 -0.6709  0.1236
  113OSM   C10F11817   6.362   6.145  10.114 -0.4672 -0.2454 -0.4047
  113OSM   H10F11818   6.447   6.163  10.046 -0.6217 -0.1068 -0.5643
  113OSM   C11F11819   6.218   6.143  10.064 -0.1124 -0.8713  0.8499
  113OSM   H11F11820   6.161   6.224  10.114 -0.3286 -0.7438  0.4082
  113OSM   H11G11821   6.169   6.045  10.086 -0.3667 -0.2495  3.3756
  113OSM   C12F11822   6.207   6.153   9.902  0.1029  0.2336  0.4420
  113OSM   H12F11823   6.233   6.255   9.869 -0.6117  0.3760  0.2896
  113OSM   H12G11824   6.101   6.141   9.870  0.6518 -1.2606 -0.9456
  113OSM   C13F11825   6.285   6.038   9.829 -0.2881 -0.4818  0.3164
  113OSM   H13F11826   6.268   5.941   9.880  3.3871 -0.8636  1.0909
  113OSM   H13G11827   6.394   6.043   9.846 -0.3454 -2.0407  1.3657
  113OSM   C14F11828   6.240   6.032   9.684 -0.0791  0.4498 -0.9001
  113OSM   H14F11829   6.131   6.010   9.681 -0.2404  0.7542  1.2091
  113OSM   H14G11830   6.288   5.939   9.647  1.8127  1.3768 -0.8613
  113OSM   C15F11831   6.278   6.153   9.595  0.3780  0.4624  0.1739
  113OSM   H15F11832   6.389   6.162   9.605  0.0992  2.3427  3.0005
  113OSM   H15G11833   6.234   6.243   9.644  0.9144  0.4618  0.6743
  113OSM   C16F11834   6.221   6.148   9.457 -0.0604 -0.7049  0.1454
  113OSM   H16F11835   6.267   6.063   9.403  1.3066  0.2143 -0.2149
  113OSM   H16G11836   6.264   6.238   9.407 -0.1871  0.1110  1.4540
  113OSM   C17F11837   6.068   6.167   9.448 -0.9793  0.2321 -0.8609
  113OSM   H17F11838   6.050   6.265   9.499  3.3268  0.3890  0.8221
  113OSM   H17G11839   6.021   6.090   9.513  0.6759 -0.9187 -0.9573
  113OSM   C18F11840   6.013   6.182   9.312  0.0944 -0.0692  0.2519
  113OSM   H18F11841   6.034   6.090   9.253 -0.0169  1.0355 -1.5853
  113OSM   H18G11842   6.064   6.267   9.261  0.3044  1.6374  3.0924
  113OSM   H18H11843   5.904   6.203   9.309  0.1231 -0.0186 -0.6022
  114OSM      N11844   0.066   1.623  10.950 -0.8330 -0.1100  0.0795
  114OSM    C1511845  -0.024   1.738  10.972  0.5315 -0.0447 -0.2641
  114OSM   H15A11846  -0.113   1.702  11.022 -1.2685  2.6441 -1.3454
  114OSM   H15B11847  -0.055   1.783  10.879 -0.9369  0.1058  0.2596
  114OSM   H15C11848   0.015   1.810  11.042 -0.0901  1.6226 -1.5826
  114OSM    C1411849   0.118   1.565  11.076 -0.1822 -0.3185  0.0263
  114OSM   H14A11850   0.166   1.638  11.140  1.1583 -0.8118 -0.3737
  114OSM   H14B11851   0.196   1.496  11.046 -0.4744 -1.0905  0.9807
  114OSM   H14C11852   0.053   1.507  11.140  1.1995 -0.3094  1.5082
  114OSM    C1311853  -0.009   1.516  10.870 -0.6280  0.3094 -0.5517
  114OSM   H13A11854   0.058   1.432  10.860 -0.0889  0.5035  1.1385
  114OSM   H13B11855  -0.036   1.546  10.769 -3.1424 -0.6297 -0.2433
  114OSM   H13C11856  -0.105   1.501  10.918 -0.1747 -0.2100  0.2029
  114OSM    C1211857   0.172   1.673  10.856 -0.0111  0.3773 -0.6162
  114OSM   H12A11858   0.133   1.717  10.766  0.3512 -0.5462 -1.2427
  114OSM   H12B11859   0.231   1.591  10.818  0.0689 -0.2914  0.8853
  114OSM    C1111860   0.277   1.781  10.907  0.8271 -0.2240  0.6343
  114OSM   H11A11861   0.223   1.873  10.940 -1.8438 -0.8301 -1.6336
  114OSM   H11B11862   0.342   1.814  10.823  2.3773 -2.5011  0.8671
  114OSM      P11863   0.483   1.644  10.990 -0.4752  0.0976 -0.3303
  114OSM    O1311864   0.562   1.633  11.120 -0.3621  0.2661  0.4824
  114OSM    O1411865   0.431   1.519  10.932  0.1216 -0.2813 -0.2175
  114OSM    O1111866   0.580   1.726  10.886 -0.0492 -0.5122  0.0912
  114OSM    O1211867   0.364   1.745  11.011  0.1921  0.0624 -0.1542
  114OSM    C1S11868   0.616   1.657  10.771 -0.0583  0.4828 -0.0072
  114OSM    H1S11869   0.533   1.600  10.723  1.1188  0.0711 -1.5995
  114OSM    H1T11870   0.699   1.589  10.800  0.7019  2.2961  2.4279
  114OSM     NF11871   0.703   1.677  10.541 -0.0463 -0.2807  0.4794
  114OSM    HNF11872   0.799   1.656  10.527 -0.3882 -2.3129  0.8569
  114OSM    C2S11873   0.670   1.753  10.661 -0.1127 -0.3128 -0.5843
  114OSM    H2S11874   0.591   1.831  10.651 -0.9258 -0.7351  1.9775
  114OSM    C3S11875   0.793   1.839  10.709  0.3798 -0.4612 -0.4080
  114OSM    H3S11876   0.867   1.765  10.744  0.3797  0.8802  2.7430
  114OSM     O311877   0.781   1.923  10.826  0.0480  0.4936  0.7717
  114OSM    HO311878   0.729   1.873  10.889  1.7669  1.5771  3.2008
  114OSM    C4S11879   0.853   1.908  10.591  0.3165  0.0443 -1.1487
  114OSM    H4S11880   0.938   1.848  10.553 -0.8409 -1.4953 -1.3751
  114OSM    C5S11881   0.814   2.024  10.539 -0.6159  0.4683 -0.1140
  114OSM    H5S11882   0.721   2.067  10.578 -0.5518 -0.2096  0.8125
  114OSM    C6S11883   0.878   2.078  10.409  0.3579  0.7037 -0.1628
  114OSM    H6S11884   0.984   2.100  10.432 -0.3611  2.3882  1.9464
  114OSM    H6T11885   0.827   2.173  10.380  1.2199  1.3796  0.4679
  114OSM    C7S11886   0.866   1.984  10.295  0.3973  0.2701  0.5473
  114OSM    H7S11887   0.762   1.978  10.257  0.5828 -0.9139  0.1914
  114OSM    H7T11888   0.900   1.879  10.303  0.5404  0.2420 -0.3050
  114OSM    C8S11889   0.937   2.056  10.178  0.4212  0.1244 -0.1402
  114OSM    H8S11890   1.044   2.087  10.177  0.2100  0.8508 -0.8345
  114OSM    H8T11891   0.880   2.149  10.156  2.5407  0.8416 -3.1490
  114OSM    C9S11892   0.928   1.969  10.052 -1.3562 -0.2352  0.0581
  114OSM    H9S11893   0.822   1.935  10.040 -1.3402 -0.7531  1.2394
  114OSM    H9T11894   0.993   1.880  10.061 -0.0830  0.7547  0.9570
  114OSM   C10S11895   0.965   2.054   9.924  0.8356 -0.1229  0.4907
  114OSM   H10S11896   1.075   2.063   9.919  0.9324  0.7156  2.8636
  114OSM   H10T11897   0.915   2.153   9.930 -0.0187 -0.4507 -0.7707
  114OSM   C11S11898   0.912   2.004   9.795  0.4898 -0.0750  0.3295
  114OSM   H11S11899   0.803   1.988   9.785  0.5491 -0.3937  0.1781
  114OSM   H11T11900   0.964   1.906   9.795  2.7097  1.0044  2.1399
  114OSM   C12S11901   0.956   2.089   9.673 -0.4088 -0.6391 -0.0347
  114OSM   H12S11902   1.065   2.110   9.678 -0.0700 -2.2894  0.3867
  114OSM   H12T11903   0.907   2.188   9.683 -0.2111 -0.6028  0.6671
  114OSM   C13S11904   0.908   2.031   9.540 -0.0239  0.7643  0.5015
  114OSM   H13S11905   0.957   1.934   9.514 -0.1170  0.6962  0.5768
  114OSM   H13T11906   0.936   2.105   9.463 -3.2254 -0.9858 -2.6481
  114OSM   C14S11907   0.758   2.003   9.516 -0.9353  0.9889 -0.3454
  114OSM   H14S11908   0.706   2.093   9.557 -1.1529  0.2273  1.1106
  114OSM   H14T11909   0.728   1.907   9.562 -2.7949  0.5226 -2.4007
  114OSM   C15S11910   0.726   1.976   9.366 -0.3442 -0.3469 -0.5341
  114OSM   H15S11911   0.783   1.889   9.326 -1.7494 -0.6871 -1.8793
  114OSM   H15T11912   0.760   2.062   9.305  0.6227 -0.5755 -0.3326
  114OSM   C16S11913   0.584   1.958   9.342 -0.0635  0.1822  0.6584
  114OSM   H16S11914   0.540   2.059   9.339  0.1618  0.2769  0.5249
  114OSM   H16T11915   0.538   1.895   9.422 -1.4045 -0.4909 -0.6057
  114OSM   C17S11916   0.537   1.879   9.214  0.1724  0.1955  0.0298
  114OSM   H17S11917   0.426   1.874   9.213  0.1176  0.7379  1.0649
  114OSM   H17T11918   0.576   1.776   9.221  0.0230  0.1456  0.1391
  114OSM   C18S11919   0.573   1.949   9.084  0.2063  0.1391  0.7294
  114OSM   H18S11920   0.527   2.049   9.097  0.7609  0.3091  1.4148
  114OSM   H18T11921   0.521   1.889   9.006  0.4937  0.7680  0.0360
  114OSM   H18U11922   0.680   1.972   9.065  0.4971 -1.7640 -0.1949
  114OSM    C1F11923   0.617   1.609  10.459 -0.0542  0.1882 -0.6306
  114OSM     OF11924   0.500   1.603  10.495 -0.1082  0.8258 -0.4938
  114OSM    C2F11925   0.681   1.524  10.357  0.0821 -0.4141  0.2741
  114OSM    H2F11926   0.650   1.419  10.373 -1.1221 -0.2438 -0.7732
  114OSM    H2G11927   0.791   1.514  10.363 -0.0030 -1.1723  0.6730
  114OSM    C3F11928   0.638   1.565  10.216  0.4718 -0.0902 -0.8007
  114OSM    H3F11929   0.533   1.547  10.183  0.8117  1.7727 -3.1781
  114OSM    H3G11930   0.699   1.507  10.144 -2.2234  0.2261 -3.5537
  114OSM    C4F11931   0.665   1.714  10.184  0.7992  0.6736 -0.2301
  114OSM    H4F11932   0.773   1.737  10.178  1.5398 -1.7749  2.0247
  114OSM    H4G11933   0.612   1.778  10.258 -0.2074 -2.4799  1.9881
  114OSM    C5F11934   0.586   1.766  10.059 -0.3499 -0.1484  0.3498
  114OSM    H5F11935   0.593   1.877  10.056 -0.2624 -0.1066  1.5167
  114OSM    H5G11936   0.477   1.754  10.079 -0.5604  0.2655 -0.5312
  114OSM    C6F11937   0.621   1.688   9.928 -0.5732  0.2917 -1.0328
  114OSM    H6F11938   0.604   1.579   9.942 -0.1594  0.4647  1.1986
  114OSM    H6G11939   0.730   1.703   9.919  0.0467  0.5527  4.2214
  114OSM    C7F11940   0.551   1.747   9.807 -0.0245 -0.1480  0.6060
  114OSM    H7F11941   0.589   1.847   9.778 -2.3344  0.7469  0.4452
  114OSM    H7G11942   0.441   1.765   9.810 -0.2988 -1.5757 -0.0111
  114OSM    C8F11943   0.563   1.666   9.674 -0.0903 -0.2752 -0.1502
  114OSM    H8F11944   0.510   1.718   9.592  1.1496 -0.4920 -1.1255
  114OSM    H8G11945   0.502   1.575   9.695 -1.8444  0.5101 -1.6051
  114OSM    C9F11946   0.703   1.619   9.658 -0.2230  0.1706  0.5636
  114OSM    H9F11947   0.746   1.583   9.753  1.4494  0.6364  0.0244
  114OSM   C10F11948   0.764   1.588   9.542 -0.1046 -0.5846 -0.8671
  114OSM   H10F11949   0.865   1.547   9.557 -0.2665 -0.6201  0.2022
  114OSM   C11F11950   0.718   1.603   9.400  0.2337 -0.4069 -0.3562
  114OSM   H11F11951   0.807   1.637   9.344 -0.4318  0.8220 -0.7146
  114OSM   H11G11952   0.632   1.674   9.399  0.8223  0.6009  3.9016
  114OSM   C12F11953   0.670   1.465   9.338  0.7969 -0.0780 -0.0796
  114OSM   H12F11954   0.598   1.412   9.403  1.1081  1.1381  1.2954
  114OSM   H12G11955   0.758   1.406   9.305  2.3071  2.5063 -1.0075
  114OSM   C13F11956   0.586   1.507   9.218 -0.0864  0.3175  0.4687
  114OSM   H13F11957   0.632   1.588   9.158 -0.0677 -0.7753 -1.0516
  114OSM   H13G11958   0.487   1.540   9.256 -0.5723 -0.2805 -0.2556
  114OSM   C14F11959   0.561   1.384   9.124 -0.7306  0.1738 -0.6088
  114OSM   H14F11960   0.467   1.410   9.071 -0.9949  1.4725  0.4146
  114OSM   H14G11961   0.544   1.303   9.197 -2.9362  0.1826 -1.0336
  114OSM   C15F11962   0.691   1.354   9.050 -0.4957  0.5739 -0.1511
  114OSM   H15F11963   0.767   1.341   9.130 -0.5661  0.5137 -0.0939
  114OSM   H15G11964   0.721   1.446   8.995 -2.1262  0.4262 -1.3503
  114OSM   C16F11965   0.692   1.236   8.957  0.4699  0.8571  0.2055
  114OSM   H16F11966   0.679   1.147   9.022 -0.5968  0.2905 -0.7567
  114OSM   H16G11967   0.793   1.225   8.912 -0.1121 -3.0608 -0.4426
  114OSM   C17F11968   0.598   1.233   8.833 -0.6611  0.0025 -0.4831
  114OSM   H17F11969   0.496   1.232   8.876  0.4407  0.6503  2.3589
  114OSM   H17G11970   0.604   1.132   8.787 -2.1155 -0.4849  0.3300
  114OSM   C18F11971   0.608   1.347   8.731 -0.0812  0.7068 -0.4259
  114OSM   H18F11972   0.713   1.347   8.693 -0.6732 -0.2745 -2.1845
  114OSM   H18G11973   0.603   1.440   8.792 -0.3674 -1.2186  2.7345
  114OSM   H18H11974   0.529   1.348   8.654 -2.4100 -1.6361  1.7427
  115OSM      N11975   3.377   1.021  11.347 -0.1003 -1.1621 -0.2161
  115OSM    C1511976   3.255   1.067  11.280  0.2822 -0.3044 -0.0226
  115OSM   H15A11977   3.272   1.142  11.204  0.9003 -0.0480  0.3588
  115OSM   H15B11978   3.184   1.118  11.342 -0.0956 -0.7080 -0.1173
  115OSM   H15C11979   3.197   0.985  11.240  0.0625 -0.2506  0.1886
  115OSM    C1411980   3.457   1.137  11.390  0.0109 -0.7290  0.0803
  115OSM   H14A11981   3.496   1.183  11.301 -1.1158  1.0057  0.4360
  115OSM   H14B11982   3.539   1.118  11.458  0.2151  1.6923  0.5826
  115OSM   H14C11983   3.391   1.208  11.439 -0.3353 -0.2274 -1.0869
  115OSM    C1311984   3.340   0.943  11.474  0.9358  0.1317  0.3230
  115OSM   H13A11985   3.277   1.003  11.539 -2.6890 -0.2874 -2.4873
  115OSM   H13B11986   3.435   0.917  11.519  1.2103  1.5749  0.6332
  115OSM   H13C11987   3.297   0.849  11.445  2.0700  0.4921 -2.9379
  115OSM    C1211988   3.456   0.936  11.248 -0.1496  0.7285  0.9973
  115OSM   H12A11989   3.404   0.854  11.199  0.7622 -1.1872  3.0531
  115OSM   H12B11990   3.541   0.891  11.297  0.4549 -0.2805 -0.8977
  115OSM    C1111991   3.522   1.010  11.125 -0.9073  0.0105 -0.3135
  115OSM   H11A11992   3.456   1.056  11.049 -1.3181 -1.6247 -0.9859
  115OSM   H11B11993   3.557   0.922  11.067  2.9288 -1.5810  3.8361
  115OSM      P11994   3.767   1.039  11.203  0.4753  0.3685 -0.3223
  115OSM    O1311995   3.855   1.150  11.246  0.7577  0.1991 -0.2242
  115OSM    O1411996   3.745   0.934  11.301 -0.2708  0.9021  0.2381
  115OSM    O1111997   3.818   0.970  11.072 -0.0036  0.2894 -0.2146
  115OSM    O1211998   3.626   1.104  11.156 -0.1179  0.1417 -0.2925
  115OSM    C1S11999   3.792   1.022  10.946 -0.7143  0.5509  0.8044
  115OSM    H1S12000   3.805   1.133  10.941  0.9262  0.3586  0.2013
  115OSM    H1T12001   3.686   1.012  10.915 -0.1696  0.2324 -1.0621
  115OSM     NF12002   3.872   1.018  10.697 -0.0828 -0.0435  0.4658
  115OSM    HNF12003   3.808   1.010  10.621  0.2318 -1.8891  0.3652
  115OSM    C2S12004   3.874   0.941  10.824 -0.0133 -0.6155  0.4712
  115OSM    H2S12005   3.979   0.930  10.858  0.5577  0.3706 -0.8563
  115OSM    C3S12006   3.820   0.794  10.816  0.0259  0.3471 -0.4389
  115OSM    H3S12007   3.712   0.795  10.792 -0.5529  3.5592  1.6955
  115OSM     O312008   3.820   0.727  10.947  0.2499  0.0771  0.6826
  115OSM    HO312009   3.827   0.799  11.011  1.9137  0.4138  0.1648
  115OSM    C4S12010   3.910   0.720  10.720 -0.1384  0.1837  0.6627
  115OSM    H4S12011   4.011   0.710  10.762 -0.2978  1.7940  1.5353
  115OSM    C5S12012   3.870   0.661  10.605  0.1316  0.1659 -0.9719
  115OSM    H5S12013   3.771   0.679  10.560  0.7349  1.5455 -1.8185
  115OSM    C6S12014   3.951   0.588  10.505  0.3767 -0.1286 -0.4793
  115OSM    H6S12015   3.938   0.478  10.519  0.4795 -0.1694 -0.7154
  115OSM    H6T12016   4.058   0.614  10.517 -0.0013  0.6873  1.6326
  115OSM    C7S12017   3.904   0.636  10.370  0.3354 -0.2666  0.4143
  115OSM    H7S12018   3.933   0.741  10.351  2.0854 -0.9972 -1.2963
  115OSM    H7T12019   3.796   0.614  10.353  0.2859 -0.1925  0.6205
  115OSM    C8S12020   3.990   0.566  10.262 -0.1875  0.4203 -0.2621
  115OSM    H8S12021   3.974   0.458  10.283 -1.3495  0.0214 -2.7615
  115OSM    H8T12022   4.099   0.582  10.280 -0.5194  3.0673 -0.2685
  115OSM    C9S12023   3.954   0.613  10.120  0.6355  0.0003 -0.2032
  115OSM    H9S12024   3.961   0.723  10.104 -0.4284 -0.1335 -1.8176
  115OSM    H9T12025   3.850   0.585  10.093  0.5200 -0.5431  0.7614
  115OSM   C10S12026   4.053   0.550  10.019  0.2398 -0.5735 -0.0580
  115OSM   H10S12027   4.035   0.441  10.033 -1.1800 -0.4090 -0.4844
  115OSM   H10T12028   4.153   0.577  10.058  0.0370  0.3597 -0.1702
  115OSM   C11S12029   4.025   0.610   9.881  0.3458 -0.3183 -0.6529
  115OSM   H11S12030   4.090   0.698   9.860 -0.0831  0.3164  0.6234
  115OSM   H11T12031   3.919   0.643   9.877 -0.3158 -2.2140  0.0739
  115OSM   C12S12032   4.030   0.503   9.769 -0.4881 -0.2285 -0.7760
  115OSM   H12S12033   3.964   0.424   9.810 -0.7129  0.1764 -0.3388
  115OSM   H12T12034   4.135   0.471   9.756 -0.5468 -1.0767  0.6673
  115OSM   C13S12035   3.981   0.563   9.635  0.3622  0.3170  0.4856
  115OSM   H13S12036   4.023   0.659   9.597 -0.1246  0.3482  0.0238
  115OSM   H13T12037   3.872   0.572   9.653 -0.2417 -2.7959 -0.8043
  115OSM   C14S12038   4.007   0.464   9.516 -0.3968  0.2005  0.5669
  115OSM   H14S12039   3.944   0.373   9.530  0.4087 -0.4866 -0.1879
  115OSM   H14T12040   4.111   0.430   9.500  0.1076  3.0220 -3.9866
  115OSM   C15S12041   3.961   0.530   9.387  0.1872 -0.1335 -0.2814
  115OSM   H15S12042   4.009   0.630   9.378  1.4607 -0.7399 -0.5834
  115OSM   H15T12043   3.852   0.552   9.387  0.2640  0.4037 -1.9959
  115OSM   C16S12044   3.985   0.446   9.259  0.2520  0.4040 -0.6140
  115OSM   H16S12045   3.927   0.352   9.247  1.5577 -0.0778 -4.5188
  115OSM   H16T12046   4.095   0.431   9.261  0.4538  1.8310  0.1983
  115OSM   C17S12047   3.961   0.535   9.132 -0.0759 -0.0945  0.2510
  115OSM   H17S12048   4.036   0.615   9.146 -1.6519  1.0971  2.6072
  115OSM   H17T12049   3.856   0.570   9.128 -0.6717 -1.5729  1.7265
  115OSM   C18S12050   4.000   0.457   8.998  0.1480 -0.2233 -0.4293
  115OSM   H18S12051   3.927   0.374   8.990  1.9016 -1.7752 -1.0430
  115OSM   H18T12052   4.100   0.413   9.019 -1.3044 -1.8221  4.4887
  115OSM   H18U12053   3.996   0.522   8.908  1.6466 -3.5156 -3.0943
  115OSM    C1F12054   3.956   1.126  10.691  0.8962 -0.0388  0.4292
  115OSM     OF12055   4.033   1.148  10.785  0.3311 -0.2396 -1.0371
  115OSM    C2F12056   3.947   1.212  10.570 -0.2669 -0.2601  0.3567
  115OSM    H2F12057   3.967   1.320  10.587  0.7324 -0.3725 -0.0480
  115OSM    H2G12058   3.845   1.209  10.526 -0.3643  1.0347  0.4265
  115OSM    C3F12059   4.061   1.170  10.471 -0.6305 -0.4152  0.5415
  115OSM    H3F12060   4.067   1.060  10.461  1.2310 -0.2127 -0.9968
  115OSM    H3G12061   4.163   1.193  10.509 -0.2784  4.0361 -2.3718
  115OSM    C4F12062   4.049   1.244  10.333 -0.0490 -0.3505 -0.1609
  115OSM    H4F12063   4.057   1.351  10.360 -0.2619  0.1813 -2.0651
  115OSM    H4G12064   3.947   1.231  10.292 -1.2844 -0.5025  2.6934
  115OSM    C5F12065   4.162   1.198  10.234  0.0470  0.4019  0.1575
  115OSM    H5F12066   4.265   1.205  10.276  0.3209 -0.9479 -0.2370
  115OSM    H5G12067   4.163   1.275  10.154 -2.0187  0.8442  0.5026
  115OSM    C6F12068   4.141   1.060  10.170 -0.3193  0.0340  0.2674
  115OSM    H6F12069   4.133   0.989  10.255  1.4280 -1.0934 -0.4314
  115OSM    H6G12070   4.232   1.037  10.109  0.2114 -0.7951  1.3337
  115OSM    C7F12071   4.018   1.037  10.086 -0.0827 -0.3617  0.3728
  115OSM    H7F12072   3.962   1.132  10.075  0.2552 -0.3901 -2.4012
  115OSM    H7G12073   3.955   0.964  10.141 -1.6420  0.5662 -0.1094
  115OSM    C8F12074   4.056   0.982   9.943  0.1438  0.2808 -0.2704
  115OSM    H8F12075   3.962   0.961   9.888 -0.9939  0.7380  1.4156
  115OSM    H8G12076   4.104   0.884   9.959 -0.1445  0.0864 -0.5867
  115OSM    C9F12077   4.143   1.075   9.858  0.3143 -0.0901 -0.7837
  115OSM    H9F12078   4.195   1.152   9.919  2.3859 -0.6141 -1.8089
  115OSM   C10F12079   4.160   1.075   9.725 -0.0361  0.0622  0.4136
  115OSM   H10F12080   4.223   1.158   9.689  0.4643  1.3548  3.8637
  115OSM   C11F12081   4.104   0.976   9.626  0.5427  0.3430  0.0714
  115OSM   H11F12082   4.010   0.931   9.666  1.6342  0.0152  2.4594
  115OSM   H11G12083   4.174   0.893   9.604 -0.3303 -0.0090 -1.4867
  115OSM   C12F12084   4.082   1.035   9.477 -0.2697 -0.0391 -0.5399
  115OSM   H12F12085   4.173   1.092   9.447 -0.3158 -0.3094 -1.2179
  115OSM   H12G12086   3.988   1.092   9.489 -2.8739 -4.1070 -0.0877
  115OSM   C13F12087   4.058   0.927   9.370 -0.5653 -0.5239  0.4229
  115OSM   H13F12088   3.965   0.875   9.400 -1.1326  0.8707  1.1807
  115OSM   H13G12089   4.135   0.847   9.358  0.0852  0.0994  0.3162
  115OSM   C14F12090   4.038   0.996   9.226 -0.0235 -0.0232 -0.0808
  115OSM   H14F12091   4.122   1.069   9.217 -0.8964  0.9076 -0.9229
  115OSM   H14G12092   3.945   1.055   9.235 -0.5506  0.1702 -4.4287
  115OSM   C15F12093   4.024   0.899   9.110 -0.3992  0.4148  0.1978
  115OSM   H15F12094   3.977   0.949   9.023 -0.0753  2.3816  1.0986
  115OSM   H15G12095   3.965   0.809   9.137  0.5390  0.0553  1.1282
  115OSM   C16F12096   4.160   0.850   9.049 -0.1150  1.0220  0.2971
  115OSM   H16F12097   4.121   0.799   8.958 -0.6400  0.5333  0.7849
  115OSM   H16G12098   4.212   0.775   9.112  0.8759  0.7195 -0.8432
  115OSM   C17F12099   4.268   0.958   9.025  0.1862  0.0973  0.5844
  115OSM   H17F12100   4.310   0.986   9.123  1.2409 -0.4506  0.3001
  115OSM   H17G12101   4.210   1.041   8.979  0.9372 -0.4129 -1.3963
  115OSM   C18F12102   4.383   0.928   8.937 -0.5928 -0.3823  0.9385
  115OSM   H18F12103   4.350   0.908   8.833  2.3446 -2.1960  0.2504
  115OSM   H18G12104   4.425   0.834   8.979  1.3508 -0.3108 -0.7103
  115OSM   H18H12105   4.465   1.002   8.934 -0.3643 -0.6438 -1.3285
  116OSM      N12106   1.970   5.250  11.174 -0.2345  0.0782 -0.2101
  116OSM    C1512107   1.842   5.190  11.206 -0.4823 -0.6769  0.3912
  116OSM   H15A12108   1.778   5.206  11.120 -0.3539  0.4281  0.4892
  116OSM   H15B12109   1.798   5.240  11.291  0.3288  1.5945 -0.4517
  116OSM   H15C12110   1.840   5.087  11.237 -1.4879 -0.3248  1.5723
  116OSM    C1412111   2.037   5.275  11.309 -0.0093 -0.0084  0.0175
  116OSM   H14A12112   2.118   5.347  11.313  0.3080 -0.3968  1.0719
  116OSM   H14B12113   2.081   5.184  11.348  3.3288  1.8963  1.1179
  116OSM   H14C12114   1.968   5.307  11.385  0.5071  0.2574  0.3804
  116OSM    C1312115   2.055   5.158  11.091  0.1980  0.3248 -0.4313
  116OSM   H13A12116   2.148   5.200  11.056  1.5912 -2.2041 -0.0380
  116OSM   H13B12117   1.993   5.127  11.009 -0.3968 -2.3230  0.9044
  116OSM   H13C12118   2.077   5.072  11.153  1.7649  1.4607  0.6972
  116OSM    C1212119   1.960   5.383  11.101  0.0971 -0.2587  0.7940
  116OSM   H12A12120   2.052   5.435  11.081  0.8532 -2.1267 -0.9926
  116OSM   H12B12121   1.899   5.449  11.160 -0.1647 -1.2811  1.7024
  116OSM    C1112122   1.893   5.378  10.963 -0.5348 -0.3576 -0.0355
  116OSM   H11A12123   1.940   5.297  10.904 -1.4698 -1.2943  0.4708
  116OSM   H11B12124   1.914   5.481  10.928 -0.3556 -0.2053  0.5130
  116OSM      P12125   1.628   5.435  10.955  0.2787 -0.2496 -0.1850
  116OSM    O1312126   1.517   5.331  10.935  0.0771 -0.0509  0.6729
  116OSM    O1412127   1.610   5.515  11.077 -0.4354 -0.3537 -0.1477
  116OSM    O1112128   1.650   5.533  10.832  0.0841 -0.6567  0.1794
  116OSM    O1212129   1.760   5.349  10.963  0.8256 -0.1839 -0.3255
  116OSM    C1S12130   1.692   5.471  10.709 -0.1018  1.0504  0.4852
  116OSM    H1S12131   1.725   5.365  10.716  0.0016  1.1073  0.9423
  116OSM    H1T12132   1.784   5.515  10.666  0.0876  0.5964  0.4165
  116OSM     NF12133   1.639   5.434  10.474 -0.0096  0.0324 -0.0132
  116OSM    HNF12134   1.695   5.492  10.415  0.7358 -0.9813 -0.3387
  116OSM    C2S12135   1.590   5.489  10.590 -0.1783 -0.1700 -0.4802
  116OSM    H2S12136   1.499   5.429  10.614  1.1185 -1.1508  2.4187
  116OSM    C3S12137   1.548   5.647  10.578  0.2375  0.2417  0.0476
  116OSM    H3S12138   1.639   5.709  10.565 -1.1365  2.0388 -1.5933
  116OSM     O312139   1.476   5.708  10.688 -0.2443  0.2494 -0.0927
  116OSM    HO312140   1.481   5.633  10.746  0.1088 -1.5557 -2.3103
  116OSM    C4S12141   1.460   5.658  10.459 -0.0017 -0.3241  0.2559
  116OSM    H4S12142   1.358   5.621  10.476 -0.7698  1.7802  0.4636
  116OSM    C5S12143   1.504   5.721  10.348  0.2867  0.0882  0.1599
  116OSM    H5S12144   1.612   5.734  10.335  0.8276 -2.9441  0.8214
  116OSM    C6S12145   1.436   5.736  10.224  0.2269  0.6444  0.4200
  116OSM    H6S12146   1.393   5.640  10.188  1.7045  0.4222 -0.8148
  116OSM    H6T12147   1.515   5.771  10.155 -0.6707  0.1917 -0.8683
  116OSM    C7S12148   1.312   5.827  10.238 -0.1975 -0.0875  0.2464
  116OSM    H7S12149   1.334   5.933  10.265 -3.2845  0.5285  0.6884
  116OSM    H7T12150   1.248   5.778  10.314 -0.2973 -0.1283  0.1339
  116OSM    C8S12151   1.237   5.830  10.104 -1.0424  0.1110  0.6926
  116OSM    H8S12152   1.142   5.886  10.121 -1.8497 -0.8993 -0.3275
  116OSM    H8T12153   1.214   5.728  10.068 -1.6220  0.6337 -0.4691
  116OSM    C9S12154   1.312   5.896   9.986  0.0670  0.7260 -0.5268
  116OSM    H9S12155   1.405   5.838   9.971 -0.7091 -1.0054  1.0590
  116OSM    H9T12156   1.327   6.004  10.009 -2.2361  0.2661  4.1787
  116OSM   C10S12157   1.239   5.870   9.849 -0.1991 -0.3536 -0.0071
  116OSM   H10S12158   1.152   5.939   9.857 -1.6514 -1.9962 -0.8650
  116OSM   H10T12159   1.210   5.764   9.837  1.8227 -1.2125  1.9290
  116OSM   C11S12160   1.327   5.914   9.735 -0.5913  0.3571 -0.0509
  116OSM   H11S12161   1.417   5.851   9.750  0.4808  1.3929 -1.8053
  116OSM   H11T12162   1.365   6.018   9.743  0.5584 -0.0339 -0.2252
  116OSM   C12S12163   1.270   5.895   9.593  0.7775  0.1737 -0.0873
  116OSM   H12S12164   1.163   5.924   9.585  0.7529  0.3565  0.8697
  116OSM   H12T12165   1.264   5.785   9.577 -0.4248  0.4185 -1.5113
  116OSM   C13S12166   1.340   5.966   9.477  0.8183  0.0851  0.6568
  116OSM   H13S12167   1.444   5.928   9.466  0.2153 -1.8589  1.2275
  116OSM   H13T12168   1.334   6.076   9.484  2.9042  0.2572  0.3442
  116OSM   C14S12169   1.273   5.932   9.338 -0.3502  0.7249 -0.0906
  116OSM   H14S12170   1.167   5.960   9.358 -0.3534  0.2958  0.5525
  116OSM   H14T12171   1.268   5.822   9.323 -1.5307  0.8203 -0.5299
  116OSM   C15S12172   1.328   6.002   9.214 -0.3582  0.1029 -0.7403
  116OSM   H15S12173   1.439   6.009   9.218 -0.1757 -0.6498 -2.8477
  116OSM   H15T12174   1.296   6.108   9.217 -1.1291 -0.1052 -1.3945
  116OSM   C16S12175   1.297   5.935   9.080  0.5772 -0.9025 -0.1613
  116OSM   H16S12176   1.188   5.913   9.085  0.5558 -0.6268  0.9631
  116OSM   H16T12177   1.353   5.841   9.068  3.0559  0.6828 -2.0592
  116OSM   C17S12178   1.315   6.021   8.952 -0.3539 -0.5069 -0.7249
  116OSM   H17S12179   1.418   6.062   8.953 -0.8432  0.7959  1.5870
  116OSM   H17T12180   1.244   6.106   8.958  0.5963  0.2109  0.7479
  116OSM   C18S12181   1.297   5.947   8.819 -0.2100  0.2479 -0.4435
  116OSM   H18S12182   1.365   5.859   8.813  0.6153  0.7420  1.1842
  116OSM   H18T12183   1.325   6.023   8.743  2.5194 -0.8481 -0.6751
  116OSM   H18U12184   1.192   5.911   8.809 -0.0231 -0.4480  0.0390
  116OSM    C1F12185   1.652   5.304  10.453  0.0624  0.5716  0.4044
  116OSM     OF12186   1.615   5.217  10.530  0.5304 -0.0818  0.6604
  116OSM    C2F12187   1.726   5.262  10.325  0.7097 -0.9662  0.1927
  116OSM    H2F12188   1.811   5.195  10.353  2.1431  1.1537  1.1417
  116OSM    H2G12189   1.774   5.350  10.278  2.9664 -2.5481 -0.6798
  116OSM    C3F12190   1.635   5.199  10.218  0.5779  0.8947 -0.2347
  116OSM    H3F12191   1.580   5.111  10.257  0.6292  0.9640 -0.0023
  116OSM    H3G12192   1.695   5.170  10.129  1.6097  0.0342  0.7050
  116OSM    C4F12193   1.542   5.315  10.156  0.0759  0.7055  1.0751
  116OSM    H4F12194   1.619   5.386  10.121 -1.3130  1.6432 -0.1833
  116OSM    H4G12195   1.474   5.365  10.228 -0.2003 -0.8459  1.9412
  116OSM    C5F12196   1.467   5.261  10.033 -0.5472 -0.3407  0.6054
  116OSM    H5F12197   1.389   5.190  10.067 -1.1053 -0.4352 -0.7901
  116OSM    H5G12198   1.544   5.197   9.984 -1.1480 -0.5193 -0.1346
  116OSM    C6F12199   1.405   5.364   9.940  0.2130 -0.1206  0.1217
  116OSM    H6F12200   1.494   5.419   9.903  2.2540 -1.5157  2.6667
  116OSM    H6G12201   1.352   5.425  10.016 -0.1877  0.2636 -0.4507
  116OSM    C7F12202   1.326   5.311   9.827 -0.2133  0.5244 -0.2108
  116OSM    H7F12203   1.240   5.250   9.861 -0.8068  0.5289 -1.6235
  116OSM    H7G12204   1.390   5.243   9.767  0.8201  2.1291 -1.0183
  116OSM    C8F12205   1.264   5.425   9.738  0.1412  0.1339 -0.2108
  116OSM    H8F12206   1.203   5.486   9.808  0.2228  1.0459 -0.9280
  116OSM    H8G12207   1.190   5.385   9.666 -1.4551  0.3262  1.2522
  116OSM    C9F12208   1.369   5.519   9.678  0.7438  0.1419 -0.2363
  116OSM    H9F12209   1.419   5.571   9.762 -1.3602 -0.7951  1.7207
  116OSM   C10F12210   1.401   5.536   9.548 -0.3399  0.4711 -0.2080
  116OSM   H10F12211   1.477   5.611   9.519  0.0602  0.9356  1.8664
  116OSM   C11F12212   1.345   5.450   9.440  0.3054  0.0331  0.3914
  116OSM   H11F12213   1.234   5.458   9.434  0.2126 -1.4946 -0.3604
  116OSM   H11G12214   1.370   5.343   9.454 -0.0616 -0.8147 -4.0070
  116OSM   C12F12215   1.380   5.508   9.295 -0.2352  0.1363  0.3430
  116OSM   H12F12216   1.490   5.506   9.279 -0.4105  1.7824 -1.3370
  116OSM   H12G12217   1.354   5.615   9.291 -1.9023 -0.2631 -0.3121
  116OSM   C13F12218   1.302   5.438   9.182 -0.4379  0.2616 -0.1374
  116OSM   H13F12219   1.194   5.429   9.205 -0.2892 -0.1579  0.4073
  116OSM   H13G12220   1.351   5.340   9.167  1.0610  1.1116 -1.0971
  116OSM   C14F12221   1.329   5.511   9.044 -0.3823 -0.5923 -0.4587
  116OSM   H14F12222   1.427   5.562   9.034 -1.0839  0.4008 -3.2161
  116OSM   H14G12223   1.264   5.600   9.061  1.3977  0.3542  1.8267
  116OSM   C15F12224   1.288   5.434   8.922 -0.0927 -0.0827  0.3670
  116OSM   H15F12225   1.183   5.401   8.938 -0.5383  2.0365  2.4204
  116OSM   H15G12226   1.346   5.339   8.925 -0.5634 -0.3672  2.6511
  116OSM   C16F12227   1.312   5.498   8.783  0.4494  0.2240 -0.6268
  116OSM   H16F12228   1.304   5.420   8.704 -1.6877  1.0267 -1.2716
  116OSM   H16G12229   1.413   5.544   8.781  0.3957  0.3524 -0.3689
  116OSM   C17F12230   1.214   5.601   8.746 -0.9041  0.1650 -0.0378
  116OSM   H17F12231   1.212   5.676   8.828  1.5846 -1.2062  1.4119
  116OSM   H17G12232   1.109   5.564   8.745 -0.5380 -0.9300  0.2762
  116OSM   C18F12233   1.246   5.679   8.614  0.4334 -0.6317  0.6198
  116OSM   H18F12234   1.345   5.729   8.613  0.6093 -0.7824 -3.0306
  116OSM   H18G12235   1.177   5.765   8.599  2.1180  0.4846 -1.2924
  116OSM   H18H12236   1.240   5.613   8.525  0.9581 -1.7324  1.3764
  117OSM      N12237   6.133   5.253  10.929 -0.1996  0.2557  0.2187
  117OSM    C1512238   6.059   5.120  10.923 -0.1125 -0.1163 -0.3407
  117OSM   H15A12239   5.968   5.126  10.865  0.5345 -2.2055 -1.6864
  117OSM   H15B12240   6.038   5.083  11.022 -2.4656  1.8300 -0.0065
  117OSM   H15C12241   6.119   5.042  10.881 -0.7868 -1.9488  1.8898
  117OSM    C1412242   6.177   5.282  10.791  0.5005  0.9710  0.3792
  117OSM   H14A12243   6.239   5.370  10.785  3.1572 -0.6821  1.5029
  117OSM   H14B12244   6.103   5.286  10.713  0.7309 -0.8483  0.0266
  117OSM   H14C12245   6.248   5.211  10.750  0.5203  1.5471 -0.6109
  117OSM    C1312246   6.031   5.347  10.969  0.4282  0.4967 -0.6909
  117OSM   H13A12247   5.949   5.337  10.900  0.4121  0.0039 -0.6055
  117OSM   H13B12248   6.061   5.451  10.968 -0.5092  0.8068  0.8572
  117OSM   H13C12249   5.983   5.315  11.060  1.8988 -1.4332 -0.5414
  117OSM    C1212250   6.252   5.245  11.030 -0.0679 -0.4279  0.0060
  117OSM   H12A12251   6.318   5.330  11.040  2.5490 -2.4245  1.2045
  117OSM   H12B12252   6.309   5.159  10.996 -0.6107 -0.8835  0.2240
  117OSM    C1112253   6.228   5.198  11.180  0.3075  0.1807  0.0475
  117OSM   H11A12254   6.149   5.269  11.209  1.8408  1.9240  0.1455
  117OSM   H11B12255   6.318   5.217  11.242  0.4361 -1.5698  0.4682
  117OSM      P12256   6.292   4.945  11.146 -0.0580  0.2824  0.2588
  117OSM    O1312257   6.403   4.966  11.241 -0.5484 -0.5065 -0.1672
  117OSM    O1412258   6.228   4.813  11.148  0.6060  0.2864  0.4170
  117OSM    O1112259   6.347   4.986  11.000 -0.0577  0.1797 -0.4515
  117OSM    O1212260   6.189   5.060  11.177 -0.0641 -0.1044 -0.8376
  117OSM    C1S12261   6.388   4.880  10.916 -1.2178 -0.1249  0.8731
  117OSM    H1S12262   6.298   4.828  10.877 -0.1941 -1.3464  0.0370
  117OSM    H1T12263   6.448   4.800  10.966  0.1492  0.0534 -0.4297
  117OSM     NF12264   6.475   4.826  10.696  0.9360 -0.2285  0.5167
  117OSM    HNF12265   6.565   4.783  10.691 -0.0073 -2.2714  0.2157
  117OSM    C2S12266   6.464   4.934  10.788 -0.2838 -0.5449  0.4898
  117OSM    H2S12267   6.406   5.026  10.764  0.5435 -0.3289 -0.8118
  117OSM    C3S12268   6.605   4.995  10.818  0.5028 -0.3962  0.3555
  117OSM    H3S12269   6.670   4.909  10.848 -1.3806 -0.7650  3.8855
  117OSM     O312270   6.605   5.097  10.917  0.3012  0.4482  0.1340
  117OSM    HO312271   6.523   5.078  10.964  2.4073 -2.2314  3.1238
  117OSM    C4S12272   6.651   5.046  10.683 -0.3176 -0.7764  0.3510
  117OSM    H4S12273   6.699   4.979  10.610  1.3154  0.0607  0.6192
  117OSM    C5S12274   6.624   5.167  10.637 -0.2789 -0.0628  0.1462
  117OSM    H5S12275   6.558   5.227  10.702  1.3199 -0.5693  2.3753
  117OSM    C6S12276   6.656   5.224  10.507  0.2694 -0.4127  0.4620
  117OSM    H6S12277   6.743   5.292  10.520  0.8928 -1.1006  0.0271
  117OSM    H6T12278   6.563   5.278  10.479 -2.6090 -4.8613  0.3785
  117OSM    C7S12279   6.685   5.131  10.381  0.1661 -0.2636  0.1610
  117OSM    H7S12280   6.611   5.048  10.386 -1.8811  1.3782 -1.0060
  117OSM    H7T12281   6.780   5.076  10.396  0.1273 -0.6194 -0.8425
  117OSM    C8S12282   6.690   5.203  10.246  0.4069 -0.1887 -0.0366
  117OSM    H8S12283   6.622   5.290  10.239 -1.3088 -1.5364 -1.2099
  117OSM    H8T12284   6.649   5.126  10.177  1.3237  1.8582 -3.0729
  117OSM    C9S12285   6.830   5.248  10.191  0.3728 -0.4512  0.4124
  117OSM    H9S12286   6.898   5.162  10.204 -0.6998 -1.0826  2.2852
  117OSM    H9T12287   6.870   5.326  10.259 -2.6900  1.7740 -0.0960
  117OSM   C10S12288   6.830   5.314  10.052  0.4136  0.5589  0.6054
  117OSM   H10S12289   6.933   5.347  10.026 -0.1733  1.6575 -0.4487
  117OSM   H10T12290   6.766   5.405  10.042  1.5450  1.2681 -0.4094
  117OSM   C11S12291   6.800   5.205   9.947 -0.4067  0.0071 -0.2538
  117OSM   H11S12292   6.691   5.185   9.950 -0.1677 -1.4830 -0.5313
  117OSM   H11T12293   6.865   5.121   9.980 -0.8310  0.3822  1.6319
  117OSM   C12S12294   6.838   5.254   9.809 -0.9565  0.0550 -0.0522
  117OSM   H12S12295   6.947   5.277   9.807 -1.1207  0.9168  0.3946
  117OSM   H12T12296   6.786   5.352   9.800  1.7265  1.6377  0.5237
  117OSM   C13S12297   6.796   5.160   9.698 -0.1355 -0.0788  0.6943
  117OSM   H13S12298   6.688   5.139   9.707 -0.2093  0.0022  0.0176
  117OSM   H13T12299   6.860   5.070   9.710  1.1957  0.9470  1.5797
  117OSM   C14S12300   6.833   5.222   9.558 -0.0695 -0.3319 -0.3939
  117OSM   H14S12301   6.943   5.226   9.569 -0.2251 -2.7434  4.2976
  117OSM   H14T12302   6.793   5.326   9.551 -0.2365 -0.4357 -1.0179
  117OSM   C15S12303   6.794   5.150   9.430  0.1815 -0.5891 -0.0207
  117OSM   H15S12304   6.687   5.121   9.443  0.7099 -2.1693  1.1715
  117OSM   H15T12305   6.856   5.058   9.429  0.0150 -0.7776  1.9149
  117OSM   C16S12306   6.822   5.240   9.305 -0.4361  0.3368 -0.5880
  117OSM   H16S12307   6.928   5.266   9.327 -0.4890 -1.7324  3.0589
  117OSM   H16T12308   6.753   5.327   9.303 -0.8662  0.2349  3.0444
  117OSM   C17S12309   6.802   5.160   9.179  0.7484 -1.0868  0.0844
  117OSM   H17S12310   6.698   5.124   9.166  0.5938 -1.0860  1.1974
  117OSM   H17T12311   6.883   5.083   9.183  2.7208  0.7229 -1.8973
  117OSM   C18S12312   6.834   5.248   9.052  0.0253  0.3012 -0.9153
  117OSM   H18S12313   6.942   5.276   9.044 -0.6658  3.1154 -1.2568
  117OSM   H18T12314   6.776   5.342   9.064 -0.2188  0.2020 -1.3179
  117OSM   H18U12315   6.800   5.182   8.969  1.8585 -0.8867 -0.7995
  117OSM    C1F12316   6.371   4.784  10.622 -0.1159  0.2229 -0.4558
  117OSM     OF12317   6.261   4.830  10.636  0.1557  0.3933 -0.3075
  117OSM    C2F12318   6.387   4.667  10.528 -0.4893 -0.2350  0.4090
  117OSM    H2F12319   6.432   4.577  10.575  0.9282  0.3865  0.2849
  117OSM    H2G12320   6.455   4.695  10.446 -0.4892  0.1601  0.5401
  117OSM    C3F12321   6.247   4.634  10.464  0.0282  0.0445  0.0183
  117OSM    H3F12322   6.182   4.720  10.435  1.4486  0.4402 -2.1871
  117OSM    H3G12323   6.178   4.578  10.532 -0.1644  1.8737  1.4296
  117OSM    C4F12324   6.262   4.545  10.343 -0.0155 -0.0611 -1.0160
  117OSM    H4F12325   6.293   4.445  10.378 -0.1361  1.0209  2.6296
  117OSM    H4G12326   6.353   4.576  10.287  0.3306  0.0562 -0.4033
  117OSM    C5F12327   6.137   4.523  10.252  0.2741  0.2477 -0.1655
  117OSM    H5F12328   6.108   4.622  10.212 -1.7317 -1.2724 -2.8443
  117OSM    H5G12329   6.057   4.488  10.320  1.2135  1.3002  1.5385
  117OSM    C6F12330   6.159   4.423  10.137 -1.0308  0.2845 -0.9614
  117OSM    H6F12331   6.202   4.336  10.190 -0.8212  1.4381  0.8330
  117OSM    H6G12332   6.236   4.452  10.062 -1.2712  1.8249 -0.6548
  117OSM    C7F12333   6.025   4.395  10.064  0.1843 -0.7615  0.2309
  117OSM    H7F12334   6.005   4.485  10.003 -1.2143 -1.3357 -0.1878
  117OSM    H7G12335   5.942   4.369  10.133 -1.3376  2.7729 -0.0620
  117OSM    C8F12336   6.039   4.274   9.975 -1.3928 -1.2755  0.5626
  117OSM    H8F12337   6.076   4.197  10.046 -0.3101 -1.0218  0.2842
  117OSM    H8G12338   6.126   4.282   9.905  1.5269 -1.1249  3.9428
  117OSM    C9F12339   5.904   4.252   9.921  0.5996 -0.0559  0.4622
  117OSM    H9F12340   5.821   4.301   9.973  0.3358  0.1001 -0.1017
  117OSM   C10F12341   5.876   4.200   9.797  0.0080 -0.0413 -0.2581
  117OSM   H10F12342   5.772   4.174   9.777 -0.0857 -0.5369  0.8180
  117OSM   C11F12343   5.978   4.149   9.700 -0.5166 -0.0951 -0.7617
  117OSM   H11F12344   5.972   4.039   9.692 -0.8594 -0.0451 -1.2216
  117OSM   H11G12345   6.081   4.177   9.732  0.0850 -0.0015 -2.6890
  117OSM   C12F12346   5.971   4.216   9.559 -0.5463 -0.0745  0.7097
  117OSM   H12F12347   5.972   4.324   9.586  0.4134 -0.4040  2.0850
  117OSM   H12G12348   5.869   4.197   9.518  0.1686 -1.8297 -0.3859
  117OSM   C13F12349   6.073   4.158   9.459 -0.2044  0.0452 -0.6712
  117OSM   H13F12350   6.067   4.047   9.470 -1.4260  0.0683 -0.9750
  117OSM   H13G12351   6.177   4.186   9.483  0.4702  0.4611 -3.6924
  117OSM   C14F12352   6.050   4.200   9.317 -0.0704 -0.6516  0.3729
  117OSM   H14F12353   6.013   4.304   9.328  3.0535  0.5153  0.9686
  117OSM   H14G12354   5.961   4.153   9.272  0.1813  0.2342 -1.1219
  117OSM   C15F12355   6.175   4.184   9.235 -0.0310  0.5628  0.6278
  117OSM   H15F12356   6.212   4.081   9.214 -1.1097  0.5382 -1.5281
  117OSM   H15G12357   6.255   4.235   9.293 -0.2738  0.2985  1.2030
  117OSM   C16F12358   6.160   4.232   9.091  0.2852 -0.4075  0.8361
  117OSM   H16F12359   6.114   4.333   9.080  0.1711 -0.2602  2.4478
  117OSM   H16G12360   6.087   4.163   9.043  0.6036 -0.6366  0.6842
  117OSM   C17F12361   6.299   4.224   9.016 -0.1513  0.1299 -0.0091
  117OSM   H17F12362   6.285   4.251   8.909 -0.7607  2.3667  0.5636
  117OSM   H17G12363   6.346   4.124   9.012 -0.5183 -0.0322 -0.3807
  117OSM   C18F12364   6.400   4.325   9.074  0.2091  0.1806  0.4297
  117OSM   H18F12365   6.351   4.424   9.082  0.5192  0.4476 -0.7636
  117OSM   H18G12366   6.489   4.339   9.008 -0.9703  1.7502 -0.9193
  117OSM   H18H12367   6.428   4.300   9.178  0.2987  0.9816  0.6016
  118OSM      N12368   4.158   0.847  11.170 -0.2966 -0.3365 -0.1837
  118OSM    C1512369   4.043   0.743  11.155  0.2319  0.3168 -0.2101
  118OSM   H15A12370   3.956   0.761  11.217  1.3026 -0.1819  1.5124
  118OSM   H15B12371   4.073   0.641  11.174  2.0071  1.1360  1.7769
  118OSM   H15C12372   4.011   0.741  11.052 -0.2472 -1.1369 -0.0612
  118OSM    C1412373   4.117   0.980  11.124 -0.3975  0.3661 -0.1946
  118OSM   H14A12374   4.203   1.043  11.140 -2.6320  3.0293  2.4823
  118OSM   H14B12375   4.042   1.021  11.190  0.1353 -0.8320  1.2032
  118OSM   H14C12376   4.092   0.984  11.019  0.7335 -0.7731 -0.5347
  118OSM    C1312377   4.210   0.857  11.313 -0.3070 -0.2667  0.4590
  118OSM   H13A12378   4.227   0.762  11.361  2.2747  0.6689  1.6225
  118OSM   H13B12379   4.132   0.900  11.372  0.9477 -1.4952  3.1749
  118OSM   H13C12380   4.290   0.925  11.337 -2.7250  2.0443  2.5803
  118OSM    C1212381   4.282   0.802  11.084 -0.3927 -0.2406  0.8546
  118OSM   H12A12382   4.327   0.713  11.125  1.5117 -1.3239 -3.0262
  118OSM   H12B12383   4.361   0.871  11.108  0.2026 -0.6182  0.0472
  118OSM    C1112384   4.277   0.776  10.924 -0.0161  0.0189 -0.3303
  118OSM   H11A12385   4.374   0.766  10.872 -0.2668 -1.2957 -0.5699
  118OSM   H11B12386   4.229   0.861  10.870 -0.0939 -0.6917 -1.3911
  118OSM      P12387   4.252   0.517  10.907 -0.0201 -0.1854 -0.1952
  118OSM    O1312388   4.330   0.495  11.032  0.1509 -0.2344  0.8691
  118OSM    O1412389   4.143   0.427  10.875 -0.1119 -0.6056 -0.5410
  118OSM    O1112390   4.354   0.507  10.782  0.4788  0.2363  0.2565
  118OSM    O1212391   4.198   0.663  10.906  0.7076  0.5725  0.5902
  118OSM    C1S12392   4.443   0.399  10.777 -0.1894  0.5137  0.5087
  118OSM    H1S12393   4.392   0.309  10.736  1.2646 -0.8497  1.5649
  118OSM    H1T12394   4.491   0.372  10.874 -1.7475  0.8231  1.4097
  118OSM     NF12395   4.646   0.298  10.667 -0.1798  0.3690 -0.5068
  118OSM    HNF12396   4.745   0.314  10.665  0.5597 -2.7017  2.0545
  118OSM    C2S12397   4.558   0.412  10.673 -0.4494 -0.0719  0.0558
  118OSM    H2S12398   4.518   0.419  10.570 -1.3937  1.1488  0.4808
  118OSM    C3S12399   4.633   0.538  10.713 -0.6977 -0.6220 -0.7095
  118OSM    H3S12400   4.679   0.527  10.813  0.9315  1.2476 -1.1917
  118OSM     O312401   4.548   0.656  10.727 -0.0930 -0.0961  0.3638
  118OSM    HO312402   4.459   0.623  10.718  0.2186 -0.6602 -0.8482
  118OSM    C4S12403   4.755   0.560  10.627 -0.4309  0.7481 -0.6274
  118OSM    H4S12404   4.840   0.493  10.645 -0.6110  0.6721 -0.0364
  118OSM    C5S12405   4.757   0.649  10.524 -0.6180  0.6326  0.2476
  118OSM    H5S12406   4.674   0.719  10.509  0.1237  1.0384 -2.4841
  118OSM    C6S12407   4.863   0.652  10.425 -0.3143 -0.7361  0.0102
  118OSM    H6S12408   4.946   0.583  10.452  0.1770 -0.3202 -0.4134
  118OSM    H6T12409   4.907   0.754  10.425  2.3453 -1.8178  0.7178
  118OSM    C7S12410   4.797   0.633  10.289  0.3317 -0.0734 -0.2819
  118OSM    H7S12411   4.714   0.706  10.277 -0.4322 -1.0963 -1.3211
  118OSM    H7T12412   4.748   0.534  10.291  0.7935 -0.3744 -2.0059
  118OSM    C8S12413   4.896   0.660  10.180 -0.2870 -0.5098 -0.6281
  118OSM    H8S12414   4.959   0.572  10.156  0.0355 -0.0667 -1.4377
  118OSM    H8T12415   4.969   0.741  10.204  0.5573 -0.8993 -1.8131
  118OSM    C9S12416   4.838   0.705  10.048  0.8874 -0.4223 -0.4986
  118OSM    H9S12417   4.782   0.801  10.057 -1.5796 -1.6666 -1.7039
  118OSM    H9T12418   4.757   0.630  10.039  0.6589 -0.5338  1.8269
  118OSM   C10S12419   4.932   0.708   9.936 -0.0412  0.3491  0.3864
  118OSM   H10S12420   4.999   0.620   9.936  0.7550  0.9312  1.3736
  118OSM   H10T12421   5.003   0.794   9.941  1.0185 -0.5535  2.5328
  118OSM   C11S12422   4.855   0.704   9.802  0.2891  0.0572 -0.4520
  118OSM   H11S12423   4.761   0.763   9.812  1.3153  1.4100  2.4929
  118OSM   H11T12424   4.821   0.599   9.790  3.2411 -1.3659  2.1821
  118OSM   C12S12425   4.941   0.733   9.672  0.7838  0.9198 -0.2136
  118OSM   H12S12426   5.034   0.673   9.676 -1.0384 -2.1767 -1.0409
  118OSM   H12T12427   4.978   0.838   9.667  3.4315  0.0855  0.2150
  118OSM   C13S12428   4.865   0.689   9.548  0.1486 -0.0036  0.5718
  118OSM   H13S12429   4.769   0.745   9.552  0.6560  0.8290  1.4262
  118OSM   H13T12430   4.850   0.579   9.561  1.4333 -0.1275  1.1294
  118OSM   C14S12431   4.927   0.713   9.409  0.1446  0.3160  0.3541
  118OSM   H14S12432   4.912   0.822   9.393  1.6358  0.3776 -0.8774
  118OSM   H14T12433   4.866   0.666   9.328 -0.0389  2.4227 -0.8231
  118OSM   C15S12434   5.075   0.674   9.400  0.3388 -0.3424  0.8293
  118OSM   H15S12435   5.081   0.563   9.403 -2.0870 -0.5288  0.6268
  118OSM   H15T12436   5.145   0.701   9.481  1.6830 -0.2133 -0.3450
  118OSM   C16S12437   5.150   0.709   9.267  0.1293 -0.1651  0.4596
  118OSM   H16S12438   5.073   0.688   9.189  0.7818  0.8528 -0.4897
  118OSM   H16T12439   5.239   0.645   9.254  0.6767  0.4137  1.2794
  118OSM   C17S12440   5.181   0.857   9.267 -0.0314  0.4040  0.1283
  118OSM   H17S12441   5.250   0.873   9.352  1.7630 -0.3830 -1.1015
  118OSM   H17T12442   5.087   0.917   9.270 -1.4632 -1.5621 -2.1208
  118OSM   C18S12443   5.264   0.905   9.146 -0.0573 -0.0499  0.3023
  118OSM   H18S12444   5.367   0.865   9.158  0.4805  0.9149 -0.9142
  118OSM   H18T12445   5.256   1.015   9.134 -1.2815 -0.1300  0.2157
  118OSM   H18U12446   5.225   0.856   9.054 -2.1954 -0.2581  1.2473
  118OSM    C1F12447   4.619   0.164  10.648  0.4873 -0.8064  0.0782
  118OSM     OF12448   4.504   0.125  10.663 -0.3651 -0.6330 -0.0535
  118OSM    C2F12449   4.730   0.069  10.611  0.0432  0.3660 -0.3124
  118OSM    H2F12450   4.693  -0.034  10.634  3.2387 -1.2166 -1.6577
  118OSM    H2G12451   4.814   0.095  10.679  0.1335 -0.9651  0.1180
  118OSM    C3F12452   4.782   0.074  10.460 -0.3105 -0.3712 -0.2036
  118OSM    H3F12453   4.694   0.057  10.395 -2.0056  1.4935  1.4411
  118OSM    H3G12454   4.859  -0.004  10.446 -0.6557 -0.7100 -0.2135
  118OSM    C4F12455   4.851   0.212  10.433 -0.1545  0.7100 -0.1801
  118OSM    H4F12456   4.929   0.233  10.509  0.3416  2.3535 -1.0886
  118OSM    H4G12457   4.759   0.273  10.439 -2.5952 -2.7518  0.5442
  118OSM    C5F12458   4.905   0.226  10.287 -0.0981 -0.0181 -0.1073
  118OSM    H5F12459   4.993   0.163  10.266 -0.1532 -1.6012  3.5993
  118OSM    H5G12460   4.957   0.322  10.270  1.6607 -1.2546 -2.2213
  118OSM    C6F12461   4.801   0.189  10.174  0.0878  1.3816 -0.3443
  118OSM    H6F12462   4.696   0.198  10.207 -0.4396 -2.1394 -0.7485
  118OSM    H6G12463   4.819   0.083  10.147 -1.5251  1.2027 -0.8089
  118OSM    C7F12464   4.829   0.266  10.051  0.2561 -0.9420  0.8595
  118OSM    H7F12465   4.931   0.255  10.007  0.7201  0.9221  1.3534
  118OSM    H7G12466   4.813   0.374  10.071 -1.4812 -1.0472  0.1957
  118OSM    C8F12467   4.728   0.220   9.938 -0.0734  0.6112  0.2618
  118OSM    H8F12468   4.635   0.195   9.994  0.3125  1.8474  1.5157
  118OSM    H8G12469   4.772   0.127   9.897 -1.6675 -0.6717  1.3293
  118OSM    C9F12470   4.718   0.340   9.847 -0.0432  0.2573 -0.6787
  118OSM    H9F12471   4.707   0.438   9.894 -0.5817  0.6957 -1.6792
  118OSM   C10F12472   4.695   0.329   9.712  0.2918  0.6172 -0.0196
  118OSM   H10F12473   4.693   0.413   9.641  0.1642  1.2515  0.7297
  118OSM   C11F12474   4.683   0.204   9.628 -0.4480  0.1362 -0.0899
  118OSM   H11F12475   4.576   0.192   9.600  0.0330 -0.8355 -1.6057
  118OSM   H11G12476   4.696   0.111   9.687 -2.1311  0.3571  0.6867
  118OSM   C12F12477   4.782   0.201   9.511  0.3211 -0.2614 -0.6542
  118OSM   H12F12478   4.807   0.096   9.482  2.1640  0.1130 -0.5282
  118OSM   H12G12479   4.879   0.242   9.546  0.0581 -0.1838  0.0024
  118OSM   C13F12480   4.725   0.284   9.386 -0.2662  0.4578 -0.9063
  118OSM   H13F12481   4.726   0.392   9.413  4.3886  0.7758 -1.5288
  118OSM   H13G12482   4.622   0.249   9.361  0.3716 -2.1999 -0.1018
  118OSM   C14F12483   4.825   0.268   9.275  0.1319 -0.3151 -0.2498
  118OSM   H14F12484   4.880   0.175   9.299  1.0652 -0.0289 -1.2224
  118OSM   H14G12485   4.913   0.336   9.279  0.4315 -0.6396 -1.1287
  118OSM   C15F12486   4.765   0.237   9.138  0.6597  0.4964  0.5085
  118OSM   H15F12487   4.688   0.308   9.100  0.5746  0.5085  0.7046
  118OSM   H15G12488   4.720   0.135   9.142  0.5199  0.4885 -0.8264
  118OSM   C16F12489   4.881   0.222   9.031  0.3219  0.4740  0.2040
  118OSM   H16F12490   4.844   0.147   8.958 -3.9177  1.4052  1.1250
  118OSM   H16G12491   4.975   0.185   9.077 -1.2844 -0.9036  2.5904
  118OSM   C17F12492   4.928   0.337   8.940  0.1476  0.0787 -0.1786
  118OSM   H17F12493   5.016   0.310   8.879  0.6335 -0.7503  0.8700
  118OSM   H17G12494   4.963   0.416   9.009  1.9471  0.0352 -0.9896
  118OSM   C18F12495   4.814   0.397   8.859 -0.1854  0.5651  0.3243
  118OSM   H18F12496   4.762   0.315   8.806 -0.1573  0.8996 -0.2268
  118OSM   H18G12497   4.866   0.463   8.786  0.3895  0.7788  0.9197
  118OSM   H18H12498   4.736   0.453   8.916 -0.6952 -0.0903  0.2843
  119OSM      N12499   0.310   4.984  10.792 -0.5724 -0.2881  0.4485
  119OSM    C1512500   0.448   4.955  10.852 -0.5171  0.4157  0.4989
  119OSM   H15A12501   0.437   4.876  10.925 -0.3622 -0.9157 -0.8653
  119OSM   H15B12502   0.490   5.045  10.896  1.8342 -0.7180  0.7036
  119OSM   H15C12503   0.526   4.925  10.783  2.2696  3.1973  2.1552
  119OSM    C1412504   0.321   5.094  10.696 -1.1156  0.5290 -0.2900
  119OSM   H14A12505   0.404   5.083  10.627 -1.5353  0.4594 -0.7905
  119OSM   H14B12506   0.343   5.186  10.748  2.5752 -1.6923  2.6408
  119OSM   H14C12507   0.229   5.112  10.643 -1.8488  0.3914  0.9067
  119OSM    C1312508   0.291   4.865  10.712  0.5776 -0.0473  0.4619
  119OSM   H13A12509   0.286   4.781  10.780 -0.2282  0.2863  0.8362
  119OSM   H13B12510   0.370   4.843  10.643 -0.7368 -1.6009 -0.6217
  119OSM   H13C12511   0.195   4.879  10.665  1.7156 -2.0655 -2.7521
  119OSM    C1212512   0.214   5.006  10.903  0.4418  0.7042  0.1076
  119OSM   H12A12513   0.129   5.057  10.859  1.1774  3.1689  1.3837
  119OSM   H12B12514   0.256   5.072  10.977 -0.5813  0.5180  0.8895
  119OSM    C1112515   0.165   4.879  10.986  0.1417  0.5126  0.0170
  119OSM   H11A12516   0.093   4.815  10.930 -0.4622 -0.2855  1.6285
  119OSM   H11B12517   0.109   4.912  11.076 -0.8522 -0.4170 -0.2322
  119OSM      P12518   0.286   4.658  11.044  0.0449  0.1424 -0.0260
  119OSM    O1312519   0.422   4.616  11.084  0.0674  0.3624  0.2225
  119OSM    O1412520   0.173   4.606  11.121  0.2997 -0.1591  0.4041
  119OSM    O1112521   0.264   4.612  10.895 -0.7430  0.7425  0.7500
  119OSM    O1212522   0.279   4.812  11.038 -0.5596  0.8429  1.1209
  119OSM    C1S12523   0.157   4.526  10.851  0.4406 -0.8096 -0.5312
  119OSM    H1S12524   0.069   4.590  10.831  1.6919  1.5712  1.0717
  119OSM    H1T12525   0.135   4.441  10.919 -2.5401 -2.1262 -2.9202
  119OSM     NF12526   0.073   4.372  10.664 -0.1791  0.5121  1.0132
  119OSM    HNF12527   0.092   4.276  10.645 -2.2716  0.6613 -2.9034
  119OSM    C2S12528   0.185   4.458  10.710 -0.6681 -0.2297  0.2070
  119OSM    H2S12529   0.195   4.543  10.640 -1.6404  1.5109  2.1005
  119OSM    C3S12530   0.325   4.394  10.713  0.8672 -0.0774 -0.4956
  119OSM    H3S12531   0.316   4.302  10.774 -1.0944  0.4461  0.0775
  119OSM     O312532   0.440   4.461  10.761  0.0206 -0.2168  0.0409
  119OSM    HO312533   0.405   4.539  10.805 -0.2967  0.0148 -0.6057
  119OSM    C4S12534   0.357   4.338  10.576  0.0243  0.3902  0.7384
  119OSM    H4S12535   0.306   4.240  10.574 -2.0923  1.4334  1.0660
  119OSM    C5S12536   0.404   4.391  10.458  0.1482 -0.2658  0.3210
  119OSM    H5S12537   0.430   4.497  10.451  1.1619 -0.2368  3.1599
  119OSM    C6S12538   0.404   4.306  10.336  0.5559  1.2967 -0.5141
  119OSM    H6S12539   0.511   4.278  10.319  0.7257  1.3466  0.3810
  119OSM    H6T12540   0.379   4.378  10.256  0.5600  2.5713  0.5895
  119OSM    C7S12541   0.310   4.184  10.338 -0.0999  0.2799  0.1956
  119OSM    H7S12542   0.214   4.228  10.373 -0.0909  0.3039  0.1912
  119OSM    H7T12543   0.335   4.113  10.420 -1.5535  1.1782  1.4676
  119OSM    C8S12544   0.288   4.112  10.207 -0.1807  0.1576 -0.1984
  119OSM    H8S12545   0.225   4.022  10.224 -0.0423 -0.2935 -1.8935
  119OSM    H8T12546   0.388   4.073  10.180  0.5042  1.0219  0.9620
  119OSM    C9S12547   0.246   4.197  10.091 -0.4253 -0.3247 -0.5479
  119OSM    H9S12548   0.317   4.278  10.062  1.4266 -1.7014  0.0153
  119OSM    H9T12549   0.155   4.254  10.121 -0.7332 -1.0923 -0.0032
  119OSM   C10S12550   0.225   4.117   9.966 -0.0260  0.3879 -0.4809
  119OSM   H10S12551   0.142   4.054  10.006  0.2998  0.6057  0.5710
  119OSM   H10T12552   0.320   4.064   9.946 -0.2231 -1.2708  2.4011
  119OSM   C11S12553   0.195   4.207   9.839  0.1699  0.4571 -0.2622
  119OSM   H11S12554   0.281   4.273   9.813  2.4540 -1.8083  1.1469
  119OSM   H11T12555   0.105   4.268   9.866  1.5804  2.3860  0.3170
  119OSM   C12S12556   0.162   4.122   9.715 -0.0267  0.2686 -0.1834
  119OSM   H12S12557   0.098   4.032   9.725 -0.5330  0.2378 -2.7910
  119OSM   H12T12558   0.253   4.071   9.677 -1.3411 -0.9513 -1.8476
  119OSM   C13S12559   0.116   4.205   9.597 -0.0916 -0.3323  0.6384
  119OSM   H13S12560   0.174   4.300   9.597 -1.6846  0.6700  1.4863
  119OSM   H13T12561   0.008   4.218   9.618  0.1045 -0.0741  1.5196
  119OSM   C14S12562   0.137   4.130   9.464 -0.8235 -0.1002 -0.4299
  119OSM   H14S12563   0.084   4.032   9.461 -0.5209 -0.2518 -1.0719
  119OSM   H14T12564   0.246   4.119   9.445 -0.8186  0.6620 -0.8698
  119OSM   C15S12565   0.078   4.209   9.347 -0.1567  0.8086 -0.2569
  119OSM   H15S12566   0.109   4.316   9.356  3.1263 -0.0629  0.1347
  119OSM   H15T12567  -0.031   4.210   9.368  0.0078  1.6538  0.6661
  119OSM   C16S12568   0.115   4.153   9.214  0.5466  0.7073  0.9025
  119OSM   H16S12569   0.106   4.042   9.211 -2.8579  0.8038 -3.0728
  119OSM   H16T12570   0.223   4.164   9.194  0.4647 -1.0605 -0.8167
  119OSM   C17S12571   0.025   4.186   9.100  0.4382  0.1990  0.7440
  119OSM   H17S12572  -0.081   4.168   9.128 -0.3910 -1.3831 -2.7760
  119OSM   H17T12573   0.047   4.117   9.015  0.1741  0.4619  0.4593
  119OSM   C18S12574   0.024   4.329   9.045 -0.3620  0.1248 -0.0703
  119OSM   H18S12575   0.008   4.401   9.128  0.3666 -0.2622  0.4209
  119OSM   H18T12576  -0.064   4.336   8.977  0.3900 -0.7545 -1.1841
  119OSM   H18U12577   0.114   4.352   8.982 -1.3311  0.8212 -1.2503
  119OSM    C1F12578  -0.056   4.405  10.637 -0.4293  0.1070  0.0284
  119OSM     OF12579  -0.105   4.513  10.646  0.1769  0.1114  0.0573
  119OSM    C2F12580  -0.137   4.291  10.582  0.2514 -0.1719 -0.6115
  119OSM    H2F12581  -0.244   4.306  10.608 -0.1214 -2.5760 -0.5586
  119OSM    H2G12582  -0.105   4.193  10.623 -1.8495 -1.0064 -0.8350
  119OSM    C3F12583  -0.118   4.290  10.421  0.0980  0.4344 -0.3301
  119OSM    H3F12584  -0.190   4.214  10.386  0.8930  0.1769 -1.4693
  119OSM    H3G12585  -0.020   4.253  10.383 -2.1144 -3.3461 -3.1233
  119OSM    C4F12586  -0.148   4.423  10.354 -0.0643  0.4710  0.4372
  119OSM    H4F12587  -0.081   4.501  10.396 -2.2976  1.8034  1.7241
  119OSM    H4G12588  -0.252   4.454  10.377 -1.1656 -0.0856 -3.1325
  119OSM    C5F12589  -0.138   4.416  10.195 -0.1536  0.3336 -0.7400
  119OSM    H5F12590  -0.038   4.384  10.158 -1.1222 -0.2988 -2.9767
  119OSM    H5G12591  -0.161   4.518  10.157 -1.9372 -0.4844 -1.9964
  119OSM    C6F12592  -0.230   4.324  10.117 -0.2377 -0.0693  0.5208
  119OSM    H6F12593  -0.331   4.323  10.162  0.3188 -2.0479  1.8744
  119OSM    H6G12594  -0.184   4.222  10.118 -3.3211 -1.5583  0.9157
  119OSM    C7F12595  -0.251   4.360   9.964  0.2070  0.5289 -0.1003
  119OSM    H7F12596  -0.147   4.373   9.928  1.1687  1.1181  2.6837
  119OSM    H7G12597  -0.304   4.455   9.944  0.3405  1.1980  2.4037
  119OSM    C8F12598  -0.303   4.250   9.865 -0.2757  0.3483  0.2896
  119OSM    H8F12599  -0.334   4.299   9.770  1.3127 -1.2776 -1.1410
  119OSM    H8G12600  -0.396   4.204   9.906 -0.9522  0.0280 -1.5203
  119OSM    C9F12601  -0.209   4.134   9.842 -0.2057  0.9565  0.2746
  119OSM    H9F12602  -0.120   4.135   9.906 -0.2877 -2.1191  0.5824
  119OSM   C10F12603  -0.224   4.037   9.749  0.1771  0.0438  0.4507
  119OSM   H10F12604  -0.147   3.959   9.746  0.0598 -0.0884  0.9461
  119OSM   C11F12605  -0.335   4.026   9.648 -0.1856  0.5823 -0.3577
  119OSM   H11F12606  -0.415   4.101   9.661 -1.2628 -0.6128  0.1130
  119OSM   H11G12607  -0.374   3.926   9.677  0.8629  0.3275  0.2348
  119OSM   C12F12608  -0.307   4.029   9.501  0.0165 -0.2110  0.5692
  119OSM   H12F12609  -0.250   4.121   9.475 -1.0250 -0.3981 -2.9969
  119OSM   H12G12610  -0.406   4.041   9.452 -0.1395 -0.6843  0.7652
  119OSM   C13F12611  -0.224   3.908   9.444 -0.8779  0.4755 -0.6297
  119OSM   H13F12612  -0.282   3.816   9.464  1.8134 -1.1423  0.2376
  119OSM   H13G12613  -0.134   3.901   9.509  0.7349 -1.7147 -2.8927
  119OSM   C14F12614  -0.204   3.908   9.291 -0.8605  0.8721 -0.5494
  119OSM   H14F12615  -0.125   3.982   9.266 -1.8769  2.4193  0.5842
  119OSM   H14G12616  -0.297   3.933   9.235 -2.5471  0.7866  2.0419
  119OSM   C15F12617  -0.167   3.774   9.235 -0.0014 -0.1484  0.3751
  119OSM   H15F12618  -0.243   3.695   9.248  0.6619 -0.4583  2.8270
  119OSM   H15G12619  -0.074   3.752   9.292 -0.4088  0.1598  1.1711
  119OSM   C16F12620  -0.130   3.791   9.088 -0.6139 -0.8052 -0.8564
  119OSM   H16F12621  -0.045   3.862   9.078 -0.1785 -1.0797  0.6758
  119OSM   H16G12622  -0.214   3.831   9.028  0.9962 -0.0769 -2.7361
  119OSM   C17F12623  -0.103   3.663   9.017  0.2124  0.2603  0.7381
  119OSM   H17F12624  -0.189   3.597   9.041  1.7644 -1.6069  1.3511
  119OSM   H17G12625  -0.009   3.618   9.055  0.3664  1.8071  2.3365
  119OSM   C18F12626  -0.096   3.685   8.864  0.0966  0.9662  0.0212
  119OSM   H18F12627  -0.094   3.586   8.813  1.9660  0.6426  0.6248
  119OSM   H18G12628  -0.005   3.744   8.837  0.8477  0.2287  0.8723
  119OSM   H18H12629  -0.189   3.738   8.833 -1.5902  0.0348  3.0920
  120OSM      N12630   6.215   1.784  10.685 -0.7464  0.5468  0.6063
  120OSM    C1512631   6.170   1.666  10.762 -0.0755  0.1081  0.5273
  120OSM   H15A12632   6.163   1.578  10.701 -0.2967  0.1335  0.5144
  120OSM   H15B12633   6.078   1.676  10.818  0.5011 -1.0692  1.7508
  120OSM   H15C12634   6.239   1.646  10.843  1.0941  0.6827 -0.3035
  120OSM    C1412635   6.127   1.819  10.566 -0.0624 -0.3578 -0.4867
  120OSM   H14A12636   6.030   1.840  10.609 -1.0805 -2.4481 -1.5799
  120OSM   H14B12637   6.120   1.734  10.499 -0.1393  0.7048 -1.8784
  120OSM   H14C12638   6.162   1.909  10.517  0.4078  0.1378  0.7376
  120OSM    C1312639   6.189   1.890  10.777 -0.3124 -0.0380 -0.0374
  120OSM   H13A12640   6.214   1.989  10.740 -2.6020  0.6031 -0.0238
  120OSM   H13B12641   6.237   1.881  10.873  2.6458  1.7399 -1.2002
  120OSM   H13C12642   6.083   1.907  10.791 -0.0537  0.6301  1.2216
  120OSM    C1212643   6.354   1.764  10.638  0.1940  0.6338 -0.2213
  120OSM   H12A12644   6.404   1.735  10.729 -0.3435  0.4432  0.0156
  120OSM   H12B12645   6.393   1.857  10.599  0.2580  0.5757 -0.2951
  120OSM    C1112646   6.388   1.648  10.536 -0.3849 -0.3711 -0.5195
  120OSM   H11A12647   6.499   1.657  10.530 -0.1394 -3.1635 -1.2808
  120OSM   H11B12648   6.345   1.678  10.437  0.6876 -1.1182 -1.2309
  120OSM      P12649   6.411   1.421  10.671 -0.1373  0.0239  0.3144
  120OSM    O1312650   6.454   1.503  10.782  0.1849  0.0410  0.1999
  120OSM    O1412651   6.311   1.320  10.700 -0.7022  0.2013 -0.0903
  120OSM    O1112652   6.543   1.353  10.600 -0.2537 -0.7564 -0.5085
  120OSM    O1212653   6.338   1.518  10.571  0.0443  0.4506 -0.1238
  120OSM    C1S12654   6.525   1.237  10.519  0.3576  0.6768  0.0253
  120OSM    H1S12655   6.437   1.173  10.540  0.9128  0.2537  1.1137
  120OSM    H1T12656   6.621   1.180  10.526  0.3314  0.7529  1.1741
  120OSM     NF12657   6.479   1.138  10.300 -0.3192 -0.0666 -1.1540
  120OSM    HNF12658   6.553   1.080  10.266  1.6098  1.0146  1.0059
  120OSM    C2S12659   6.511   1.264  10.368 -0.0696  0.0470  0.7795
  120OSM    H2S12660   6.434   1.337  10.338 -0.0534  0.2688  1.2744
  120OSM    C3S12661   6.653   1.328  10.321  0.0103 -0.4344 -0.3962
  120OSM    H3S12662   6.738   1.263  10.351  0.6448  1.1925  1.5127
  120OSM     O312663   6.678   1.442  10.403 -0.1640 -0.2498  0.3922
  120OSM    HO312664   6.638   1.431  10.490 -0.2534  3.6032  1.0159
  120OSM    C4S12665   6.650   1.352  10.174 -0.3142 -1.1164 -0.9750
  120OSM    H4S12666   6.616   1.455  10.152 -0.4463 -0.3090  2.3702
  120OSM    C5S12667   6.699   1.266  10.083 -0.0771  0.0141 -0.4760
  120OSM    H5S12668   6.752   1.180  10.127  1.3473  1.1495  0.1014
  120OSM    C6S12669   6.700   1.284   9.936  0.1896  0.4801 -0.0452
  120OSM    H6S12670   6.805   1.301   9.906  0.1685 -0.2992 -0.5867
  120OSM    H6T12671   6.653   1.373   9.889  0.1205 -0.5302 -1.9701
  120OSM    C7S12672   6.632   1.166   9.864 -0.4066  0.0369 -0.3415
  120OSM    H7S12673   6.531   1.143   9.904  0.2427  1.0073  2.0493
  120OSM    H7T12674   6.693   1.075   9.882  2.0628  1.8436  1.0508
  120OSM    C8S12675   6.605   1.185   9.716  0.3221  0.4495  0.3006
  120OSM    H8S12676   6.699   1.159   9.663 -0.0946 -1.1107  0.2662
  120OSM    H8T12677   6.571   1.288   9.692  0.9052  0.5988  0.1192
  120OSM    C9S12678   6.487   1.106   9.655  0.3780  0.6459  0.3275
  120OSM    H9S12679   6.396   1.117   9.717 -0.2666 -0.2064 -0.4341
  120OSM    H9T12680   6.516   1.000   9.667  0.8134  0.8258  0.9171
  120OSM   C10S12681   6.463   1.138   9.503  0.3008  0.3868  0.0876
  120OSM   H10S12682   6.412   1.051   9.456 -0.9046  0.3068  1.4761
  120OSM   H10T12683   6.563   1.152   9.457 -0.3085  0.6096 -1.2246
  120OSM   C11S12684   6.394   1.273   9.482 -0.2885  0.9059  0.1141
  120OSM   H11S12685   6.427   1.352   9.552 -0.9983  1.6001 -0.3168
  120OSM   H11T12686   6.296   1.236   9.520  1.1983 -3.4599  0.2922
  120OSM   C12S12687   6.364   1.326   9.343  0.0603 -0.0920  0.3099
  120OSM   H12S12688   6.453   1.369   9.291  1.0413  0.1224  2.0773
  120OSM   H12T12689   6.284   1.402   9.356 -0.5700 -0.6328 -0.3111
  120OSM   C13S12690   6.307   1.219   9.247  0.1859 -0.4498  0.6532
  120OSM   H13S12691   6.244   1.154   9.312 -0.2039  1.0558  1.8293
  120OSM   H13T12692   6.384   1.151   9.203  1.0446  0.4956  0.6583
  120OSM   C14S12693   6.213   1.280   9.138  0.0314 -0.3489  0.4565
  120OSM   H14S12694   6.269   1.365   9.094  2.0514 -1.8616 -0.0427
  120OSM   H14T12695   6.124   1.326   9.188 -1.6131 -1.3579 -1.4144
  120OSM   C15S12696   6.177   1.183   9.033  0.4319  0.4034  0.5612
  120OSM   H15S12697   6.100   1.235   8.973  0.3385  2.2452  2.1633
  120OSM   H15T12698   6.122   1.099   9.080 -1.3254  1.1395 -0.1192
  120OSM   C16S12699   6.292   1.127   8.947  0.7559  1.4180  0.3245
  120OSM   H16S12700   6.362   1.061   9.003 -0.3026  0.1591  0.1993
  120OSM   H16T12701   6.354   1.212   8.912  1.4939 -0.1595 -2.5627
  120OSM   C17S12702   6.240   1.055   8.817 -0.5800 -0.2896 -0.2733
  120OSM   H17S12703   6.194   1.138   8.759  0.8671  1.5291  1.0533
  120OSM   H17T12704   6.158   0.984   8.839  0.8534 -1.5769  1.1274
  120OSM   C18S12705   6.346   0.979   8.740 -0.2176 -0.0251  0.5061
  120OSM   H18S12706   6.292   0.930   8.656  0.2194  0.1576  0.1134
  120OSM   H18T12707   6.408   0.920   8.811  2.6425  0.6051 -1.3040
  120OSM   H18U12708   6.410   1.056   8.691 -3.1687  2.9647  0.9683
  120OSM    C1F12709   6.360   1.086  10.300  0.1043 -0.2124  0.3371
  120OSM     OF12710   6.262   1.155  10.339 -0.1149 -0.7428 -0.5204
  120OSM    C2F12711   6.344   0.948  10.244  0.1922  0.2191  0.4218
  120OSM    H2F12712   6.380   0.868  10.312 -2.0815 -1.2819 -0.0367
  120OSM    H2G12713   6.398   0.949  10.147  1.0643  0.0333  0.8960
  120OSM    C3F12714   6.208   0.903  10.187 -0.1418  0.1826 -0.2295
  120OSM    H3F12715   6.187   0.954  10.091 -1.3998  0.9003  0.4010
  120OSM    H3G12716   6.126   0.913  10.262  1.5062  0.4128  1.6417
  120OSM    C4F12717   6.216   0.752  10.144 -0.2420 -0.2340  0.2001
  120OSM    H4F12718   6.226   0.693  10.238  1.9241 -0.5979 -0.2059
  120OSM    H4G12719   6.312   0.745  10.088 -1.3404 -0.5243 -1.7096
  120OSM    C5F12720   6.101   0.710  10.058 -0.1957 -0.2339  0.6684
  120OSM    H5F12721   6.099   0.780   9.972 -1.3139  0.3089  1.1098
  120OSM    H5G12722   6.003   0.709  10.112 -1.3423 -3.0698 -1.1859
  120OSM    C6F12723   6.100   0.561  10.021 -0.1036 -0.1308 -0.3010
  120OSM    H6F12724   6.003   0.530   9.976 -1.7876  0.2464  2.7812
  120OSM    H6G12725   6.110   0.505  10.116 -2.5746  1.3887  0.9457
  120OSM    C7F12726   6.208   0.529   9.918  0.0425 -0.3749 -0.1399
  120OSM    H7F12727   6.215   0.420   9.896 -1.0218 -0.2594 -1.1389
  120OSM    H7G12728   6.310   0.547   9.958  1.1790 -1.2576 -2.4511
  120OSM    C8F12729   6.179   0.596   9.779  0.4105  0.3904 -0.8260
  120OSM    H8F12730   6.267   0.564   9.719  1.8881 -0.5611  1.6901
  120OSM    H8G12731   6.186   0.706   9.782  1.7855  0.3447 -1.5060
  120OSM    C9F12732   6.059   0.532   9.709 -0.2432 -0.6314 -0.7289
  120OSM    H9F12733   6.017   0.434   9.738 -0.8004 -0.3987 -0.7295
  120OSM   C10F12734   5.999   0.597   9.607 -0.5821 -0.1000  0.7235
  120OSM   H10F12735   5.909   0.552   9.563  0.2503 -1.5512  0.4381
  120OSM   C11F12736   6.043   0.732   9.545 -0.4700  0.4407 -0.1476
  120OSM   H11F12737   6.078   0.803   9.623 -3.0817  0.2884  1.2914
  120OSM   H11G12738   5.955   0.791   9.510 -1.7564 -1.1530  0.2483
  120OSM   C12F12739   6.139   0.702   9.433  0.0842 -0.1636 -0.7868
  120OSM   H12F12740   6.090   0.628   9.366 -0.9753  0.2892 -0.5333
  120OSM   H12G12741   6.230   0.644   9.461  0.7956  1.6016  0.6788
  120OSM   C13F12742   6.177   0.835   9.362  0.3821  0.4768 -0.1501
  120OSM   H13F12743   6.205   0.908   9.441  1.3886  1.0101 -0.9758
  120OSM   H13G12744   6.078   0.866   9.323  0.3752  2.9881  1.6357
  120OSM   C14F12745   6.294   0.815   9.269 -0.4399  0.3688  0.3962
  120OSM   H14F12746   6.377   0.785   9.337 -1.0446 -2.6228 -0.0831
  120OSM   H14G12747   6.326   0.918   9.242  1.6539  0.8295  3.8949
  120OSM   C15F12748   6.280   0.718   9.149  0.0243  0.1160 -0.4313
  120OSM   H15F12749   6.283   0.614   9.187 -0.9772 -0.4704 -1.8877
  120OSM   H15G12750   6.378   0.716   9.097  0.7558  0.8127  0.8627
  120OSM   C16F12751   6.170   0.737   9.040 -0.1395  0.8316 -0.5437
  120OSM   H16F12752   6.170   0.845   9.015  0.5637  0.4898 -2.1120
  120OSM   H16G12753   6.070   0.704   9.077  0.1752  0.5966  0.1208
  120OSM   C17F12754   6.209   0.651   8.911 -0.3291 -0.2917 -1.0707
  120OSM   H17F12755   6.222   0.545   8.943  1.8863  0.5958  1.3192
  120OSM   H17G12756   6.313   0.684   8.896 -0.6991  1.7080  0.3501
  120OSM   C18F12757   6.118   0.674   8.789  0.5479 -0.0937 -0.1010
  120OSM   H18F12758   6.118   0.781   8.758 -1.3223 -0.2260 -0.6396
  120OSM   H18G12759   6.024   0.640   8.838 -0.6670  1.3275 -1.3272
  120OSM   H18H12760   6.152   0.604   8.711 -0.4344  0.7187 -1.2943
  121OSM      N12761   6.634   5.612  11.214 -0.1078  0.0274 -0.0054
  121OSM    C1512762   6.615   5.657  11.074 -0.2508 -0.0902  0.1107
  121OSM   H15A12763   6.562   5.584  11.015  2.4234 -3.0234  1.0797
  121OSM   H15B12764   6.711   5.673  11.028 -0.1469 -0.3676  0.2296
  121OSM   H15C12765   6.571   5.755  11.071  2.5803  1.2801  0.4782
  121OSM    C1412766   6.688   5.467  11.207  0.5295  0.1181  0.1600
  121OSM   H14A12767   6.790   5.472  11.170 -0.4030 -1.0985 -2.8419
  121OSM   H14B12768   6.639   5.411  11.128  1.6669  0.7056 -1.0075
  121OSM   H14C12769   6.693   5.424  11.306 -2.2934 -0.2483  0.2007
  121OSM    C1312770   6.746   5.685  11.278  0.0936  0.0742  1.1784
  121OSM   H13A12771   6.766   5.663  11.382 -0.6855 -0.6329  1.1914
  121OSM   H13B12772   6.739   5.792  11.273  2.1098  0.4856  4.1581
  121OSM   H13C12773   6.832   5.664  11.217 -1.3650  1.1447 -1.4192
  121OSM    C1212774   6.510   5.609  11.302 -0.6267  0.1874  0.0131
  121OSM   H12A12775   6.534   5.562  11.396  0.6919 -0.2948 -0.5366
  121OSM   H12B12776   6.444   5.540  11.251  0.5040 -0.9509  0.0583
  121OSM    C1112777   6.417   5.731  11.317  0.0748  0.4702 -0.0750
  121OSM   H11A12778   6.473   5.822  11.349  0.1067  1.2003 -2.0540
  121OSM   H11B12779   6.334   5.707  11.387  2.3484 -1.3359  2.1779
  121OSM      P12780   6.231   5.659  11.152  0.4064  0.2644 -0.0357
  121OSM    O1312781   6.268   5.520  11.170 -0.0762  0.0143 -0.2772
  121OSM    O1412782   6.124   5.717  11.228  0.0299 -0.4405  0.0384
  121OSM    O1112783   6.209   5.684  10.999 -0.1521 -0.2636  0.3924
  121OSM    O1212784   6.355   5.749  11.192  0.1850 -0.4691  0.1769
  121OSM    C1S12785   6.316   5.691  10.899  0.4890  0.5725  0.6280
  121OSM    H1S12786   6.386   5.606  10.917  1.0772  1.5775  3.7269
  121OSM    H1T12787   6.384   5.778  10.913  1.0622  0.3936 -0.8439
  121OSM     NF12788   6.377   5.680  10.667  0.1232 -0.0343 -0.0323
  121OSM    HNF12789   6.415   5.762  10.624  1.1912 -1.2864 -1.5855
  121OSM    C2S12790   6.263   5.682  10.756 -0.3310 -0.2911  0.1003
  121OSM    H2S12791   6.197   5.593  10.751  0.6533 -1.0577  0.5171
  121OSM    C3S12792   6.174   5.805  10.725  0.3493 -0.4567 -0.4003
  121OSM    H3S12793   6.238   5.895  10.741 -0.3961  0.1028 -0.5104
  121OSM     O312794   6.068   5.817  10.815 -0.0080  0.1234 -0.2015
  121OSM    HO312795   6.081   5.768  10.897 -0.6017  1.8136  0.9587
  121OSM    C4S12796   6.129   5.799  10.580 -0.0852  0.2740  0.0638
  121OSM    H4S12797   6.194   5.864  10.519  0.2699 -0.1501 -0.0137
  121OSM    C5S12798   6.025   5.751  10.516 -1.0139 -0.4140  0.0045
  121OSM    H5S12799   5.943   5.700  10.569 -0.4224 -2.9069 -1.3051
  121OSM    C6S12800   6.008   5.778  10.367 -1.2823 -0.3445 -0.0931
  121OSM    H6S12801   6.066   5.860  10.319  0.6264 -0.9348  1.1158
  121OSM    H6T12802   5.900   5.795  10.344 -1.3204  0.8588  0.9336
  121OSM    C7S12803   6.071   5.657  10.298 -0.3651  1.1663  0.0008
  121OSM    H7S12804   6.014   5.562  10.306  1.5502 -0.1072 -0.9319
  121OSM    H7T12805   6.178   5.639  10.318 -0.2582  1.7218 -0.0492
  121OSM    C8S12806   6.069   5.680  10.144 -0.4178  0.4534  0.1182
  121OSM    H8S12807   6.127   5.774  10.128 -0.9184  0.4343 -2.0311
  121OSM    H8T12808   5.966   5.694  10.106 -0.1979  1.0007 -0.3054
  121OSM    C9S12809   6.134   5.568  10.069 -0.5250  0.3530  0.8683
  121OSM    H9S12810   6.072   5.476  10.068  0.5777 -0.5050 -2.2984
  121OSM    H9T12811   6.232   5.543  10.115  0.7154  2.3624 -0.5336
  121OSM   C10S12812   6.159   5.605   9.923  0.0226  0.7039 -0.2934
  121OSM   H10S12813   6.243   5.540   9.892 -1.3181 -1.6974  0.8567
  121OSM   H10T12814   6.198   5.709   9.928  1.6657  0.1505 -1.0503
  121OSM   C11S12815   6.036   5.599   9.827 -0.2915  0.3743 -0.6751
  121OSM   H11S12816   5.958   5.663   9.875 -0.4442  0.4481 -1.0154
  121OSM   H11T12817   6.006   5.492   9.828  2.4088 -0.4735 -1.6147
  121OSM   C12S12818   6.075   5.642   9.685 -0.3549  0.4358 -0.3215
  121OSM   H12S12819   6.150   5.571   9.644  0.4357 -0.1835  2.0136
  121OSM   H12T12820   6.132   5.736   9.700  0.8902 -0.2389 -0.7086
  121OSM   C13S12821   5.954   5.658   9.594 -0.0100 -0.5231 -0.5548
  121OSM   H13S12822   5.887   5.742   9.625  1.0451 -0.8120  2.8608
  121OSM   H13T12823   5.895   5.566   9.612 -0.8306  0.3408  1.5224
  121OSM   C14S12824   5.989   5.666   9.450  0.0430 -0.5320 -0.1543
  121OSM   H14S12825   6.054   5.576   9.440  1.6730  0.5842  0.1450
  121OSM   H14T12826   6.046   5.752   9.411 -4.0675  0.9658 -3.7165
  121OSM   C15S12827   5.870   5.635   9.359 -0.1996 -0.0748 -0.2458
  121OSM   H15S12828   5.777   5.688   9.387 -0.5723 -0.9781  0.2654
  121OSM   H15T12829   5.840   5.528   9.357 -1.8588  0.3602  0.1713
  121OSM   C16S12830   5.900   5.662   9.206  0.2427  0.6543  0.5914
  121OSM   H16S12831   5.996   5.610   9.183 -0.5703 -0.6116 -0.0361
  121OSM   H16T12832   5.920   5.771   9.197  1.6421  0.3624 -0.1314
  121OSM   C17S12833   5.801   5.612   9.102  0.1353  0.4082  0.6397
  121OSM   H17S12834   5.705   5.657   9.133 -1.1207 -1.9933  0.5117
  121OSM   H17T12835   5.790   5.501   9.099  5.1791 -0.3908 -3.2470
  121OSM   C18S12836   5.833   5.652   8.958  0.0075  0.5751  0.5499
  121OSM   H18S12837   5.914   5.582   8.929 -1.3343 -1.8121  2.2660
  121OSM   H18T12838   5.864   5.759   8.952 -0.1683  0.5798 -0.3879
  121OSM   H18U12839   5.748   5.629   8.890  0.9472 -0.3946 -0.3503
  121OSM    C1F12840   6.447   5.568  10.654  0.1065 -0.1516 -0.2440
  121OSM     OF12841   6.414   5.463  10.711  0.1065  0.0846  0.1907
  121OSM    C2F12842   6.578   5.584  10.580 -0.2947  0.1823 -0.2092
  121OSM    H2F12843   6.637   5.497  10.616  0.6801  0.9385  0.0689
  121OSM    H2G12844   6.634   5.670  10.622  1.0632 -0.1139 -1.3371
  121OSM    C3F12845   6.574   5.599  10.424  0.1691 -0.7145  0.1450
  121OSM    H3F12846   6.542   5.506  10.371 -2.3502  0.0075  0.2482
  121OSM    H3G12847   6.677   5.619  10.390 -0.4399 -0.4425 -1.6803
  121OSM    C4F12848   6.484   5.710  10.365  0.5083 -0.0999 -0.1665
  121OSM    H4F12849   6.514   5.811  10.400 -0.3816  1.5087 -3.6663
  121OSM    H4G12850   6.383   5.685  10.404  0.2612 -0.4598 -1.0320
  121OSM    C5F12851   6.480   5.704  10.211 -0.0430 -0.0047  0.3260
  121OSM    H5F12852   6.407   5.774  10.166 -1.0012 -0.8071  0.5858
  121OSM    H5G12853   6.442   5.602  10.188  0.6805 -0.6029  1.6780
  121OSM    C6F12854   6.621   5.715  10.140  0.4857 -0.7143 -0.1077
  121OSM    H6F12855   6.672   5.617  10.129 -3.2913 -2.8300 -0.1233
  121OSM    H6G12856   6.683   5.776  10.210  0.3096 -1.4728  0.7208
  121OSM    C7F12857   6.628   5.808  10.007 -0.3650  0.8688  0.3625
  121OSM    H7F12858   6.728   5.786   9.965 -0.2004  1.2539  0.5564
  121OSM    H7G12859   6.607   5.912  10.041 -1.9187  0.9638 -0.7747
  121OSM    C8F12860   6.520   5.769   9.902 -0.4119  0.7641  0.3696
  121OSM    H8F12861   6.516   5.846   9.821  2.8839 -0.4897 -1.1548
  121OSM    H8G12862   6.423   5.780   9.954 -1.2288 -1.1719 -0.6541
  121OSM    C9F12863   6.530   5.627   9.861  0.7204  0.0979  0.8551
  121OSM    H9F12864   6.490   5.549   9.928 -2.7726  0.3083 -0.7758
  121OSM   C10F12865   6.597   5.602   9.744  1.3290 -0.3122 -0.1281
  121OSM   H10F12866   6.590   5.499   9.707  1.4520 -0.8440  1.2754
  121OSM   C11F12867   6.667   5.689   9.645 -0.0387 -0.0150  0.6344
  121OSM   H11F12868   6.773   5.656   9.649 -0.0681 -0.1904 -0.0104
  121OSM   H11G12869   6.682   5.797   9.666 -1.0613 -0.0809  1.8273
  121OSM   C12F12870   6.617   5.677   9.505  0.2072 -0.5995 -0.3752
  121OSM   H12F12871   6.606   5.571   9.473 -1.3356 -0.6911  0.3989
  121OSM   H12G12872   6.686   5.720   9.429  0.3568  1.6905  0.9612
  121OSM   C13F12873   6.474   5.740   9.476 -1.0445 -0.5767 -0.3998
  121OSM   H13F12874   6.499   5.848   9.467 -0.7933 -0.6436 -0.4825
  121OSM   H13G12875   6.395   5.735   9.555  0.7494 -1.6788  1.4389
  121OSM   C14F12876   6.412   5.697   9.346  0.3554  0.1270  0.5695
  121OSM   H14F12877   6.307   5.731   9.364  0.1000 -0.4167  0.1313
  121OSM   H14G12878   6.407   5.587   9.340  0.9298  0.0922  0.6836
  121OSM   C15F12879   6.485   5.758   9.220  0.0419  0.1587 -0.1669
  121OSM   H15F12880   6.592   5.727   9.213 -0.3062 -1.1642  0.1160
  121OSM   H15G12881   6.474   5.869   9.227 -1.1912  0.0072  0.5578
  121OSM   C16F12882   6.420   5.706   9.085  0.8238  0.5116 -0.5933
  121OSM   H16F12883   6.321   5.756   9.080  0.4042 -0.0336  1.2654
  121OSM   H16G12884   6.401   5.597   9.095 -1.3420  0.4729 -3.8259
  121OSM   C17F12885   6.514   5.747   8.969  0.4287  0.1879  0.6242
  121OSM   H17F12886   6.620   5.735   9.002  0.8112  1.9651  0.1134
  121OSM   H17G12887   6.493   5.856   8.970 -1.4834 -0.1460  1.6503
  121OSM   C18F12888   6.480   5.693   8.832  0.5428 -0.0723  0.1447
  121OSM   H18F12889   6.481   5.582   8.841 -1.0876 -0.0714  0.5783
  121OSM   H18G12890   6.552   5.734   8.758 -1.2572  0.3274 -1.4604
  121OSM   H18H12891   6.384   5.735   8.795  0.4031 -1.9198 -1.7921
  122OSM      N12892   5.681   2.369  10.888 -0.4126  0.5974  0.9758
  122OSM    C1512893   5.589   2.372  11.012 -1.2132 -0.3563  0.1167
  122OSM   H15A12894   5.578   2.471  11.055 -0.8506 -0.5972  0.7749
  122OSM   H15B12895   5.621   2.298  11.084 -2.2407 -1.3166 -0.3755
  122OSM   H15C12896   5.489   2.343  10.983 -1.3871  1.0302 -0.7226
  122OSM    C1412897   5.628   2.465  10.788  0.4096 -0.0768  0.6650
  122OSM   H14A12898   5.531   2.441  10.748  0.1712  1.4520  0.2606
  122OSM   H14B12899   5.685   2.478  10.697 -0.8425  1.8527  0.0809
  122OSM   H14C12900   5.604   2.562  10.828 -0.7998  0.3261 -0.9045
  122OSM    C1312901   5.820   2.416  10.920 -0.2478 -0.1137 -0.1046
  122OSM   H13A12902   5.814   2.463  11.017 -0.1021 -0.5136  0.1006
  122OSM   H13B12903   5.858   2.486  10.848 -0.3302 -0.5560 -0.5818
  122OSM   H13C12904   5.895   2.340  10.934 -0.9106 -0.4884  1.6662
  122OSM    C1212905   5.677   2.224  10.842  0.7418 -0.2629  0.0204
  122OSM   H12A12906   5.704   2.160  10.925 -0.6035  0.2850  0.9164
  122OSM   H12B12907   5.732   2.214  10.749  2.4173 -0.4073  0.9941
  122OSM    C1112908   5.535   2.171  10.807 -0.3361  0.0098 -0.0515
  122OSM   H11A12909   5.531   2.080  10.744 -2.2624 -0.6959  1.0314
  122OSM   H11B12910   5.475   2.248  10.755 -2.5665  0.3814  2.8039
  122OSM      P12911   5.452   1.991  10.979  0.0142  0.0314 -0.2900
  122OSM    O1312912   5.594   1.951  10.993 -0.3504  0.0480  0.5699
  122OSM    O1412913   5.371   2.007  11.106 -0.3174  0.2629  0.0081
  122OSM    O1112914   5.367   1.908  10.871  0.4897  0.2615 -0.1727
  122OSM    O1212915   5.456   2.139  10.927 -0.7622 -0.5838 -0.3663
  122OSM    C1S12916   5.258   1.961  10.797 -0.7863 -1.0556 -0.0592
  122OSM    H1S12917   5.269   2.071  10.788 -0.6169 -0.9033  1.6595
  122OSM    H1T12918   5.162   1.945  10.851 -0.6849 -2.5265 -0.2645
  122OSM     NF12919   5.146   1.990  10.582 -0.0246 -0.0416 -0.2967
  122OSM    HNF12920   5.053   1.953  10.584 -0.0298 -0.1351 -1.6048
  122OSM    C2S12921   5.251   1.909  10.648  0.0580  0.5759  0.7491
  122OSM    H2S12922   5.344   1.943  10.599 -0.1536 -1.5015 -1.2501
  122OSM    C3S12923   5.245   1.749  10.637  0.1975 -0.4301  0.4604
  122OSM    H3S12924   5.144   1.717  10.670 -0.4929  0.0740 -1.0564
  122OSM     O312925   5.339   1.679  10.716 -0.1272  0.4170 -0.6153
  122OSM    HO312926   5.390   1.753  10.750 -2.1642  0.8885  1.7977
  122OSM    C4S12927   5.250   1.711  10.493  0.0112 -0.5517  0.7745
  122OSM    H4S12928   5.158   1.669  10.449  0.7508 -1.4300  0.0353
  122OSM    C5S12929   5.348   1.721  10.400 -0.5210  0.4658  0.3736
  122OSM    H5S12930   5.449   1.747  10.435 -0.5404  0.7998  0.1860
  122OSM    C6S12931   5.342   1.677  10.254  0.3857 -0.0490 -0.0982
  122OSM    H6S12932   5.284   1.747  10.191  0.5734  2.4687  2.3487
  122OSM    H6T12933   5.286   1.581  10.246 -1.2021  0.9339 -1.1968
  122OSM    C7S12934   5.473   1.657  10.175  0.0008  0.8442 -0.5536
  122OSM    H7S12935   5.540   1.599  10.241 -0.2254  1.8606  0.5988
  122OSM    H7T12936   5.524   1.750  10.140 -1.7013  1.3130 -1.9476
  122OSM    C8S12937   5.438   1.581  10.041  0.3500 -0.3140  0.5637
  122OSM    H8S12938   5.382   1.488  10.066  1.8583 -1.0020  1.5472
  122OSM    H8T12939   5.536   1.561   9.994 -0.3110 -1.1023 -0.5300
  122OSM    C9S12940   5.361   1.663   9.939 -0.0580  0.0823 -0.0981
  122OSM    H9S12941   5.428   1.750   9.924 -0.2407  0.0843 -0.9236
  122OSM    H9T12942   5.255   1.682   9.965 -0.4116 -1.1004 -0.6372
  122OSM   C10S12943   5.365   1.594   9.800  0.8549  0.0744  0.5702
  122OSM   H10S12944   5.303   1.503   9.792  1.0876 -0.0063 -0.4488
  122OSM   H10T12945   5.470   1.561   9.785  1.4632  1.7948  0.7739
  122OSM   C11S12946   5.340   1.688   9.683  0.4138  0.3381  0.1740
  122OSM   H11S12947   5.412   1.773   9.685  0.8339 -0.0113 -0.0272
  122OSM   H11T12948   5.232   1.713   9.690 -0.3734 -1.9136 -2.3620
  122OSM   C12S12949   5.360   1.616   9.545 -0.2954 -0.6835 -0.2898
  122OSM   H12S12950   5.323   1.513   9.562 -1.8572 -0.0020  0.6877
  122OSM   H12T12951   5.470   1.609   9.530 -0.3421 -1.3152 -0.3403
  122OSM   C13S12952   5.292   1.693   9.430 -0.3050  0.0028  0.1676
  122OSM   H13S12953   5.303   1.804   9.440  1.4610  0.0017 -1.2857
  122OSM   H13T12954   5.182   1.677   9.429 -0.3075 -0.0299 -1.8667
  122OSM   C14S12955   5.339   1.653   9.292  0.1335 -0.4488 -0.3263
  122OSM   H14S12956   5.314   1.545   9.284 -2.9547  0.1791 -0.5972
  122OSM   H14T12957   5.446   1.680   9.284  0.5816 -1.7369  0.9141
  122OSM   C15S12958   5.253   1.724   9.182 -0.0067 -0.1845 -0.1731
  122OSM   H15S12959   5.274   1.833   9.188  1.5648 -0.4190 -0.8533
  122OSM   H15T12960   5.144   1.714   9.202  0.1839 -0.3232  0.9000
  122OSM   C16S12961   5.289   1.675   9.045 -1.1280  0.5312  0.1939
  122OSM   H16S12962   5.289   1.564   9.039 -1.4044  0.4224  1.6957
  122OSM   H16T12963   5.395   1.708   9.042 -1.2809  0.9588 -1.2604
  122OSM   C17S12964   5.203   1.736   8.938 -0.2692 -0.1884 -0.8864
  122OSM   H17S12965   5.221   1.844   8.921 -0.9952  0.0847  0.0186
  122OSM   H17T12966   5.095   1.727   8.964  0.0262  0.7841  0.8329
  122OSM   C18S12967   5.232   1.659   8.804 -0.1783 -0.6681 -0.1048
  122OSM   H18S12968   5.180   1.561   8.811 -1.0388 -0.2409 -0.3607
  122OSM   H18T12969   5.341   1.637   8.805 -0.0815 -0.2658  1.2391
  122OSM   H18U12970   5.213   1.716   8.711  0.4231  2.1684  1.3901
  122OSM    C1F12971   5.152   2.122  10.540 -0.2694 -0.4460  0.2574
  122OSM     OF12972   5.264   2.172  10.541 -0.2656  0.6143 -0.6490
  122OSM    C2F12973   5.027   2.193  10.495 -0.1254  0.4713 -0.2290
  122OSM    H2F12974   4.952   2.157  10.569  1.2057  1.4466  1.6806
  122OSM    H2G12975   4.990   2.149  10.400  0.0978  1.7299 -0.9172
  122OSM    C3F12976   5.039   2.347  10.479 -0.6230 -0.2470 -0.4323
  122OSM    H3F12977   5.127   2.373  10.417  0.7329  4.3236  2.9495
  122OSM    H3G12978   5.066   2.397  10.574 -0.1034 -0.6314 -0.3744
  122OSM    C4F12979   4.919   2.412  10.414 -0.6705  0.4529  0.2678
  122OSM    H4F12980   4.910   2.510  10.466  2.4318 -0.0328  1.9208
  122OSM    H4G12981   4.822   2.362  10.436 -0.2800  0.0190  1.0382
  122OSM    C5F12982   4.935   2.431  10.257 -0.0050 -0.3014  0.0273
  122OSM    H5F12983   4.915   2.331  10.214 -1.2549  0.7588 -1.9962
  122OSM    H5G12984   5.037   2.460  10.224  0.1465 -1.3928 -0.4993
  122OSM    C6F12985   4.840   2.539  10.206 -0.0623 -0.0791  0.3548
  122OSM    H6F12986   4.881   2.639  10.233  0.2259  0.4192 -1.7720
  122OSM    H6G12987   4.740   2.509  10.245 -1.2152 -0.7119 -2.7666
  122OSM    C7F12988   4.836   2.558  10.052  0.0710 -0.6847  0.9865
  122OSM    H7F12989   4.938   2.591  10.022 -0.8859 -0.3971 -2.2826
  122OSM    H7G12990   4.764   2.641  10.033  1.7505  0.3438 -1.2945
  122OSM    C8F12991   4.805   2.427   9.970  0.0393 -0.1139  0.5726
  122OSM    H8F12992   4.715   2.382  10.016  1.1457 -4.4109 -1.0279
  122OSM    H8G12993   4.889   2.356   9.988 -2.1430 -2.4936  1.9387
  122OSM    C9F12994   4.794   2.462   9.820  0.5620  0.0244 -0.1346
  122OSM    H9F12995   4.802   2.566   9.787  0.9127 -0.5842 -2.1128
  122OSM   C10F12996   4.774   2.361   9.733  0.0765 -0.2768 -0.2668
  122OSM   H10F12997   4.747   2.386   9.629 -1.6206 -1.6132 -0.1932
  122OSM   C11F12998   4.753   2.215   9.763 -0.3374 -0.3055  0.8560
  122OSM   H11F12999   4.656   2.186   9.716  0.4405  0.0252 -1.0252
  122OSM   H11G13000   4.762   2.185   9.869  1.3545  1.7655  1.3440
  122OSM   C12F13001   4.859   2.134   9.700 -0.3003 -0.0540 -0.0869
  122OSM   H12F13002   4.959   2.145   9.749 -0.4530  0.7591  0.0550
  122OSM   H12G13003   4.867   2.149   9.590 -1.3455  0.0596 -0.1584
  122OSM   C13F13004   4.820   1.985   9.718 -0.4506  1.0995  0.2854
  122OSM   H13F13005   4.722   1.969   9.666 -0.4461  1.0031  0.3054
  122OSM   H13G13006   4.797   1.966   9.825  0.4766 -0.8138  0.1919
  122OSM   C14F13007   4.924   1.890   9.675 -0.8015  0.2966  0.0837
  122OSM   H14F13008   4.899   1.786   9.707  2.3594 -0.6764 -0.2340
  122OSM   H14G13009   5.015   1.916   9.733 -1.8802  1.5434  1.3009
  122OSM   C15F13010   4.958   1.885   9.523  0.1883  0.9065 -0.7581
  122OSM   H15F13011   5.021   1.793   9.519  0.7821  1.3076 -0.7228
  122OSM   H15G13012   5.025   1.967   9.490  0.8093  1.2339  1.1476
  122OSM   C16F13013   4.831   1.879   9.431  0.0867 -0.1947  0.1267
  122OSM   H16F13014   4.791   1.981   9.417 -0.7166 -0.9459 -4.4428
  122OSM   H16G13015   4.751   1.815   9.474  0.2144 -1.2003 -1.0699
  122OSM   C17F13016   4.862   1.812   9.294  0.9264 -0.1619 -0.8224
  122OSM   H17F13017   4.886   1.704   9.310 -0.6023 -0.2323  1.6154
  122OSM   H17G13018   4.956   1.861   9.260  1.4288  1.2121  2.2226
  122OSM   C18F13019   4.753   1.833   9.185 -0.0652 -0.3709 -0.0163
  122OSM   H18F13020   4.778   1.801   9.082  1.7002  1.7166 -0.2964
  122OSM   H18G13021   4.714   1.937   9.176 -0.3519 -0.5413 -0.7983
  122OSM   H18H13022   4.667   1.768   9.212 -1.9888  2.9106  2.6676
  123OSM      N13023   1.689   4.744   6.022 -0.2083 -0.4353  0.0066
  123OSM    C1513024   1.631   4.684   5.902 -0.5701 -0.1578  0.2170
  123OSM   H15A13025   1.561   4.606   5.930  1.4118 -1.1125  3.0181
  123OSM   H15B13026   1.710   4.642   5.842 -0.0701  0.1980  0.6233
  123OSM   H15C13027   1.578   4.752   5.837  0.2030 -0.2741 -0.5579
  123OSM    C1413028   1.801   4.825   5.980 -0.5011 -0.4661 -0.2544
  123OSM   H14A13029   1.774   4.879   5.890  0.9315 -1.9272 -1.6170
  123OSM   H14B13030   1.879   4.762   5.938 -0.8632 -0.7058 -0.5861
  123OSM   H14C13031   1.828   4.885   6.065  4.0019 -0.2839 -1.5817
  123OSM    C1313032   1.583   4.834   6.072  0.0034  0.7115  0.6231
  123OSM   H13A13033   1.487   4.786   6.082  0.8320 -0.9652  0.9566
  123OSM   H13B13034   1.568   4.915   6.002  1.0076  0.8929  0.6022
  123OSM   H13C13035   1.609   4.880   6.166  0.8576 -0.9033  1.2249
  123OSM    C1213036   1.738   4.641   6.124 -0.0797  0.2936 -0.2213
  123OSM   H12A13037   1.767   4.688   6.217  1.6508 -0.8048 -0.1733
  123OSM   H12B13038   1.829   4.593   6.091  0.3276  0.2460  0.9407
  123OSM    C1113039   1.622   4.540   6.164 -0.2309  0.3245 -1.0589
  123OSM   H11A13040   1.671   4.452   6.210 -2.7349 -1.0945 -0.9431
  123OSM   H11B13041   1.566   4.505   6.074 -1.3703 -1.8102  0.3706
  123OSM      P13042   1.556   4.655   6.396 -0.3747  0.0497  0.2409
  123OSM    O1313043   1.649   4.776   6.394  0.4701  0.0320  0.2465
  123OSM    O1413044   1.438   4.654   6.480 -0.1648  0.2551 -0.1032
  123OSM    O1113045   1.638   4.538   6.459  0.7637  0.1940 -0.1731
  123OSM    O1213046   1.524   4.597   6.252  0.4298 -0.7856 -0.0293
  123OSM    C1S13047   1.771   4.525   6.494 -0.7359 -0.3803  0.0306
  123OSM    H1S13048   1.832   4.609   6.454  1.9075 -2.1171  0.1990
  123OSM    H1T13049   1.809   4.432   6.447 -1.0740  0.2164 -1.4852
  123OSM     NF13050   1.950   4.512   6.659  0.0879 -0.5737  0.0153
  123OSM    HNF13051   1.991   4.421   6.663  0.6964 -0.3777 -1.3718
  123OSM    C2S13052   1.806   4.524   6.641  0.2933  0.6377  0.3167
  123OSM    H2S13053   1.781   4.623   6.686  0.1488  0.5803  0.3622
  123OSM    C3S13054   1.718   4.417   6.713  0.5129 -0.9277 -0.4470
  123OSM    H3S13055   1.761   4.318   6.687  0.1273 -1.5722  1.2639
  123OSM     O313056   1.579   4.414   6.671  0.1382  0.4675 -0.1893
  123OSM    HO313057   1.576   4.465   6.589 -0.2062  0.8709  0.0712
  123OSM    C4S13058   1.727   4.443   6.861 -0.9406 -0.6735  0.4799
  123OSM    H4S13059   1.708   4.545   6.897 -0.3543 -0.6418  0.7080
  123OSM    C5S13060   1.778   4.350   6.941  0.1857 -0.5345 -0.0111
  123OSM    H5S13061   1.816   4.258   6.894  2.1844  0.1702  0.0966
  123OSM    C6S13062   1.792   4.364   7.089 -0.3601  0.6468  0.5167
  123OSM    H6S13063   1.695   4.405   7.126 -0.9448 -2.6754  3.1436
  123OSM    H6T13064   1.867   4.444   7.107  1.4144 -0.5467 -1.1690
  123OSM    C7S13065   1.822   4.241   7.171 -0.0093  0.4571  0.2503
  123OSM    H7S13066   1.922   4.205   7.140 -0.4697 -0.7628  0.1170
  123OSM    H7T13067   1.743   4.166   7.147  0.0220  0.2320  0.8300
  123OSM    C8S13068   1.820   4.258   7.323  0.2682  0.8211 -0.4772
  123OSM    H8S13069   1.785   4.162   7.368 -0.9115  0.3937 -2.2144
  123OSM    H8T13070   1.750   4.339   7.351 -0.9987 -0.5783  0.6156
  123OSM    C9S13071   1.961   4.283   7.375 -0.2321 -0.7654 -0.1672
  123OSM    H9S13072   2.004   4.378   7.335  0.7505 -0.2308  1.9928
  123OSM    H9T13073   2.029   4.198   7.355  0.6993 -0.3811  1.2274
  123OSM   C10S13074   1.982   4.284   7.531  0.1224 -0.3572  0.1036
  123OSM   H10S13075   2.067   4.219   7.562 -1.1807 -1.7536  0.9412
  123OSM   H10T13076   1.895   4.224   7.566  0.0794 -0.0183  0.5847
  123OSM   C11S13077   1.982   4.423   7.596 -0.0938 -0.0186  0.1307
  123OSM   H11S13078   1.935   4.486   7.517  2.2293  0.0115 -1.3173
  123OSM   H11T13079   2.088   4.451   7.609  0.4755 -2.6784  1.9246
  123OSM   C12S13080   1.915   4.431   7.736 -0.1100  0.2734 -0.1593
  123OSM   H12S13081   1.810   4.397   7.728  0.5217 -1.9812  0.3156
  123OSM   H12T13082   1.909   4.540   7.756 -0.7570  0.1518  0.3301
  123OSM   C13S13083   1.976   4.358   7.853  0.0591  0.1677  0.3000
  123OSM   H13S13084   2.086   4.356   7.842  0.0007  0.2672 -0.3869
  123OSM   H13T13085   1.944   4.253   7.869 -0.8087  0.0573 -1.8377
  123OSM   C14S13086   1.943   4.429   7.987 -0.2924  0.6708 -0.4071
  123OSM   H14S13087   1.844   4.407   8.032  0.5217 -0.8231  0.7420
  123OSM   H14T13088   1.948   4.538   7.970 -0.5419  0.4249 -2.4022
  123OSM   C15S13089   2.043   4.392   8.104  0.3280 -0.1743  0.0485
  123OSM   H15S13090   2.057   4.282   8.098  0.4340 -0.0730 -2.4012
  123OSM   H15T13091   1.999   4.408   8.204  0.6601 -0.9257  0.3271
  123OSM   C16S13092   2.183   4.450   8.089 -0.4990 -0.3446 -0.0231
  123OSM   H16S13093   2.167   4.551   8.046 -1.8082 -0.3286  0.4744
  123OSM   H16T13094   2.240   4.400   8.008 -3.9839 -3.0837 -1.0296
  123OSM   C17S13095   2.265   4.446   8.217 -0.5707 -0.5457 -0.2845
  123OSM   H17S13096   2.373   4.455   8.190 -0.5457  1.8727  0.4068
  123OSM   H17T13097   2.254   4.363   8.290 -3.2826  1.7958  2.2413
  123OSM   C18S13098   2.233   4.578   8.295 -0.5584 -0.7299  0.0273
  123OSM   H18S13099   2.128   4.570   8.329 -0.0779 -1.1488  1.5089
  123OSM   H18T13100   2.239   4.678   8.248  0.3240 -0.6202  0.3493
  123OSM   H18U13101   2.297   4.582   8.386 -1.5658  0.8355  0.6978
  123OSM    C1F13102   2.029   4.618   6.641 -0.7747  0.2125 -0.1991
  123OSM     OF13103   1.976   4.725   6.605  0.1466  0.2730  0.5148
  123OSM    C2F13104   2.167   4.612   6.671  0.1657  0.8217  0.1587
  123OSM    H2F13105   2.225   4.577   6.583 -0.1235  1.1562 -0.1703
  123OSM    H2G13106   2.196   4.547   6.757  2.2669  2.5116  0.8319
  123OSM    C3F13107   2.218   4.752   6.709  0.3275  0.3426  0.0414
  123OSM    H3F13108   2.203   4.820   6.622 -0.1009 -0.0022 -0.1583
  123OSM    H3G13109   2.326   4.761   6.732  0.6260  0.2537 -1.2283
  123OSM    C4F13110   2.149   4.808   6.832  0.1637  0.6554  0.3124
  123OSM    H4F13111   2.042   4.832   6.817 -0.0474  0.4216  1.3842
  123OSM    H4G13112   2.193   4.910   6.843 -1.3122  1.5075 -1.2066
  123OSM    C5F13113   2.171   4.726   6.964  0.2572  0.3456 -0.1136
  123OSM    H5F13114   2.276   4.691   6.978 -0.4179 -1.7493  0.0070
  123OSM    H5G13115   2.108   4.635   6.958  1.5060 -0.4714 -1.3620
  123OSM    C6F13116   2.147   4.822   7.084  0.2408  0.1223 -0.4249
  123OSM    H6F13117   2.067   4.896   7.062 -0.5928  0.6050  3.4432
  123OSM    H6G13118   2.240   4.879   7.106 -1.0393  2.5401 -0.8454
  123OSM    C7F13119   2.126   4.745   7.216 -0.1399  0.4554 -0.2489
  123OSM    H7F13120   2.201   4.664   7.225 -0.2429  0.5926  2.7421
  123OSM    H7G13121   2.028   4.691   7.215 -0.5230  0.9431  2.3892
  123OSM    C8F13122   2.146   4.836   7.337 -0.0912 -0.8394 -0.2140
  123OSM    H8F13123   2.251   4.873   7.348 -0.6808  1.1255 -0.8393
  123OSM    H8G13124   2.116   4.775   7.424  1.0227 -1.0400  0.0498
  123OSM    C9F13125   2.061   4.962   7.344  0.2480 -0.3634 -0.1895
  123OSM    H9F13126   2.011   4.987   7.249  1.3422 -0.6704 -0.8748
  123OSM   C10F13127   2.052   5.045   7.447  0.4219  0.2935 -0.3430
  123OSM   H10F13128   1.981   5.130   7.443 -0.0581 -0.1465 -2.0748
  123OSM   C11F13129   2.124   5.020   7.579  0.3326 -0.1300  0.6578
  123OSM   H11F13130   2.195   5.105   7.585 -0.1066  0.1423  2.8149
  123OSM   H11G13131   2.187   4.929   7.564 -1.1643 -0.6839 -3.6205
  123OSM   C12F13132   2.034   4.999   7.698 -0.5835  0.6968 -0.0762
  123OSM   H12F13133   1.969   4.909   7.684 -1.8594  1.3527  1.3011
  123OSM   H12G13134   1.972   5.089   7.719 -0.0405  0.9179  0.6066
  123OSM   C13F13135   2.117   4.953   7.821  0.3873 -1.1699 -0.3104
  123OSM   H13F13136   2.198   5.026   7.842 -0.4723  0.0365 -1.0769
  123OSM   H13G13137   2.169   4.857   7.802 -0.1810 -1.5353 -0.0512
  123OSM   C14F13138   2.026   4.952   7.943 -0.3188  0.2431 -0.4135
  123OSM   H14F13139   1.950   4.871   7.934 -0.4189 -0.1505  2.8910
  123OSM   H14G13140   1.966   5.044   7.954 -0.4295  0.0237  0.8899
  123OSM   C15F13141   2.100   4.927   8.068  0.1986 -0.5061 -0.2636
  123OSM   H15F13142   2.156   5.009   8.117 -2.1321 -0.1462  1.9989
  123OSM   H15G13143   2.177   4.847   8.056  3.1167  1.8629  1.1813
  123OSM   C16F13144   1.992   4.880   8.169 -0.0550  0.2022 -0.0284
  123OSM   H16F13145   2.049   4.858   8.262  0.6866 -0.2767 -0.5778
  123OSM   H16G13146   1.946   4.786   8.131 -0.4674  0.3250  0.1613
  123OSM   C17F13147   1.866   4.974   8.181 -0.1073  0.3172 -0.2610
  123OSM   H17F13148   1.795   4.966   8.097  0.1597  0.6683 -0.5229
  123OSM   H17G13149   1.894   5.081   8.180  0.3003  0.2151 -1.5053
  123OSM   C18F13150   1.785   4.946   8.309 -0.1969 -0.0192  0.2986
  123OSM   H18F13151   1.718   5.029   8.340 -1.4010 -0.9578  0.2551
  123OSM   H18G13152   1.869   4.932   8.381  2.7481 -0.0924 -2.8797
  123OSM   H18H13153   1.728   4.853   8.288 -0.7679  0.5788 -0.9028
  124OSM      N13154   3.931   2.972   6.204 -0.0466 -0.2215  0.3394
  124OSM    C1513155   3.917   3.105   6.142  0.1903  0.6040  0.2166
  124OSM   H15A13156   4.008   3.163   6.144  1.3319 -1.1240  0.4781
  124OSM   H15B13157   3.840   3.155   6.200  0.3410  0.9535  0.1164
  124OSM   H15C13158   3.878   3.094   6.042  1.7253 -1.3908 -0.2292
  124OSM    C1413159   3.818   2.887   6.152  0.6368  0.2608 -0.0879
  124OSM   H14A13160   3.815   2.884   6.044 -2.4953  1.6751 -0.1585
  124OSM   H14B13161   3.726   2.939   6.174  0.6155 -0.4263  1.5754
  124OSM   H14C13162   3.817   2.790   6.200 -4.2828  0.3548  0.4671
  124OSM    C1313163   4.054   2.900   6.158  0.6378  0.1318  0.7731
  124OSM   H13A13164   4.057   2.800   6.199 -0.9874  1.0712  3.4572
  124OSM   H13B13165   4.143   2.953   6.187  0.6834 -0.8577  2.5494
  124OSM   H13C13166   4.056   2.891   6.050 -1.6213 -1.9063  0.8115
  124OSM    C1213167   3.933   2.979   6.354 -0.3884  0.3835  1.7391
  124OSM   H12A13168   3.851   3.045   6.380 -2.3053 -0.7115 -1.1228
  124OSM   H12B13169   4.020   3.037   6.381 -0.4365  1.1411  0.3841
  124OSM    C1113170   3.950   2.842   6.430  0.3618  0.1308 -0.1485
  124OSM   H11A13171   3.864   2.775   6.403  1.7286 -1.2289 -1.3122
  124OSM   H11B13172   3.939   2.885   6.532  2.0114  1.0320 -0.3263
  124OSM      P13173   4.198   2.833   6.473  0.4057  0.1044  0.2956
  124OSM    O1313174   4.313   2.749   6.453  0.5781  0.1683 -0.3163
  124OSM    O1413175   4.210   2.978   6.435  0.0257 -0.5745 -0.4249
  124OSM    O1113176   4.148   2.832   6.622 -0.5478 -1.0802  0.5794
  124OSM    O1213177   4.070   2.767   6.402  0.4997  0.3259 -0.1545
  124OSM    C1S13178   4.117   2.720   6.699  0.3662  1.0751 -0.1388
  124OSM    H1S13179   4.202   2.649   6.700 -1.1949 -0.8642  0.9697
  124OSM    H1T13180   4.033   2.666   6.651  0.6516  1.1293 -0.7008
  124OSM     NF13181   4.020   2.633   6.913  0.6969  0.1509  0.8900
  124OSM    HNF13182   3.920   2.631   6.915  0.5794  1.3517 -0.7760
  124OSM    C2S13183   4.072   2.759   6.847  0.3646  0.1650 -0.3526
  124OSM    H2S13184   4.166   2.788   6.899 -0.0011 -2.2107  1.8588
  124OSM    C3S13185   3.970   2.878   6.851  0.6325 -0.2577  0.0630
  124OSM    H3S13186   3.881   2.838   6.797  1.1389 -0.3349 -0.7254
  124OSM     O313187   4.010   2.986   6.759 -0.0827 -0.3822 -0.1002
  124OSM    HO313188   4.080   2.954   6.702 -0.2547 -0.7990 -0.0771
  124OSM    C4S13189   3.939   2.922   6.987  0.4411 -0.0439 -0.2381
  124OSM    H4S13190   3.840   2.893   7.024 -0.1900  0.6176 -1.3659
  124OSM    C5S13191   4.014   3.001   7.066  0.1048  0.4376 -0.5065
  124OSM    H5S13192   4.114   3.036   7.037 -0.3423  0.1118 -2.6361
  124OSM    C6S13193   3.982   3.041   7.206 -0.1104  0.0404  0.1230
  124OSM    H6S13194   3.944   3.145   7.209  2.2284  0.9546 -0.2457
  124OSM    H6T13195   4.073   3.051   7.270  0.0348 -2.1525  0.3347
  124OSM    C7S13196   3.867   2.954   7.269 -0.5408 -0.3535 -0.2995
  124OSM    H7S13197   3.902   2.848   7.266  1.3034  0.2057 -0.0766
  124OSM    H7T13198   3.780   2.968   7.202 -0.4370  1.7212 -0.0558
  124OSM    C8S13199   3.839   3.009   7.413 -0.6056  0.4200  0.3125
  124OSM    H8S13200   3.735   2.977   7.436 -0.9776  1.5335  0.2104
  124OSM    H8T13201   3.854   3.118   7.407  2.0154  0.4187  3.7225
  124OSM    C9S13202   3.920   2.939   7.529  0.2997 -0.4841  0.1694
  124OSM    H9S13203   4.027   2.966   7.518  0.0540 -0.4370 -2.6732
  124OSM    H9T13204   3.899   2.830   7.531 -0.7209 -0.3033  2.0884
  124OSM   C10S13205   3.862   2.985   7.665  0.4646 -0.4516  0.2072
  124OSM   H10S13206   3.755   2.957   7.672  0.1953  0.6236  0.6076
  124OSM   H10T13207   3.864   3.096   7.668 -1.4656 -0.3142 -1.3754
  124OSM   C11S13208   3.935   2.918   7.782  0.6790  0.0107 -0.4718
  124OSM   H11S13209   4.045   2.925   7.771  0.6314  1.7376 -0.0572
  124OSM   H11T13210   3.892   2.816   7.793 -2.1083  1.1678  0.2977
  124OSM   C12S13211   3.898   2.990   7.914  0.1008 -0.1733  0.4035
  124OSM   H12S13212   3.789   2.992   7.934 -0.0121  0.7751 -0.2158
  124OSM   H12T13213   3.925   3.096   7.893  1.0516 -0.8022 -1.9355
  124OSM   C13S13214   3.969   2.940   8.037 -0.5509  0.4558 -0.3274
  124OSM   H13S13215   4.078   2.928   8.019 -0.3753  0.2385  0.8166
  124OSM   H13T13216   3.936   2.836   8.057 -1.6679  0.9013  0.1936
  124OSM   C14S13217   3.946   3.027   8.162 -0.3212  0.5617 -0.1018
  124OSM   H14S13218   3.955   2.964   8.253 -3.2965  0.7989  0.4475
  124OSM   H14T13219   3.841   3.063   8.159 -0.7379 -0.6905 -2.1468
  124OSM   C15S13220   4.047   3.143   8.177 -0.0531  0.7499 -0.4967
  124OSM   H15S13221   4.023   3.216   8.097  1.0881 -1.3451 -2.8987
  124OSM   H15T13222   4.151   3.116   8.149 -0.0973 -1.9043  1.4734
  124OSM   C16S13223   4.044   3.199   8.315 -0.2700 -0.2658  0.1486
  124OSM   H16S13224   4.057   3.110   8.381  0.6720  0.1900  0.6045
  124OSM   H16T13225   3.946   3.245   8.339  0.5129  0.8465  1.3374
  124OSM   C17S13226   4.149   3.304   8.351 -0.1446 -0.3401 -0.2158
  124OSM   H17S13227   4.122   3.394   8.291  0.0517  1.0002  1.6022
  124OSM   H17T13228   4.256   3.284   8.326 -0.4398 -0.2787 -1.6021
  124OSM   C18S13229   4.153   3.345   8.498  0.1286  0.9325 -1.2273
  124OSM   H18S13230   4.222   3.431   8.510  1.1404 -0.0209  0.1706
  124OSM   H18T13231   4.195   3.263   8.560  0.9016  0.7107 -2.0162
  124OSM   H18U13232   4.051   3.367   8.537 -0.0356 -1.9065  0.2491
  124OSM    C1F13233   4.091   2.525   6.937  0.5742  0.8212 -0.1583
  124OSM     OF13234   4.211   2.527   6.927 -0.0508 -0.7981  0.5717
  124OSM    C2F13235   4.023   2.392   6.962 -0.1041 -0.3082 -0.0020
  124OSM    H2F13236   4.090   2.308   6.990 -1.1384 -1.4378 -0.8106
  124OSM    H2G13237   3.970   2.361   6.869 -1.4484 -2.4758  1.4095
  124OSM    C3F13238   3.930   2.407   7.091 -0.0762 -0.5186  0.8614
  124OSM    H3F13239   3.869   2.315   7.084 -2.3113  0.8187  1.8043
  124OSM    H3G13240   3.858   2.490   7.072 -0.4027 -0.2782  2.8845
  124OSM    C4F13241   4.009   2.423   7.215 -0.2101  0.2317  0.5723
  124OSM    H4F13242   4.050   2.527   7.216  0.3547  0.0215  0.0623
  124OSM    H4G13243   4.098   2.357   7.223  1.3537  2.2458  0.8258
  124OSM    C5F13244   3.902   2.409   7.334  0.4774 -0.2183  0.1536
  124OSM    H5F13245   3.851   2.315   7.303 -0.2218  0.5275 -1.0278
  124OSM    H5G13246   3.832   2.496   7.335  2.7540  1.6988  0.5698
  124OSM    C6F13247   3.963   2.395   7.469 -0.4944 -0.1029 -0.8813
  124OSM    H6F13248   4.055   2.333   7.474 -0.3826  0.0476 -1.0431
  124OSM    H6G13249   3.884   2.359   7.538  1.2336 -1.9482  0.2387
  124OSM    C7F13250   4.019   2.530   7.518  0.5930 -0.5602 -0.4601
  124OSM    H7F13251   3.935   2.603   7.514  0.1244 -1.0464  0.2059
  124OSM    H7G13252   4.094   2.555   7.441  0.7573  0.6891  0.0823
  124OSM    C8F13253   4.078   2.529   7.657 -0.3420 -0.5372  0.2166
  124OSM    H8F13254   4.153   2.446   7.660  0.8893  0.4090 -2.1963
  124OSM    H8G13255   3.997   2.507   7.731  2.4834 -3.5920  2.7663
  124OSM    C9F13256   4.153   2.658   7.690  0.1648  0.4297 -0.0442
  124OSM    H9F13257   4.129   2.748   7.632 -2.1998 -0.5196 -0.6755
  124OSM   C10F13258   4.241   2.668   7.795  0.4042  0.0814  0.4390
  124OSM   H10F13259   4.292   2.763   7.817  1.4961 -0.2165 -0.6973
  124OSM   C11F13260   4.283   2.566   7.897  0.1957 -0.7665  0.3208
  124OSM   H11F13261   4.390   2.585   7.918  0.2752  1.3240 -1.5617
  124OSM   H11G13262   4.267   2.464   7.854  0.2609 -0.1385 -1.2606
  124OSM   C12F13263   4.206   2.579   8.033  0.2526 -0.0671  0.0819
  124OSM   H12F13264   4.099   2.555   8.020  0.0228  1.6129 -1.3266
  124OSM   H12G13265   4.212   2.678   8.082 -4.8686 -0.0519  1.2087
  124OSM   C13F13266   4.256   2.476   8.137  0.4858 -0.6679  0.2911
  124OSM   H13F13267   4.366   2.491   8.143  0.3636 -0.1723  1.8164
  124OSM   H13G13268   4.250   2.373   8.097  0.6640 -0.7885  0.5704
  124OSM   C14F13269   4.198   2.491   8.279  0.5234  0.0421  0.2092
  124OSM   H14F13270   4.089   2.508   8.262  1.1033  4.4564 -0.1690
  124OSM   H14G13271   4.232   2.578   8.338 -1.9162  0.5765  0.9340
  124OSM   C15F13272   4.230   2.374   8.370  0.8260 -0.2633  0.4079
  124OSM   H15F13273   4.337   2.370   8.397  1.2545 -3.7384 -1.2748
  124OSM   H15G13274   4.207   2.284   8.309 -1.0780 -0.4378  1.2900
  124OSM   C16F13275   4.128   2.365   8.486  0.2520  0.0195 -0.1153
  124OSM   H16F13276   4.026   2.365   8.443 -0.8901 -0.0842  2.3977
  124OSM   H16G13277   4.147   2.453   8.551 -0.3135 -0.4412  0.6858
  124OSM   C17F13278   4.138   2.237   8.572  0.3371  0.1194  0.1540
  124OSM   H17F13279   4.079   2.257   8.664  2.5088  2.8681  1.0933
  124OSM   H17G13280   4.245   2.216   8.597  0.5407  2.1885  1.2455
  124OSM   C18F13281   4.068   2.111   8.517 -0.4203 -0.1093 -0.4716
  124OSM   H18F13282   3.968   2.144   8.481  0.4569  2.3147 -0.8883
  124OSM   H18G13283   4.067   2.023   8.584  0.2149  0.2220 -0.0201
  124OSM   H18H13284   4.129   2.078   8.429  0.9188  1.2702 -0.0980
  125OSM      N13285   3.329   2.903   5.968 -0.0662  0.2154 -0.1802
  125OSM    C1513286   3.394   2.776   5.925  0.3165 -0.0387 -0.3763
  125OSM   H15A13287   3.328   2.699   5.962 -2.3147  2.3687  0.2494
  125OSM   H15B13288   3.491   2.768   5.970  0.5947 -0.7221 -1.0676
  125OSM   H15C13289   3.397   2.774   5.817 -1.2449 -1.4304 -0.4348
  125OSM    C1413290   3.416   3.017   5.921  0.0249  0.2429  0.0150
  125OSM   H14A13291   3.397   3.108   5.975 -0.4437  0.2130 -0.0922
  125OSM   H14B13292   3.385   3.042   5.821 -2.8585  1.6007  1.1483
  125OSM   H14C13293   3.519   2.986   5.933 -0.2701 -0.5699  0.5054
  125OSM    C1313294   3.195   2.921   5.924  0.6919  0.3957 -0.0557
  125OSM   H13A13295   3.132   2.842   5.963  0.2139  0.2357 -1.1246
  125OSM   H13B13296   3.185   2.919   5.817  1.1729 -0.1969 -0.0940
  125OSM   H13C13297   3.155   3.013   5.965 -0.2990 -0.4674  0.9986
  125OSM    C1213298   3.325   2.907   6.123 -0.5496 -0.0477  0.3125
  125OSM   H12A13299   3.292   2.810   6.156  0.7286 -0.7514 -0.3708
  125OSM   H12B13300   3.252   2.977   6.161 -0.4159  0.9204 -1.1435
  125OSM    C1113301   3.456   2.932   6.210 -0.1643 -0.4925  0.3154
  125OSM   H11A13302   3.421   2.943   6.315 -0.7250 -2.6508  0.4147
  125OSM   H11B13303   3.507   3.025   6.178  0.3841 -0.5864  0.8850
  125OSM      P13304   3.537   2.700   6.289  0.1205 -0.1810 -0.0015
  125OSM    O1313305   3.394   2.674   6.305  0.0518 -0.1847 -0.0987
  125OSM    O1413306   3.619   2.587   6.245  0.0270 -0.2101 -0.2485
  125OSM    O1113307   3.595   2.763   6.418  0.8394 -0.1364 -0.6537
  125OSM    O1213308   3.550   2.822   6.192  0.5165  0.4722 -1.0652
  125OSM    C1S13309   3.571   2.717   6.550 -0.4383  0.4835 -0.0041
  125OSM    H1S13310   3.622   2.618   6.551 -1.5568 -0.1660 -1.8120
  125OSM    H1T13311   3.463   2.704   6.572 -0.3299  1.6884  1.3477
  125OSM     NF13312   3.584   2.767   6.794 -0.4723  0.4140  0.3471
  125OSM    HNF13313   3.500   2.810   6.824 -0.8312 -0.0116 -0.0421
  125OSM    C2S13314   3.625   2.815   6.668  0.0576  0.2261  0.6385
  125OSM    H2S13315   3.736   2.809   6.659 -0.0131  0.8523 -1.0742
  125OSM    C3S13316   3.590   2.959   6.637  0.2791 -0.3540  0.3513
  125OSM    H3S13317   3.479   2.960   6.631  0.2897 -0.9347 -0.0399
  125OSM     O313318   3.629   3.009   6.512 -0.0195 -0.0771  0.0185
  125OSM    HO313319   3.637   2.935   6.452  0.2837 -1.2195  1.4037
  125OSM    C4S13320   3.643   3.049   6.740  0.0114  0.5035  0.2962
  125OSM    H4S13321   3.738   3.088   6.700 -0.1488  1.2822  0.6472
  125OSM    C5S13322   3.598   3.085   6.855  0.6451  0.0280 -0.1244
  125OSM    H5S13323   3.501   3.051   6.895 -0.6038  0.9527 -2.1944
  125OSM    C6S13324   3.674   3.177   6.948  0.4510 -0.4747  0.0140
  125OSM    H6S13325   3.695   3.274   6.898 -2.9190  0.2046 -0.3596
  125OSM    H6T13326   3.774   3.134   6.970  0.8737  0.3669 -0.2364
  125OSM    C7S13327   3.607   3.206   7.084 -0.6095 -0.0779 -0.0495
  125OSM    H7S13328   3.593   3.108   7.135 -2.4390 -0.5157 -1.3103
  125OSM    H7T13329   3.508   3.253   7.068 -0.4262 -0.1098 -1.3594
  125OSM    C8S13330   3.684   3.318   7.166  0.3627 -0.3635  0.1182
  125OSM    H8S13331   3.688   3.420   7.123  2.1791 -0.2754  0.4205
  125OSM    H8T13332   3.792   3.293   7.166  0.8333  1.3728  2.2906
  125OSM    C9S13333   3.634   3.304   7.307  0.1197 -0.0300  0.5121
  125OSM    H9S13334   3.632   3.195   7.328 -1.0993 -0.3401 -1.0698
  125OSM    H9T13335   3.535   3.353   7.316  0.2186  0.0164  1.5595
  125OSM   C10S13336   3.732   3.381   7.404  0.1063 -0.4575 -0.2127
  125OSM   H10S13337   3.750   3.489   7.383  1.7373 -0.9584 -1.7126
  125OSM   H10T13338   3.833   3.333   7.406  0.1120 -0.4408 -0.0785
  125OSM   C11S13339   3.673   3.378   7.550 -0.1502  0.4471 -0.1136
  125OSM   H11S13340   3.651   3.271   7.571  3.4469 -0.0369  1.9776
  125OSM   H11T13341   3.581   3.439   7.564  0.8942  1.3972  3.6118
  125OSM   C12S13342   3.776   3.409   7.657 -0.0354 -0.9617 -0.3299
  125OSM   H12S13343   3.837   3.490   7.612  1.1263 -1.4859  0.2601
  125OSM   H12T13344   3.850   3.329   7.679 -0.1597 -0.4001  2.3761
  125OSM   C13S13345   3.718   3.455   7.791  0.4840  0.1963 -0.3396
  125OSM   H13S13346   3.648   3.376   7.825  0.6347  0.4170  0.5328
  125OSM   H13T13347   3.668   3.553   7.771  0.3218  0.2068  0.1013
  125OSM   C14S13348   3.826   3.477   7.902  0.5280  0.3637  0.2176
  125OSM   H14S13349   3.884   3.565   7.867  1.1333  0.2620  0.9312
  125OSM   H14T13350   3.892   3.389   7.919 -1.4495 -1.3494 -0.6540
  125OSM   C15S13351   3.763   3.528   8.031  0.0391 -0.0127 -0.7111
  125OSM   H15S13352   3.707   3.450   8.087 -1.2688  0.8612 -0.7671
  125OSM   H15T13353   3.690   3.606   8.000 -0.3361 -0.6166 -1.3769
  125OSM   C16S13354   3.857   3.586   8.142 -0.6141 -0.2861 -0.2233
  125OSM   H16S13355   3.925   3.662   8.096 -0.1210  1.6393  3.3608
  125OSM   H16T13356   3.914   3.503   8.188 -1.2158 -1.0207 -0.7791
  125OSM   C17S13357   3.792   3.658   8.253 -0.2175 -0.7703  0.2596
  125OSM   H17S13358   3.701   3.601   8.279 -0.7201 -0.5936 -1.0402
  125OSM   H17T13359   3.764   3.763   8.231  1.2588 -0.8055 -2.0646
  125OSM   C18S13360   3.899   3.672   8.363 -0.1741  0.7857  0.4697
  125OSM   H18S13361   3.857   3.711   8.458 -0.5486 -1.6205  1.3691
  125OSM   H18T13362   3.990   3.727   8.331  2.5366 -2.5053  1.9969
  125OSM   H18U13363   3.938   3.573   8.394  0.3500  1.5725  2.4645
  125OSM    C1F13364   3.644   2.658   6.848  0.3058  0.0445  0.5073
  125OSM     OF13365   3.750   2.621   6.801 -0.1290 -0.1107  0.5378
  125OSM    C2F13366   3.588   2.592   6.974 -0.1557 -0.6425  0.1340
  125OSM    H2F13367   3.646   2.501   6.998 -0.8507 -0.8473  1.0665
  125OSM    H2G13368   3.482   2.574   6.948 -0.2254  0.2242 -0.2335
  125OSM    C3F13369   3.580   2.681   7.095  0.2716 -0.9934 -0.2028
  125OSM    H3F13370   3.525   2.772   7.062 -0.0451 -1.4652 -0.9968
  125OSM    H3G13371   3.687   2.702   7.116  0.1667  1.1350 -1.4761
  125OSM    C4F13372   3.519   2.614   7.217 -0.1059  1.0196 -0.4784
  125OSM    H4F13373   3.580   2.523   7.237 -0.3844  0.6814 -1.1662
  125OSM    H4G13374   3.420   2.567   7.205 -0.2702  0.7899  1.4101
  125OSM    C5F13375   3.515   2.707   7.340  0.4394 -0.2103 -0.3185
  125OSM    H5F13376   3.487   2.804   7.293 -1.0660 -0.8321 -0.7623
  125OSM    H5G13377   3.614   2.727   7.387 -0.3430 -3.4939  3.2047
  125OSM    C6F13378   3.420   2.657   7.446 -0.0520  0.1872 -0.3878
  125OSM    H6F13379   3.413   2.547   7.441 -2.9779  0.3219 -1.0314
  125OSM    H6G13380   3.316   2.686   7.418 -0.4568 -0.7283  0.1335
  125OSM    C7F13381   3.450   2.716   7.593  0.4850  0.5371 -0.0801
  125OSM    H7F13382   3.370   2.689   7.666  1.7045 -2.7299  0.2462
  125OSM    H7G13383   3.450   2.826   7.579 -1.6894  0.5614 -0.2603
  125OSM    C8F13384   3.579   2.660   7.654 -0.2796  0.1900 -0.3504
  125OSM    H8F13385   3.596   2.714   7.750 -1.0344  0.6532 -0.4697
  125OSM    H8G13386   3.663   2.673   7.582 -0.3812  0.4288 -0.4250
  125OSM    C9F13387   3.566   2.512   7.670 -0.2603 -0.6163  0.8410
  125OSM    H9F13388   3.628   2.456   7.597 -1.1219  0.3324 -0.6745
  125OSM   C10F13389   3.499   2.449   7.759  0.4660 -0.1827  0.3280
  125OSM   H10F13390   3.499   2.340   7.753  1.8353 -0.2125  0.7057
  125OSM   C11F13391   3.406   2.495   7.871 -0.3246 -0.4235 -0.4113
  125OSM   H11F13392   3.311   2.444   7.845  0.1346 -1.0847 -0.8210
  125OSM   H11G13393   3.387   2.604   7.858  0.0355 -0.5625 -2.5245
  125OSM   C12F13394   3.444   2.463   8.019  0.5073  0.1119  0.0911
  125OSM   H12F13395   3.468   2.355   8.016  0.6680  0.1144  1.0016
  125OSM   H12G13396   3.352   2.471   8.080 -0.8197 -1.0962 -1.6678
  125OSM   C13F13397   3.570   2.522   8.076 -0.0477 -0.1989  0.4274
  125OSM   H13F13398   3.655   2.480   8.017 -0.0887  0.7478 -0.3236
  125OSM   H13G13399   3.579   2.480   8.179  0.2372 -0.1603  0.4191
  125OSM   C14F13400   3.575   2.677   8.066  0.0093 -0.0699 -0.0751
  125OSM   H14F13401   3.473   2.714   8.093  0.8711  1.4795  1.2749
  125OSM   H14G13402   3.611   2.691   7.962  2.6743  0.2410  0.8241
  125OSM   C15F13403   3.673   2.743   8.167  0.6825 -0.0168  0.8910
  125OSM   H15F13404   3.696   2.849   8.142  1.3542 -0.4437 -0.3517
  125OSM   H15G13405   3.763   2.683   8.144  1.7052  1.4438  0.9168
  125OSM   C16F13406   3.637   2.731   8.311 -0.4275 -0.0217  0.2450
  125OSM   H16F13407   3.637   2.628   8.353 -1.5539 -0.6259 -1.1247
  125OSM   H16G13408   3.530   2.761   8.316 -0.7271 -1.1903  1.2473
  125OSM   C17F13409   3.713   2.836   8.398  0.1941  0.1690 -0.0419
  125OSM   H17F13410   3.729   2.927   8.336 -0.7876  0.2242 -0.2192
  125OSM   H17G13411   3.816   2.797   8.409 -0.0005 -0.1840  0.6048
  125OSM   C18F13412   3.657   2.874   8.538  0.0727  0.6471 -0.0307
  125OSM   H18F13413   3.735   2.908   8.609  1.1854  0.6086 -1.1994
  125OSM   H18G13414   3.610   2.784   8.584 -1.7992  0.9495 -1.2541
  125OSM   H18H13415   3.574   2.947   8.527 -2.3870 -1.5483  2.5407
  126OSM      N13416   1.785   2.281   6.050 -0.4338  0.2797  0.0416
  126OSM    C1513417   1.713   2.160   6.114 -0.1344 -0.6268  0.1152
  126OSM   H15A13418   1.621   2.204   6.149  0.3519  1.3030 -0.8582
  126OSM   H15B13419   1.778   2.115   6.188  1.1875  2.2383  0.8346
  126OSM   H15C13420   1.687   2.091   6.036 -1.4567  2.2199 -2.1681
  126OSM    C1413421   1.916   2.227   5.995 -0.4162  0.1287  0.0375
  126OSM   H14A13422   1.888   2.158   5.917 -0.0806 -1.0368  0.9237
  126OSM   H14B13423   1.965   2.164   6.068 -2.2389 -0.6224  0.6637
  126OSM   H14C13424   1.983   2.306   5.965  0.2590  0.1586  1.5093
  126OSM    C1313425   1.706   2.332   5.938 -0.1819 -0.1913  0.0031
  126OSM   H13A13426   1.749   2.415   5.886 -1.0721 -0.3107 -0.9417
  126OSM   H13B13427   1.615   2.377   5.976  1.6283  3.0144  0.8977
  126OSM   H13C13428   1.698   2.261   5.857  0.3567 -1.0582  0.6892
  126OSM    C1213429   1.812   2.386   6.155  0.0713  0.4694  0.0364
  126OSM   H12A13430   1.889   2.448   6.111  0.6363 -1.6955 -2.2721
  126OSM   H12B13431   1.849   2.334   6.243  1.6340 -1.3704 -1.6029
  126OSM    C1113432   1.697   2.475   6.204 -0.5907 -0.3218  0.0302
  126OSM   H11A13433   1.673   2.538   6.116  1.1282  0.8037  0.3216
  126OSM   H11B13434   1.733   2.537   6.288  1.8249 -1.0646 -0.3792
  126OSM      P13435   1.447   2.448   6.287  0.3144 -0.4127  0.1912
  126OSM    O1313436   1.349   2.476   6.177  0.1786  0.3843  0.2040
  126OSM    O1413437   1.414   2.357   6.396 -0.1550 -0.0821 -0.2070
  126OSM    O1113438   1.492   2.581   6.357 -0.3153 -0.4319  0.0102
  126OSM    O1213439   1.585   2.392   6.240 -0.2607 -0.2297  0.0179
  126OSM    C1S13440   1.394   2.652   6.435  0.2734 -0.2874 -0.8200
  126OSM    H1S13441   1.294   2.653   6.386  0.0307 -0.3861 -0.3283
  126OSM    H1T13442   1.423   2.759   6.433  0.9841 -0.4790 -2.2571
  126OSM     NF13443   1.308   2.693   6.660 -0.0543 -0.6289 -0.1727
  126OSM    HNF13444   1.352   2.768   6.709 -1.2378 -0.4157  0.6132
  126OSM    C2S13445   1.399   2.611   6.586  0.2477 -0.3577  0.1812
  126OSM    H2S13446   1.356   2.508   6.587 -1.3302  0.2659  1.4207
  126OSM    C3S13447   1.536   2.590   6.658  0.4516  0.0852  0.2753
  126OSM    H3S13448   1.584   2.690   6.669 -0.3063  0.5643 -0.6556
  126OSM     O313449   1.630   2.517   6.573  0.6992  0.0902 -0.0186
  126OSM    HO313450   1.598   2.504   6.483 -0.5203 -0.3792  0.4524
  126OSM    C4S13451   1.514   2.538   6.795  0.1555  0.0187 -0.2549
  126OSM    H4S13452   1.482   2.617   6.864 -4.2393  0.5003 -2.4962
  126OSM    C5S13453   1.520   2.414   6.845 -0.5528  0.6510  0.3100
  126OSM    H5S13454   1.525   2.330   6.774 -0.0120  0.1177  0.9787
  126OSM    C6S13455   1.484   2.398   6.986 -0.5788  0.4848  0.4106
  126OSM    H6S13456   1.559   2.435   7.060 -1.1303 -0.6242  1.5564
  126OSM    H6T13457   1.494   2.288   6.990 -3.2744  0.2053  1.6804
  126OSM    C7S13458   1.348   2.449   7.033  0.3511 -0.2319  0.7066
  126OSM    H7S13459   1.269   2.382   6.993  2.3782 -1.8788 -0.8038
  126OSM    H7T13460   1.331   2.549   6.986 -2.9231 -0.7677  0.5026
  126OSM    C8S13461   1.336   2.452   7.184 -0.1693  0.1240 -0.3136
  126OSM    H8S13462   1.227   2.462   7.201 -0.2949 -1.5107 -0.0135
  126OSM    H8T13463   1.388   2.541   7.225 -1.8460  1.6413 -1.3326
  126OSM    C9S13464   1.377   2.316   7.245  0.1480  0.5455 -0.0734
  126OSM    H9S13465   1.481   2.283   7.226 -0.3228  0.0131 -1.9118
  126OSM    H9T13466   1.309   2.238   7.205 -0.5664  0.6676  0.8684
  126OSM   C10S13467   1.346   2.310   7.400 -0.4605 -1.0047  0.4360
  126OSM   H10S13468   1.370   2.211   7.446  0.9506 -0.2101  1.4865
  126OSM   H10T13469   1.236   2.324   7.411 -0.7347  0.7209 -3.1572
  126OSM   C11S13470   1.437   2.412   7.480 -0.1881 -0.2948 -0.1959
  126OSM   H11S13471   1.441   2.506   7.421  0.6388 -1.4644 -2.1004
  126OSM   H11T13472   1.538   2.368   7.466 -1.6848 -3.6359 -1.6910
  126OSM   C12S13473   1.388   2.445   7.623 -0.9314 -0.3948  0.1174
  126OSM   H12S13474   1.288   2.491   7.609 -0.6774  0.0817 -0.1361
  126OSM   H12T13475   1.450   2.526   7.668  2.7295 -2.3100 -1.0536
  126OSM   C13S13476   1.366   2.323   7.708  1.0459 -0.5025  0.1412
  126OSM   H13S13477   1.451   2.252   7.718  1.6694  0.3807  1.2703
  126OSM   H13T13478   1.276   2.265   7.679  1.4376 -0.1052 -2.0026
  126OSM   C14S13479   1.335   2.380   7.850  0.0681 -0.4966 -0.3838
  126OSM   H14S13480   1.259   2.461   7.840  0.9032  0.4662  0.8217
  126OSM   H14T13481   1.425   2.426   7.896 -1.2555  1.0208  0.8087
  126OSM   C15S13482   1.286   2.264   7.943  0.1342  0.0759  0.9271
  126OSM   H15S13483   1.373   2.197   7.958 -0.2348 -0.0599  2.6234
  126OSM   H15T13484   1.203   2.210   7.892 -1.5269  1.6805  1.7825
  126OSM   C16S13485   1.253   2.307   8.086 -0.1606 -0.8869 -0.2409
  126OSM   H16S13486   1.173   2.384   8.082 -1.7794 -2.5002 -0.4471
  126OSM   H16T13487   1.350   2.350   8.117 -0.0731 -0.4303 -1.1129
  126OSM   C17S13488   1.199   2.204   8.183 -0.5386 -0.9157 -0.1408
  126OSM   H17S13489   1.288   2.142   8.206 -0.7298 -1.0163  0.3489
  126OSM   H17T13490   1.119   2.145   8.134 -0.7748  0.6271 -1.7039
  126OSM   C18S13491   1.159   2.257   8.322 -0.1783  0.5017  0.5146
  126OSM   H18S13492   1.058   2.302   8.319 -0.5053  0.1122  2.9781
  126OSM   H18T13493   1.242   2.321   8.360  1.2367 -0.9268 -0.0727
  126OSM   H18U13494   1.153   2.167   8.388 -0.8274 -1.7816 -2.4382
  126OSM    C1F13495   1.177   2.685   6.669  1.3673  0.4355  0.7206
  126OSM     OF13496   1.111   2.591   6.628  0.3210  0.5443 -0.1280
  126OSM    C2F13497   1.106   2.801   6.737 -0.3722 -0.1137 -0.5988
  126OSM    H2F13498   1.092   2.879   6.660  4.2354  2.7237  0.9887
  126OSM    H2G13499   1.175   2.855   6.806  1.0236  1.3585 -3.0310
  126OSM    C3F13500   0.986   2.752   6.822  1.1479  0.1570 -0.3126
  126OSM    H3F13501   1.024   2.682   6.899  0.5773  0.6304  0.4274
  126OSM    H3G13502   0.917   2.687   6.765  0.7152 -2.5552  2.9892
  126OSM    C4F13503   0.903   2.871   6.899  0.4923 -0.2265 -0.1834
  126OSM    H4F13504   0.828   2.807   6.952 -1.1382 -0.4212 -2.5731
  126OSM    H4G13505   0.837   2.935   6.837  1.5960 -0.4657 -1.6636
  126OSM    C5F13506   0.981   2.948   6.996  0.0666  0.2041  0.6499
  126OSM    H5F13507   0.919   3.025   7.047  2.9055  2.8935  0.3419
  126OSM    H5G13508   1.060   3.004   6.941  1.2362 -1.2705  0.7708
  126OSM    C6F13509   1.040   2.862   7.117 -0.1971  0.1602  0.0240
  126OSM    H6F13510   1.095   2.780   7.065 -0.0031  0.7979 -0.7829
  126OSM    H6G13511   0.948   2.825   7.168 -0.9159 -1.9599 -2.6166
  126OSM    C7F13512   1.117   2.953   7.215 -0.0277  0.0150  0.2708
  126OSM    H7F13513   1.035   3.014   7.257 -0.8875 -0.4224 -0.7474
  126OSM    H7G13514   1.203   3.013   7.177  0.7476 -1.1788  0.0865
  126OSM    C8F13515   1.159   2.868   7.339 -1.0219  0.3069 -0.0917
  126OSM    H8F13516   1.233   2.792   7.306  0.8656  1.9619  0.1388
  126OSM    H8G13517   1.079   2.807   7.387 -0.1042 -0.2283  0.8142
  126OSM    C9F13518   1.230   2.957   7.442  0.2424  0.6582  0.1394
  126OSM    H9F13519   1.280   3.041   7.392 -2.1622  1.1654 -1.6279
  126OSM   C10F13520   1.205   2.961   7.575  0.5989 -0.3417  0.0831
  126OSM   H10F13521   1.249   3.049   7.625  0.0304  1.2583 -2.0380
  126OSM   C11F13522   1.109   2.874   7.657 -0.6562  0.4974 -0.2439
  126OSM   H11F13523   1.133   2.772   7.621  3.6962  0.9352  0.9228
  126OSM   H11G13524   1.005   2.906   7.633 -0.9651 -1.0578 -1.1204
  126OSM   C12F13525   1.138   2.862   7.808  0.1555 -0.4475  0.0022
  126OSM   H12F13526   1.154   2.963   7.850  2.7432 -0.5121 -0.6499
  126OSM   H12G13527   1.232   2.804   7.810  1.2362  1.2140 -0.2562
  126OSM   C13F13528   1.026   2.802   7.892  0.5064  0.3148 -0.0190
  126OSM   H13F13529   0.999   2.706   7.842 -1.0727  0.1818  1.0231
  126OSM   H13G13530   0.934   2.864   7.890 -0.3190 -0.8092  1.7538
  126OSM   C14F13531   1.059   2.792   8.038 -0.1914 -0.0810  0.5693
  126OSM   H14F13532   1.112   2.883   8.074 -1.4916  0.7552  0.4253
  126OSM   H14G13533   1.128   2.705   8.041 -1.8446 -1.4706  0.1969
  126OSM   C15F13534   0.936   2.750   8.118  0.2469 -0.2027 -0.5532
  126OSM   H15F13535   0.864   2.691   8.057  0.5729  0.1221 -1.2672
  126OSM   H15G13536   0.885   2.843   8.151  1.2553 -0.0199  0.5457
  126OSM   C16F13537   0.962   2.665   8.246 -0.1251 -0.1032  0.0944
  126OSM   H16F13538   0.965   2.558   8.218  0.0636  0.7514 -3.7746
  126OSM   H16G13539   0.869   2.686   8.302  0.0750  0.9943  0.0373
  126OSM   C17F13540   1.085   2.715   8.325  0.4422 -0.0622  0.0999
  126OSM   H17F13541   1.178   2.718   8.266 -0.6707  0.7074 -1.7053
  126OSM   H17G13542   1.098   2.637   8.403 -1.8829  0.2480  0.8814
  126OSM   C18F13543   1.059   2.853   8.384 -0.7335  0.3511  0.3798
  126OSM   H18F13544   0.982   2.844   8.463 -2.0435  2.3685 -0.5627
  126OSM   H18G13545   1.033   2.932   8.310 -0.0601  0.0120 -0.2367
  126OSM   H18H13546   1.157   2.882   8.428  0.3990 -2.9848  0.3221
  127OSM      N13547   3.223   4.921   6.254 -0.6061 -0.7146 -0.4659
  127OSM    C1513548   3.173   4.798   6.194  0.3004  0.7489 -0.4749
  127OSM   H15A13549   3.146   4.816   6.091 -1.6583 -2.9056 -0.7843
  127OSM   H15B13550   3.089   4.746   6.239  1.8124 -1.6211 -0.1776
  127OSM   H15C13551   3.249   4.722   6.178  1.4596  1.8678 -0.4563
  127OSM    C1413552   3.108   5.028   6.254 -0.0822 -0.1163  0.3484
  127OSM   H14A13553   3.046   5.035   6.166 -1.2591  0.8742  1.2266
  127OSM   H14B13554   3.145   5.125   6.284  4.1828 -2.2098  2.7721
  127OSM   H14C13555   3.027   4.997   6.318 -0.6030 -0.6889 -0.5644
  127OSM    C1313556   3.261   4.901   6.395 -0.0849  0.2307 -0.0228
  127OSM   H13A13557   3.310   4.987   6.439 -0.9751  0.5124  0.4401
  127OSM   H13B13558   3.330   4.818   6.401 -0.6516 -0.2562 -0.0254
  127OSM   H13C13559   3.177   4.881   6.460  1.5463 -0.4004  2.0020
  127OSM    C1213560   3.343   4.977   6.181 -0.1942  0.0403 -0.4912
  127OSM   H12A13561   3.320   4.999   6.078  1.5235 -0.9069 -1.1174
  127OSM   H12B13562   3.427   4.909   6.175 -0.2741 -0.0399 -0.7489
  127OSM    C1113563   3.410   5.111   6.238 -0.2801  0.1789 -0.1365
  127OSM   H11A13564   3.338   5.191   6.263  0.9453  0.9259  1.1232
  127OSM   H11B13565   3.474   5.140   6.152 -1.2986  2.1247 -0.2878
  127OSM      P13566   3.604   5.166   6.411 -0.0663 -0.0351 -0.0323
  127OSM    O1313567   3.719   5.078   6.449  0.2235 -0.0313  0.7215
  127OSM    O1413568   3.622   5.275   6.315 -0.2642  0.2505 -0.0648
  127OSM    O1113569   3.543   5.237   6.537  0.3729  0.4391 -0.0282
  127OSM    O1213570   3.486   5.083   6.353 -0.3500 -0.6280 -0.2388
  127OSM    C1S13571   3.404   5.286   6.545  0.1242  0.4133  0.0286
  127OSM    H1S13572   3.327   5.213   6.513 -1.1271  1.8750 -0.4471
  127OSM    H1T13573   3.393   5.367   6.470  2.6243  0.1727 -0.6712
  127OSM     NF13574   3.255   5.426   6.687  0.2549 -0.0795 -0.3025
  127OSM    HNF13575   3.269   5.525   6.690  1.3420 -0.2042 -0.7511
  127OSM    C2S13576   3.374   5.346   6.694  0.1755 -0.4871  0.6649
  127OSM    H2S13577   3.362   5.260   6.764  0.3218 -0.4336  0.7566
  127OSM    C3S13578   3.495   5.429   6.748  0.1812 -0.2234 -0.0173
  127OSM    H3S13579   3.502   5.520   6.685 -2.3242  0.2568  0.3241
  127OSM     O313580   3.623   5.358   6.752 -0.2234 -0.1243 -0.3972
  127OSM    HO313581   3.606   5.277   6.704 -1.9996 -0.4352  0.6284
  127OSM    C4S13582   3.463   5.485   6.888 -0.0799 -0.1799 -0.0165
  127OSM    H4S13583   3.423   5.588   6.893  2.9783  1.0702  0.9767
  127OSM    C5S13584   3.442   5.415   7.005 -0.7578  0.6539  0.5341
  127OSM    H5S13585   3.442   5.305   7.002 -0.7863  0.6317  1.2611
  127OSM    C6S13586   3.414   5.482   7.133  0.1953  0.3328  0.2881
  127OSM    H6S13587   3.310   5.466   7.167  0.1593 -0.7846 -0.2914
  127OSM    H6T13588   3.427   5.592   7.129 -1.6948  0.5486 -1.3519
  127OSM    C7S13589   3.501   5.430   7.252 -0.0280  0.8155  0.4251
  127OSM    H7S13590   3.607   5.448   7.225 -0.2484 -1.1224 -2.0610
  127OSM    H7T13591   3.484   5.320   7.254 -1.3887  0.9997  0.1872
  127OSM    C8S13592   3.459   5.502   7.383 -0.2813  0.7366 -0.0953
  127OSM    H8S13593   3.353   5.467   7.389 -0.4797  1.2647 -0.4637
  127OSM    H8T13594   3.460   5.611   7.363  2.5045  0.5949 -1.0512
  127OSM    C9S13595   3.556   5.467   7.497  0.3347 -0.6748 -0.8832
  127OSM    H9S13596   3.642   5.532   7.470 -1.3163  1.0204 -2.2996
  127OSM    H9T13597   3.576   5.358   7.497  0.5117 -0.6509 -0.2500
  127OSM   C10S13598   3.485   5.500   7.629  0.6492  0.3592 -0.3975
  127OSM   H10S13599   3.386   5.451   7.619  0.3187  1.1596 -1.1080
  127OSM   H10T13600   3.472   5.606   7.657  2.5228  0.2121  1.3250
  127OSM   C11S13601   3.574   5.441   7.743 -0.0536 -0.0361  0.4804
  127OSM   H11S13602   3.559   5.510   7.829 -0.2399  0.0328  0.3918
  127OSM   H11T13603   3.683   5.437   7.723  0.2578  0.0717  1.9936
  127OSM   C12S13604   3.520   5.302   7.786 -0.5102  0.0806  0.9628
  127OSM   H12S13605   3.513   5.228   7.704  1.2011  0.5630  0.3400
  127OSM   H12T13606   3.422   5.311   7.838 -0.6825 -1.5205  0.9439
  127OSM   C13S13607   3.610   5.240   7.893 -0.9077  0.0037 -0.1488
  127OSM   H13S13608   3.646   5.322   7.959  0.5958  0.7861 -1.8557
  127OSM   H13T13609   3.710   5.215   7.851  0.0739 -1.3561  2.7760
  127OSM   C14S13610   3.543   5.131   7.982 -0.2565 -0.5835 -0.4151
  127OSM   H14S13611   3.479   5.176   8.061  0.5712  0.2018 -0.1851
  127OSM   H14T13612   3.623   5.074   8.034 -0.5425 -0.8774 -0.2873
  127OSM   C15S13613   3.430   5.047   7.910 -0.0109 -0.1335  0.3430
  127OSM   H15S13614   3.469   4.992   7.822 -3.3729  0.3409 -1.5956
  127OSM   H15T13615   3.345   5.108   7.872  1.0234  0.5530 -0.9506
  127OSM   C16S13616   3.381   4.938   8.003  0.1371  0.2801  0.2047
  127OSM   H16S13617   3.284   4.964   8.050 -0.0622  1.2352 -0.6855
  127OSM   H16T13618   3.452   4.934   8.088  0.4227 -0.5057 -0.0648
  127OSM   C17S13619   3.356   4.805   7.926 -0.2627  0.1668  0.7540
  127OSM   H17S13620   3.454   4.760   7.899 -1.1322 -1.6813  0.5161
  127OSM   H17T13621   3.303   4.826   7.831  1.4326 -1.0060 -0.5213
  127OSM   C18S13622   3.279   4.693   8.001  0.4457  0.0596  0.3127
  127OSM   H18S13623   3.263   4.615   7.923  2.4213  0.9737 -1.0575
  127OSM   H18T13624   3.176   4.723   8.030  0.6431 -1.9515  3.6901
  127OSM   H18U13625   3.326   4.644   8.089 -2.1658 -0.6867  1.4137
  127OSM    C1F13626   3.131   5.383   6.641 -0.2537  0.7868 -0.6010
  127OSM     OF13627   3.109   5.262   6.620 -0.3858 -0.2360  0.1546
  127OSM    C2F13628   3.021   5.494   6.642 -0.4108 -0.1777  0.6176
  127OSM    H2F13629   2.994   5.518   6.536  1.2437 -1.3232 -0.0971
  127OSM    H2G13630   3.063   5.588   6.684  0.9147  0.7915 -2.5326
  127OSM    C3F13631   2.894   5.450   6.705 -0.7779  0.4802  0.9121
  127OSM    H3F13632   2.881   5.340   6.714 -1.7913  0.4478 -0.7108
  127OSM    H3G13633   2.809   5.499   6.655 -1.3603 -2.4930 -1.3298
  127OSM    C4F13634   2.891   5.517   6.844  0.2459  0.8158  0.6427
  127OSM    H4F13635   2.899   5.628   6.848 -2.6897  1.1034  0.4545
  127OSM    H4G13636   2.982   5.475   6.892  2.2555  1.3108 -2.4206
  127OSM    C5F13637   2.762   5.480   6.912  0.6993 -0.3535 -0.6036
  127OSM    H5F13638   2.746   5.370   6.910  2.2781 -0.6186 -0.2130
  127OSM    H5G13639   2.675   5.531   6.866 -0.1055 -1.9562 -0.9245
  127OSM    C6F13640   2.770   5.541   7.056 -0.3340 -0.5850 -0.1014
  127OSM    H6F13641   2.804   5.646   7.048 -0.0689 -0.4784  1.9420
  127OSM    H6G13642   2.854   5.485   7.101  0.4582 -0.1127 -0.9703
  127OSM    C7F13643   2.642   5.530   7.145  0.6870 -0.3017  0.2077
  127OSM    H7F13644   2.644   5.419   7.149  0.5657 -0.4196 -1.7869
  127OSM    H7G13645   2.554   5.570   7.091 -0.7323 -0.8124  2.0435
  127OSM    C8F13646   2.644   5.608   7.281  0.1851  0.7004  0.3931
  127OSM    H8F13647   2.554   5.578   7.339 -0.9409  2.8210 -0.1515
  127OSM    H8G13648   2.625   5.715   7.256 -1.7428 -0.0469 -1.6999
  127OSM    C9F13649   2.770   5.595   7.361 -0.0870 -0.3657  0.0832
  127OSM    H9F13650   2.856   5.633   7.305 -1.1262  0.3485 -1.0672
  127OSM   C10F13651   2.782   5.541   7.485  0.3045  0.3713 -0.3092
  127OSM   H10F13652   2.875   5.534   7.544 -0.7736  1.4049  1.6581
  127OSM   C11F13653   2.665   5.478   7.564 -0.5979  0.0728 -0.4093
  127OSM   H11F13654   2.679   5.370   7.587  1.3593  0.1560 -1.0136
  127OSM   H11G13655   2.565   5.496   7.519 -0.8581 -1.4333 -0.4983
  127OSM   C12F13656   2.652   5.558   7.693 -0.3585  0.2031 -0.2105
  127OSM   H12F13657   2.740   5.566   7.760  0.4083  0.2403 -1.1945
  127OSM   H12G13658   2.579   5.499   7.753 -1.4599 -1.7500 -3.2101
  127OSM   C13F13659   2.589   5.695   7.671 -0.0016  0.1772  0.4388
  127OSM   H13F13660   2.519   5.695   7.585  0.1872  0.4513  0.2805
  127OSM   H13G13661   2.680   5.753   7.646  1.1189 -1.5178  0.4523
  127OSM   C14F13662   2.512   5.751   7.791 -1.0900  0.3417  0.1587
  127OSM   H14F13663   2.478   5.855   7.771  1.2910  1.2790  0.7126
  127OSM   H14G13664   2.583   5.750   7.876  1.5395 -1.2464 -1.9074
  127OSM   C15F13665   2.376   5.680   7.827  0.1230  0.4565  0.7314
  127OSM   H15F13666   2.395   5.570   7.837 -0.2163  0.3126 -0.1425
  127OSM   H15G13667   2.306   5.700   7.743  0.3310 -0.9863  0.1727
  127OSM   C16F13668   2.312   5.730   7.951  0.3278  0.1111 -0.2050
  127OSM   H16F13669   2.202   5.728   7.960  0.4205  0.1365  1.1916
  127OSM   H16G13670   2.338   5.838   7.958 -0.0784  0.2237 -0.4144
  127OSM   C17F13671   2.363   5.668   8.086 -0.3550  0.1582  0.1226
  127OSM   H17F13672   2.474   5.674   8.084 -0.1811 -2.0847 -2.9374
  127OSM   H17G13673   2.334   5.561   8.082 -0.2164  0.0300  1.7556
  127OSM   C18F13674   2.304   5.743   8.207  0.0348  0.9805 -0.0081
  127OSM   H18F13675   2.193   5.751   8.205 -0.3225 -2.1418  1.6000
  127OSM   H18G13676   2.343   5.847   8.213  0.1415  0.9219  0.3892
  127OSM   H18H13677   2.339   5.694   8.300 -0.6767  0.0741 -0.2052
  128OSM      N13678   4.937   2.347   5.989 -0.3949  0.1607 -0.4190
  128OSM    C1513679   4.954   2.206   5.942 -0.1525  0.5348  0.3435
  128OSM   H15A13680   4.894   2.137   5.999  3.0198 -1.8165  1.1329
  128OSM   H15B13681   5.052   2.161   5.953 -1.2561 -2.9962 -2.4198
  128OSM   H15C13682   4.931   2.199   5.837 -1.7071 -1.9212  0.7705
  128OSM    C1413683   5.024   2.433   5.911 -1.1743 -1.4947 -0.7538
  128OSM   H14A13684   4.994   2.536   5.903 -2.2157 -1.7904 -0.7285
  128OSM   H14B13685   5.039   2.404   5.808  2.3011 -2.1278 -0.1950
  128OSM   H14C13686   5.125   2.437   5.951 -1.2557  2.5623 -0.5796
  128OSM    C1313687   4.794   2.397   5.964  0.5034 -0.0086  0.0345
  128OSM   H13A13688   4.724   2.339   6.023 -1.4067  1.0003 -1.1609
  128OSM   H13B13689   4.774   2.385   5.859 -2.2170 -2.1036  0.6764
  128OSM   H13C13690   4.784   2.496   6.004 -2.2853 -0.1915 -0.0736
  128OSM    C1213691   4.970   2.348   6.133 -0.5100  0.1761  0.7098
  128OSM   H12A13692   4.940   2.445   6.171 -1.9403 -0.2174  0.6317
  128OSM   H12B13693   5.077   2.330   6.134 -0.5444 -0.0350  0.8826
  128OSM    C1113694   4.915   2.234   6.230 -0.3943 -0.5490  0.3235
  128OSM   H11A13695   4.942   2.262   6.334  2.4282 -0.9281 -0.2257
  128OSM   H11B13696   4.971   2.142   6.202  2.0308  0.6286  1.0694
  128OSM      P13697   4.691   2.091   6.196  0.2082 -0.3912  0.1295
  128OSM    O1313698   4.551   2.098   6.238 -0.2901 -0.4396  0.2353
  128OSM    O1413699   4.720   2.032   6.064 -0.0838 -0.4474 -0.0801
  128OSM    O1113700   4.756   2.002   6.309  0.0061 -0.3861 -0.3433
  128OSM    O1213701   4.772   2.228   6.213 -0.1218 -0.3875 -0.2383
  128OSM    C1S13702   4.735   2.051   6.442 -0.5532  0.6606 -0.2031
  128OSM    H1S13703   4.627   2.069   6.461 -0.7876 -1.9415  1.4392
  128OSM    H1T13704   4.791   2.146   6.454  0.9930 -0.1782 -0.5215
  128OSM     NF13705   4.731   1.974   6.670  0.5081 -0.2511 -0.7226
  128OSM    HNF13706   4.794   2.011   6.738  1.2729  1.9787 -2.5233
  128OSM    C2S13707   4.790   1.949   6.539  0.0966 -0.1977 -0.3721
  128OSM    H2S13708   4.749   1.853   6.498  1.9310 -0.9501 -0.5200
  128OSM    C3S13709   4.944   1.934   6.533  0.5670  0.0150  0.1146
  128OSM    H3S13710   4.986   2.021   6.588  1.7631 -0.8713  0.6643
  128OSM     O313711   5.000   1.944   6.399  0.5433  0.1209  0.0907
  128OSM    HO313712   4.921   1.968   6.350  0.3323  1.0819  0.8689
  128OSM    C4S13713   4.995   1.810   6.612 -1.3809  0.1772 -0.2661
  128OSM    H4S13714   4.985   1.821   6.721  1.3345 -2.1640  0.3439
  128OSM    C5S13715   5.040   1.694   6.562 -0.3528  1.0170  0.3634
  128OSM    H5S13716   5.056   1.685   6.454  0.3883 -3.4092  0.6567
  128OSM    C6S13717   5.086   1.571   6.647 -0.0484  0.0571  0.5290
  128OSM    H6S13718   5.192   1.546   6.625 -0.4279  0.2398 -1.8287
  128OSM    H6T13719   5.022   1.484   6.620 -0.3806  1.1315 -2.5643
  128OSM    C7S13720   5.086   1.596   6.799 -0.3695  0.0528  0.4877
  128OSM    H7S13721   4.988   1.640   6.827  0.3914 -0.0365  3.7132
  128OSM    H7T13722   5.170   1.666   6.821  0.6803 -0.2272 -2.2450
  128OSM    C8S13723   5.114   1.473   6.884  0.3067  0.4212  0.1695
  128OSM    H8S13724   5.207   1.420   6.852 -1.4288 -1.4158 -2.3070
  128OSM    H8T13725   5.046   1.393   6.847  0.6588  1.1761 -2.3573
  128OSM    C9S13726   5.105   1.487   7.040  0.7014  0.0988  0.5391
  128OSM    H9S13727   5.006   1.531   7.065  1.7058  0.5080  4.5674
  128OSM    H9T13728   5.185   1.557   7.072  0.6376 -0.2026  1.3877
  128OSM   C10S13729   5.138   1.370   7.132  0.2067 -0.5300  0.2128
  128OSM   H10S13730   5.242   1.338   7.112  1.0246  1.9875  0.0300
  128OSM   H10T13731   5.065   1.292   7.101 -0.1330 -0.6863  1.3502
  128OSM   C11S13732   5.115   1.401   7.276 -0.9009  0.0403  0.7470
  128OSM   H11S13733   5.016   1.446   7.298 -0.7329  0.1442  1.3090
  128OSM   H11T13734   5.189   1.477   7.309  0.9920 -1.6916  0.6834
  128OSM   C12S13735   5.151   1.282   7.366  0.1657  0.1430  0.1227
  128OSM   H12S13736   5.254   1.245   7.346  0.7592  0.4650  2.3700
  128OSM   H12T13737   5.080   1.202   7.333  1.0848 -0.6050 -0.0986
  128OSM   C13S13738   5.128   1.313   7.515 -0.2986  0.4535 -0.0484
  128OSM   H13S13739   5.019   1.336   7.515 -0.0413  1.8800 -1.5879
  128OSM   H13T13740   5.184   1.405   7.541 -1.8571  1.5949 -0.5589
  128OSM   C14S13741   5.164   1.205   7.618  0.2938 -0.5454  0.3932
  128OSM   H14S13742   5.268   1.174   7.593  0.1625  0.0400 -0.9847
  128OSM   H14T13743   5.102   1.113   7.618  1.7568 -1.5782  1.4551
  128OSM   C15S13744   5.160   1.266   7.756 -0.1875 -0.0815 -0.9113
  128OSM   H15S13745   5.064   1.320   7.770  0.4715  0.7938  0.5250
  128OSM   H15T13746   5.236   1.346   7.755  0.5981 -0.7952 -2.3761
  128OSM   C16S13747   5.178   1.163   7.871 -0.2310  0.2795  0.1300
  128OSM   H16S13748   5.280   1.120   7.867  0.8889  2.5891  1.5782
  128OSM   H16T13749   5.098   1.091   7.844 -0.6073  0.7370  0.0008
  128OSM   C17S13750   5.160   1.230   8.010  0.2318 -0.1266  0.5140
  128OSM   H17S13751   5.066   1.288   8.011  0.7010  0.6349  0.9682
  128OSM   H17T13752   5.245   1.301   8.023  0.1307  0.4846 -1.7392
  128OSM   C18S13753   5.148   1.135   8.128 -0.1516 -0.1591 -0.0075
  128OSM   H18S13754   5.248   1.088   8.138  0.6878  1.6607  0.5262
  128OSM   H18T13755   5.061   1.068   8.113  0.8291 -1.7258  1.0118
  128OSM   H18U13756   5.127   1.194   8.220  1.4565  2.5112 -1.2162
  128OSM    C1F13757   4.608   1.931   6.702  0.8444  0.5307 -0.0955
  128OSM     OF13758   4.537   1.879   6.621 -0.3824 -0.3273  0.1055
  128OSM    C2F13759   4.569   1.953   6.846  0.0376 -0.0358 -0.4513
  128OSM    H2F13760   4.524   2.053   6.858 -1.6794 -0.2412 -4.0234
  128OSM    H2G13761   4.664   1.955   6.904  1.1387 -1.3184 -2.1315
  128OSM    C3F13762   4.484   1.838   6.905 -0.2953 -0.6587  0.1735
  128OSM    H3F13763   4.540   1.743   6.889  3.0371  1.6907 -4.0981
  128OSM    H3G13764   4.384   1.843   6.858  0.2111 -1.4328 -1.0448
  128OSM    C4F13765   4.451   1.879   7.048 -0.4520 -0.1466  0.1876
  128OSM    H4F13766   4.364   1.948   7.059  0.2787  0.4761  2.5548
  128OSM    H4G13767   4.530   1.938   7.097 -3.4963  2.4346  2.4362
  128OSM    C5F13768   4.408   1.756   7.134  0.2047 -0.8569 -0.3229
  128OSM    H5F13769   4.493   1.685   7.131  1.1431  0.2357 -0.5532
  128OSM    H5G13770   4.311   1.710   7.106 -1.1632  1.1938  0.7601
  128OSM    C6F13771   4.396   1.802   7.279  0.4115  0.8839 -0.0736
  128OSM    H6F13772   4.314   1.878   7.287 -1.0219 -0.7207  1.3069
  128OSM    H6G13773   4.487   1.842   7.329 -0.4186 -2.4040  4.7841
  128OSM    C7F13774   4.356   1.687   7.381  0.2895 -0.5167  0.0837
  128OSM    H7F13775   4.431   1.608   7.362  3.7974  2.7579 -0.8472
  128OSM    H7G13776   4.257   1.650   7.346  0.6508 -3.0314  1.4914
  128OSM    C8F13777   4.338   1.741   7.528 -0.6993  0.3871 -0.1294
  128OSM    H8F13778   4.283   1.668   7.591 -0.0874  0.8393  0.9512
  128OSM    H8G13779   4.262   1.822   7.524 -1.3974 -0.2914 -1.3756
  128OSM    C9F13780   4.472   1.779   7.599 -0.0266  0.5196 -0.0739
  128OSM    H9F13781   4.542   1.821   7.525 -1.3205  1.5033 -0.7831
  128OSM   C10F13782   4.495   1.787   7.728  0.2970 -0.2532 -0.4514
  128OSM   H10F13783   4.596   1.814   7.764 -0.6440 -0.8471  2.9968
  128OSM   C11F13784   4.401   1.751   7.837 -0.4303 -0.0775  0.3263
  128OSM   H11F13785   4.441   1.654   7.872 -0.4971 -0.1999  0.0577
  128OSM   H11G13786   4.297   1.729   7.806 -0.4841 -0.0896  0.5149
  128OSM   C12F13787   4.401   1.850   7.966  0.4457  0.0729 -0.6371
  128OSM   H12F13788   4.368   1.950   7.933 -0.5373 -0.4045 -1.1369
  128OSM   H12G13789   4.509   1.855   7.992  0.3589 -0.8600 -0.0422
  128OSM   C13F13790   4.312   1.796   8.082 -0.9244  0.6011  0.4856
  128OSM   H13F13791   4.345   1.691   8.100  2.4448  1.7778  1.9261
  128OSM   H13G13792   4.205   1.792   8.053 -0.6893  2.4282 -0.8606
  128OSM   C14F13793   4.319   1.869   8.214 -0.7242 -0.5039 -0.4897
  128OSM   H14F13794   4.253   1.816   8.286 -1.0222 -1.0474 -1.1525
  128OSM   H14G13795   4.291   1.976   8.200  1.1005 -0.1135 -1.5306
  128OSM   C15F13796   4.458   1.874   8.281  0.8921 -0.5911  0.4974
  128OSM   H15F13797   4.436   1.920   8.380  0.0664 -0.2882  0.1826
  128OSM   H15G13798   4.508   1.956   8.225 -1.1122  0.1198 -0.3535
  128OSM   C16F13799   4.521   1.735   8.295  0.4007  0.0723 -0.1778
  128OSM   H16F13800   4.624   1.745   8.335  0.7511  0.5434 -1.1800
  128OSM   H16G13801   4.525   1.680   8.199  2.4450 -1.2593  0.5914
  128OSM   C17F13802   4.439   1.659   8.399 -0.1283  0.8192  0.6774
  128OSM   H17F13803   4.330   1.664   8.375 -0.2679  0.4826  1.2371
  128OSM   H17G13804   4.446   1.704   8.500 -2.1719  2.0755  0.3252
  128OSM   C18F13805   4.484   1.517   8.402  0.2117  0.4420 -0.1681
  128OSM   H18F13806   4.425   1.464   8.325 -0.1303 -2.0181  1.6525
  128OSM   H18G13807   4.449   1.466   8.494 -0.8211 -0.3004 -0.9504
  128OSM   H18H13808   4.593   1.499   8.395 -0.3189 -3.1390 -1.5084
  129OSM      N13809   2.123   6.610   6.201 -0.0499 -0.0796 -0.1317
  129OSM    C1513810   2.210   6.735   6.211 -0.1567  0.6098 -0.5180
  129OSM   H15A13811   2.185   6.803   6.131 -1.1383  0.9807  0.0863
  129OSM   H15B13812   2.314   6.709   6.197  0.1258  0.8442  0.9397
  129OSM   H15C13813   2.194   6.785   6.306  0.6824 -0.5846  0.2779
  129OSM    C1413814   1.986   6.664   6.206  0.6723 -0.0303  0.4846
  129OSM   H14A13815   1.979   6.757   6.151  1.7648  0.7212  1.5738
  129OSM   H14B13816   1.956   6.701   6.303 -2.8959 -0.8316 -0.1677
  129OSM   H14C13817   1.923   6.581   6.176  0.2048  0.8211 -0.9971
  129OSM    C1313818   2.151   6.549   6.068 -0.2015  0.7188  0.5513
  129OSM   H13A13819   2.256   6.535   6.044 -0.4701 -0.8821  0.2005
  129OSM   H13B13820   2.121   6.610   5.985 -2.3853  1.0674  1.5503
  129OSM   H13C13821   2.106   6.451   6.060  4.2571 -1.4801 -1.3552
  129OSM    C1213822   2.152   6.516   6.310 -0.5455  0.5985 -0.1029
  129OSM   H12A13823   2.126   6.567   6.402 -0.3598 -0.1467  0.3682
  129OSM   H12B13824   2.257   6.493   6.319 -0.6225  0.4959  0.5605
  129OSM    C1113825   2.078   6.378   6.301 -0.1181  0.1786  0.1929
  129OSM   H11A13826   1.974   6.388   6.263 -0.0191 -1.2844 -0.5235
  129OSM   H11B13827   2.073   6.352   6.409 -0.6303  0.7291  0.3097
  129OSM      P13828   2.287   6.237   6.269 -0.0446 -0.0449 -0.0402
  129OSM    O1313829   2.307   6.096   6.232 -0.1792  0.0268 -0.1971
  129OSM    O1413830   2.374   6.339   6.220 -0.2955 -0.2114 -0.3047
  129OSM    O1113831   2.278   6.246   6.433 -0.3516 -0.0787 -0.4109
  129OSM    O1213832   2.141   6.282   6.224  0.0842  0.1336 -0.4488
  129OSM    C1S13833   2.208   6.132   6.493 -0.3651  0.0929  0.0950
  129OSM    H1S13834   2.244   6.039   6.445 -0.6052  0.5279 -0.9448
  129OSM    H1T13835   2.097   6.140   6.493 -0.4472 -0.8777 -0.6995
  129OSM     NF13836   2.189   6.025   6.718  0.3506 -0.1177  0.6527
  129OSM    HNF13837   2.110   6.047   6.774  1.3420  1.9191  1.3758
  129OSM    C2S13838   2.247   6.135   6.642 -0.2797 -0.7656 -0.3423
  129OSM    H2S13839   2.357   6.125   6.636 -0.2946 -1.0216 -0.2330
  129OSM    C3S13840   2.204   6.279   6.711  0.0421  0.1595  0.0502
  129OSM    H3S13841   2.096   6.267   6.736 -0.0332 -0.4342 -0.5637
  129OSM     O313842   2.220   6.393   6.630 -0.8697 -0.0336 -0.0421
  129OSM    HO313843   2.240   6.353   6.545 -0.6460 -3.0939  1.3378
  129OSM    C4S13844   2.290   6.299   6.835  0.2812 -0.2219 -0.6295
  129OSM    H4S13845   2.397   6.300   6.812  0.4503 -0.8683  0.0882
  129OSM    C5S13846   2.234   6.320   6.959 -0.8471  0.1421  0.1704
  129OSM    H5S13847   2.126   6.337   6.973 -0.5314  1.2048  1.5779
  129OSM    C6S13848   2.306   6.341   7.087  0.0999  0.5231  0.6733
  129OSM    H6S13849   2.415   6.324   7.075  0.3367  0.7400  2.3067
  129OSM    H6T13850   2.278   6.276   7.171  0.6027  0.7276  1.0069
  129OSM    C7S13851   2.292   6.478   7.148  0.4418  0.6782  0.2831
  129OSM    H7S13852   2.186   6.501   7.174  0.1701 -1.1823  0.9464
  129OSM    H7T13853   2.332   6.547   7.070 -0.6991  0.7914 -0.2280
  129OSM    C8S13854   2.363   6.494   7.281  0.1231 -0.2177 -1.1212
  129OSM    H8S13855   2.473   6.484   7.268  0.1149 -0.5662 -0.9539
  129OSM    H8T13856   2.332   6.412   7.350  0.2693  0.8550  0.2747
  129OSM    C9S13857   2.333   6.626   7.340 -0.4649  0.6398  0.0443
  129OSM    H9S13858   2.227   6.658   7.334 -0.5140  0.7426  1.2506
  129OSM    H9T13859   2.383   6.712   7.291 -0.8658  1.5849  1.2277
  129OSM   C10S13860   2.377   6.642   7.490 -0.3237  0.2991  1.1544
  129OSM   H10S13861   2.307   6.582   7.552 -0.8603 -0.6898 -0.3475
  129OSM   H10T13862   2.368   6.751   7.511 -0.4589  0.9000 -1.6549
  129OSM   C11S13863   2.529   6.609   7.505 -0.3827 -0.3865 -0.5633
  129OSM   H11S13864   2.591   6.669   7.435 -0.5079 -0.5869 -0.8505
  129OSM   H11T13865   2.540   6.500   7.486 -0.5265 -0.6493  0.7500
  129OSM   C12S13866   2.572   6.647   7.655  0.0899  0.4453  0.8741
  129OSM   H12S13867   2.485   6.622   7.720  0.0168  0.8990  0.9513
  129OSM   H12T13868   2.603   6.754   7.659  2.6591 -0.1143 -1.4976
  129OSM   C13S13869   2.684   6.548   7.691  0.1200  0.3049  0.5490
  129OSM   H13S13870   2.752   6.535   7.604  0.1613 -3.2944  0.9408
  129OSM   H13T13871   2.639   6.446   7.695  2.3744 -0.7488  0.8473
  129OSM   C14S13872   2.760   6.578   7.810 -0.0453  0.2363  0.8457
  129OSM   H14S13873   2.805   6.679   7.798  0.6750 -0.2137 -0.4189
  129OSM   H14T13874   2.846   6.508   7.806 -1.0930 -1.1395  1.6495
  129OSM   C15S13875   2.685   6.569   7.943  0.2727 -0.1475  0.6194
  129OSM   H15S13876   2.611   6.486   7.954 -2.3113  2.1637  2.1422
  129OSM   H15T13877   2.631   6.665   7.958  0.7513 -0.1198  2.4292
  129OSM   C16S13878   2.794   6.574   8.055  0.7619  0.2905 -0.1072
  129OSM   H16S13879   2.843   6.674   8.056 -0.8438  1.1519 -1.9195
  129OSM   H16T13880   2.860   6.488   8.033  3.3611  1.6848  1.6331
  129OSM   C17S13881   2.744   6.547   8.195  0.0574 -0.0131 -0.4769
  129OSM   H17S13882   2.684   6.454   8.200  0.3712 -0.2238 -0.5557
  129OSM   H17T13883   2.674   6.621   8.239 -1.1160 -1.0572 -0.5533
  129OSM   C18S13884   2.862   6.542   8.297 -0.0508 -0.0536 -0.3963
  129OSM   H18S13885   2.822   6.534   8.400  2.2011 -1.3323  0.4483
  129OSM   H18T13886   2.920   6.635   8.281 -0.0125 -0.0113 -0.0184
  129OSM   H18U13887   2.908   6.443   8.278 -1.6052 -1.2803  1.7537
  129OSM    C1F13888   2.222   5.898   6.694 -0.8799 -0.0350 -0.4789
  129OSM     OF13889   2.316   5.868   6.617  0.3528  0.2595  0.1951
  129OSM    C2F13890   2.145   5.797   6.769 -0.3637  0.2265  0.1583
  129OSM    H2F13891   2.120   5.705   6.712  0.9871 -0.2985  0.3872
  129OSM    H2G13892   2.052   5.847   6.804 -1.3684 -1.3715 -0.1321
  129OSM    C3F13893   2.212   5.736   6.900 -0.1011 -0.4186 -0.0250
  129OSM    H3F13894   2.215   5.820   6.972  1.6440 -1.4554  1.1909
  129OSM    H3G13895   2.314   5.702   6.874 -0.6302 -2.6257  0.6072
  129OSM    C4F13896   2.133   5.625   6.955  0.1717 -0.5331 -0.1497
  129OSM    H4F13897   2.124   5.536   6.888 -0.1591  0.5032 -1.5364
  129OSM    H4G13898   2.028   5.656   6.976 -0.7615 -3.0269 -0.6565
  129OSM    C5F13899   2.190   5.587   7.089  0.1469 -0.4461 -0.3164
  129OSM    H5F13900   2.166   5.670   7.159 -1.4444 -0.1318 -1.1853
  129OSM    H5G13901   2.301   5.582   7.095  0.3005  2.4707  2.6140
  129OSM    C6F13902   2.129   5.463   7.152 -0.3635  0.0815  0.4177
  129OSM    H6F13903   2.128   5.382   7.076 -1.2166  0.8156 -0.3753
  129OSM    H6G13904   2.020   5.477   7.170 -0.3049 -0.7022  1.5040
  129OSM    C7F13905   2.200   5.412   7.279  0.1100  0.2044  0.1599
  129OSM    H7F13906   2.309   5.427   7.274 -0.0610  1.7482  0.5193
  129OSM    H7G13907   2.176   5.306   7.306 -1.0157  0.7154  1.2992
  129OSM    C8F13908   2.157   5.482   7.404 -0.2018 -0.3113 -0.6426
  129OSM    H8F13909   2.180   5.590   7.391 -0.6939 -0.1392 -0.1197
  129OSM    H8G13910   2.216   5.440   7.488  0.3031 -1.2835 -1.4577
  129OSM    C9F13911   2.012   5.465   7.428 -0.2509  0.3360  0.0313
  129OSM    H9F13912   1.949   5.436   7.343  0.0041 -3.4179  0.9777
  129OSM   C10F13913   1.961   5.479   7.552  0.7740  1.1056  0.2368
  129OSM   H10F13914   1.856   5.451   7.562  0.9345 -0.4834 -1.9987
  129OSM   C11F13915   2.033   5.511   7.687 -0.4623 -0.2104  0.4804
  129OSM   H11F13916   1.989   5.604   7.729  0.3126  0.8119 -0.9000
  129OSM   H11G13917   2.136   5.548   7.668 -0.8978 -0.1549 -2.1026
  129OSM   C12F13918   2.044   5.401   7.792  0.1058 -0.5116 -0.1223
  129OSM   H12F13919   2.102   5.320   7.742  1.8545  0.4317  0.2737
  129OSM   H12G13920   1.948   5.350   7.813  0.2076 -1.1779 -1.2242
  129OSM   C13F13921   2.103   5.447   7.926 -0.2196 -0.4047  0.3132
  129OSM   H13F13922   2.049   5.541   7.952  0.7390  0.3422 -0.2978
  129OSM   H13G13923   2.213   5.453   7.911  0.0228 -1.4379  1.5506
  129OSM   C14F13924   2.080   5.344   8.042  0.6088 -0.6811 -0.2876
  129OSM   H14F13925   2.147   5.258   8.017  0.7136 -0.3041 -1.3750
  129OSM   H14G13926   1.978   5.303   8.052  0.3189  0.0974 -0.0373
  129OSM   C15F13927   2.109   5.419   8.181  0.2829 -0.5753 -0.1308
  129OSM   H15F13928   2.057   5.516   8.166  0.1163 -0.7777 -0.8856
  129OSM   H15G13929   2.216   5.442   8.198  0.2087  0.8273 -1.3869
  129OSM   C16F13930   2.048   5.352   8.298  0.2857  0.3055  0.3291
  129OSM   H16F13931   1.955   5.296   8.273  0.3026 -1.4506  3.6155
  129OSM   H16G13932   2.019   5.426   8.376 -2.1011  0.7447 -0.8752
  129OSM   C17F13933   2.134   5.240   8.354  0.1497 -0.2092 -0.3164
  129OSM   H17F13934   2.236   5.275   8.379 -0.3934 -0.0791  1.9187
  129OSM   H17G13935   2.150   5.161   8.276 -1.3027  0.4987 -1.3949
  129OSM   C18F13936   2.076   5.176   8.484  0.5251  0.0704  0.3873
  129OSM   H18F13937   1.977   5.130   8.468  1.1427 -1.9674  1.9550
  129OSM   H18G13938   2.068   5.257   8.560  0.7594  0.1398  0.3402
  129OSM   H18H13939   2.149   5.107   8.532  1.6225  1.2699  0.5088
  130OSM      N13940   0.314   1.755   6.227  0.6451 -0.6553  0.0940
  130OSM    C1513941   0.403   1.768   6.351  0.4360 -0.0011  0.1337
  130OSM   H15A13942   0.399   1.672   6.401 -4.2660 -0.4968 -0.7205
  130OSM   H15B13943   0.370   1.844   6.420  1.0625  1.3671 -1.0225
  130OSM   H15C13944   0.503   1.779   6.313 -1.1331  0.5938 -4.4326
  130OSM    C1413945   0.359   1.860   6.135 -0.2990  0.3668  0.6308
  130OSM   H14A13946   0.368   1.953   6.189  0.6801  1.2890 -1.0406
  130OSM   H14B13947   0.287   1.869   6.055  0.8784 -0.5028 -0.5618
  130OSM   H14C13948   0.455   1.850   6.086 -0.8722 -0.8599 -0.3003
  130OSM    C1313949   0.352   1.624   6.165 -0.6050 -0.1816  0.4014
  130OSM   H13A13950   0.330   1.542   6.231  1.1752  1.4777  3.2544
  130OSM   H13B13951   0.459   1.624   6.148 -0.5390  2.0644  0.4257
  130OSM   H13C13952   0.312   1.612   6.065  3.0026 -0.4820 -1.1504
  130OSM    C1213953   0.166   1.749   6.249  0.3285  0.5118  0.5922
  130OSM   H12A13954   0.136   1.836   6.306 -0.6091  0.2901  0.4620
  130OSM   H12B13955   0.157   1.663   6.314  0.4116  0.0263 -0.0269
  130OSM    C1113956   0.064   1.729   6.132 -0.3799 -0.4523  0.1895
  130OSM   H11A13957   0.081   1.819   6.069  0.9005 -1.5059 -1.0343
  130OSM   H11B13958  -0.037   1.722   6.177 -0.4214 -1.3559 -0.0194
  130OSM      P13959   0.063   1.470   6.090 -0.2175 -0.0526  0.0347
  130OSM    O1313960  -0.054   1.416   6.013 -0.3645 -0.7992  0.1220
  130OSM    O1413961   0.192   1.392   6.087 -0.1014  0.3497  0.1471
  130OSM    O1113962   0.015   1.495   6.240  0.0334  0.1890 -0.3032
  130OSM    O1213963   0.093   1.616   6.049 -0.6394  0.4643  0.3438
  130OSM    C1S13964   0.056   1.422   6.359 -0.5145  0.2806 -0.8866
  130OSM    H1S13965   0.166   1.430   6.371 -0.6476  0.5243  0.2643
  130OSM    H1T13966   0.022   1.317   6.351  0.8182 -0.1299 -1.3491
  130OSM     NF13967   0.068   1.437   6.607 -0.6411 -0.0752  0.0317
  130OSM    HNF13968   0.025   1.366   6.661  0.2909 -1.7880 -1.3951
  130OSM    C2S13969  -0.004   1.489   6.493 -0.5524  0.6895 -0.2120
  130OSM    H2S13970   0.011   1.599   6.489 -2.0224  0.9507  0.6605
  130OSM    C3S13971  -0.157   1.460   6.492 -0.5112  1.1299 -0.3952
  130OSM    H3S13972  -0.177   1.351   6.485  0.8038  0.8361  0.0874
  130OSM     O313973  -0.218   1.530   6.379  0.0190  0.0931  0.0000
  130OSM    HO313974  -0.142   1.545   6.322  0.1328 -1.0917 -0.1947
  130OSM    C4S13975  -0.227   1.526   6.610 -0.2233  1.3375 -0.5062
  130OSM    H4S13976  -0.227   1.636   6.614 -0.4601  1.3122  0.7637
  130OSM    C5S13977  -0.294   1.454   6.704  0.0403  0.8618  0.1439
  130OSM    H5S13978  -0.306   1.346   6.687  0.3545  1.0100 -1.1397
  130OSM    C6S13979  -0.373   1.504   6.826 -0.0127  0.2193  0.1557
  130OSM    H6S13980  -0.479   1.473   6.818 -0.1490  0.4892  0.8926
  130OSM    H6T13981  -0.358   1.614   6.830  1.6478  0.0703 -0.7134
  130OSM    C7S13982  -0.317   1.438   6.961 -0.7924 -0.7768  0.7540
  130OSM    H7S13983  -0.207   1.453   6.959 -0.7338 -0.9904  1.8909
  130OSM    H7T13984  -0.333   1.328   6.952  0.0575 -0.7618 -1.6552
  130OSM    C8S13985  -0.369   1.498   7.086 -0.3352  0.5654 -0.1558
  130OSM    H8S13986  -0.479   1.511   7.078 -0.3521  0.2011 -0.4967
  130OSM    H8T13987  -0.322   1.599   7.090 -0.1598  0.5852 -2.0351
  130OSM    C9S13988  -0.317   1.422   7.211 -0.1057 -0.6351 -0.0028
  130OSM    H9S13989  -0.211   1.398   7.190 -0.4657 -0.9964 -1.4902
  130OSM    H9T13990  -0.374   1.328   7.222 -0.8373 -0.4307 -1.7317
  130OSM   C10S13991  -0.344   1.489   7.343  0.6691 -0.4300 -0.0285
  130OSM   H10S13992  -0.454   1.504   7.353  0.8137  1.1966 -0.6541
  130OSM   H10T13993  -0.296   1.589   7.350 -1.9058  0.9573 -0.8954
  130OSM   C11S13994  -0.295   1.402   7.463 -0.0912 -0.1804  0.1606
  130OSM   H11S13995  -0.185   1.401   7.476 -0.2751 -0.8209  2.0218
  130OSM   H11T13996  -0.323   1.298   7.433 -0.0354  0.3161 -1.7302
  130OSM   C12S13997  -0.371   1.432   7.600  0.4592  0.5512 -0.5710
  130OSM   H12S13998  -0.479   1.416   7.582  0.7142 -0.9084 -0.9380
  130OSM   H12T13999  -0.354   1.540   7.619 -2.9729  1.0417  0.2889
  130OSM   C13S14000  -0.312   1.355   7.719  0.9308 -0.1475 -0.2402
  130OSM   H13S14001  -0.201   1.359   7.711  0.9459  2.0916  0.2387
  130OSM   H13T14002  -0.339   1.248   7.722 -1.3830  0.3878  3.2302
  130OSM   C14S14003  -0.356   1.418   7.852  0.1208  0.5818  0.0682
  130OSM   H14S14004  -0.464   1.401   7.867  0.3011 -0.5172  0.2429
  130OSM   H14T14005  -0.334   1.526   7.839 -1.0550  0.6491 -1.7254
  130OSM   C15S14006  -0.289   1.339   7.966 -0.1013 -0.7659  0.1193
  130OSM   H15S14007  -0.180   1.347   7.951 -0.3089 -0.1582 -1.1758
  130OSM   H15T14008  -0.316   1.231   7.962 -1.3463 -0.4356 -1.8427
  130OSM   C16S14009  -0.319   1.393   8.111 -0.4496  0.1683 -0.4450
  130OSM   H16S14010  -0.427   1.376   8.129 -0.3536 -0.5270 -0.4861
  130OSM   H16T14011  -0.294   1.501   8.110 -0.3711  0.1795  0.7108
  130OSM   C17S14012  -0.225   1.327   8.214 -0.6009 -0.8103  0.3449
  130OSM   H17S14013  -0.120   1.320   8.177 -0.8705 -0.8837 -0.4324
  130OSM   H17T14014  -0.265   1.226   8.237 -0.3060 -1.1589 -0.6193
  130OSM   C18S14015  -0.222   1.392   8.348  0.6695 -0.1588 -0.6620
  130OSM   H18S14016  -0.322   1.374   8.392  0.0668 -1.9909 -2.6089
  130OSM   H18T14017  -0.211   1.503   8.345  1.0331 -0.1624  0.4199
  130OSM   H18U14018  -0.154   1.346   8.423  0.6766 -0.5166 -0.8858
  130OSM    C1F14019   0.187   1.483   6.660 -0.3030 -0.7534 -0.0749
  130OSM     OF14020   0.249   1.572   6.611 -0.6785 -0.9627 -0.0186
  130OSM    C2F14021   0.231   1.407   6.788  0.2084 -0.9383  0.7390
  130OSM    H2F14022   0.337   1.374   6.782 -0.3290 -2.3838 -3.4745
  130OSM    H2G14023   0.175   1.311   6.793  0.7481 -1.2521  0.8361
  130OSM    C3F14024   0.201   1.492   6.913 -0.3482  0.1580  0.5418
  130OSM    H3F14025   0.092   1.515   6.909 -0.1654  1.7369  2.8794
  130OSM    H3G14026   0.261   1.585   6.904  1.6498 -1.1823 -0.9627
  130OSM    C4F14027   0.230   1.404   7.035 -0.4872  1.0126 -0.3163
  130OSM    H4F14028   0.341   1.395   7.032 -0.6019 -0.1348 -1.4999
  130OSM    H4G14029   0.196   1.300   7.017 -1.7088  1.2177  0.6457
  130OSM    C5F14030   0.165   1.458   7.166 -0.0205 -0.7957  0.3298
  130OSM    H5F14031   0.057   1.469   7.141  0.2009 -1.7660 -1.1655
  130OSM    H5G14032   0.213   1.557   7.182 -1.7299  0.0490  0.4555
  130OSM    C6F14033   0.189   1.366   7.288 -0.0453 -0.1874 -0.2706
  130OSM    H6F14034   0.300   1.369   7.283  0.0118  4.3054 -0.5041
  130OSM    H6G14035   0.144   1.265   7.283 -1.1141  0.3258 -1.6877
  130OSM    C7F14036   0.142   1.438   7.417 -0.2825  0.0632  0.0733
  130OSM    H7F14037   0.033   1.456   7.404 -0.0728  0.5532 -1.1067
  130OSM    H7G14038   0.188   1.539   7.411  0.4502 -0.3484 -3.8591
  130OSM    C8F14039   0.182   1.353   7.547 -0.0366 -0.6306  0.4553
  130OSM    H8F14040   0.292   1.354   7.565 -0.0847  2.6602  1.0290
  130OSM    H8G14041   0.145   1.251   7.520  1.3607 -0.8844 -0.6157
  130OSM    C9F14042   0.104   1.413   7.664 -0.5199  0.0414 -0.6811
  130OSM    H9F14043   0.016   1.469   7.631 -0.3017  0.0950 -1.1825
  130OSM   C10F14044   0.134   1.404   7.794  0.2505 -0.0793 -0.3107
  130OSM   H10F14045   0.063   1.458   7.859 -0.8993  1.4699 -2.7031
  130OSM   C11F14046   0.249   1.312   7.842  0.7605 -0.1587  0.4887
  130OSM   H11F14047   0.330   1.363   7.900  0.9173 -1.4164  1.4222
  130OSM   H11G14048   0.298   1.243   7.769 -1.3745  0.4591 -1.6440
  130OSM   C12F14049   0.183   1.220   7.952 -0.1920 -0.2719 -0.6210
  130OSM   H12F14050   0.108   1.148   7.912  0.2634 -1.8031  1.1115
  130OSM   H12G14051   0.122   1.280   8.023 -0.6263 -0.2422 -1.0178
  130OSM   C13F14052   0.288   1.135   8.023  0.2835 -1.1299  0.3744
  130OSM   H13F14053   0.358   1.209   8.068 -0.9791  1.2773 -1.3496
  130OSM   H13G14054   0.343   1.085   7.940 -0.6858 -2.1675  0.3363
  130OSM   C14F14055   0.241   1.022   8.122  0.0723  0.2379 -0.4108
  130OSM   H14F14056   0.188   0.949   8.057  0.9899  1.2199 -2.3416
  130OSM   H14G14057   0.180   1.066   8.203 -0.6860 -2.4022  0.5652
  130OSM   C15F14058   0.355   0.939   8.177 -0.0176  0.3726  1.1884
  130OSM   H15F14059   0.422   0.914   8.091  1.3886  1.2437  1.9995
  130OSM   H15G14060   0.307   0.844   8.211  0.7639 -0.3823  0.2738
  130OSM   C16F14061   0.416   1.017   8.289 -0.1634 -0.1692 -0.4790
  130OSM   H16F14062   0.331   1.053   8.351 -0.2128  2.1525 -1.7960
  130OSM   H16G14063   0.464   1.113   8.260 -0.3377  0.5325  1.4005
  130OSM   C17F14064   0.523   0.943   8.379  0.5596  0.0545 -0.0908
  130OSM   H17F14065   0.561   1.019   8.450  0.8081  1.1810 -1.3950
  130OSM   H17G14066   0.616   0.919   8.323  0.8464 -0.6187  0.6503
  130OSM   C18F14067   0.474   0.818   8.452 -0.4224  0.3501 -0.4060
  130OSM   H18F14068   0.409   0.844   8.538  0.6362 -1.7308  1.1181
  130OSM   H18G14069   0.552   0.744   8.482 -1.5919 -0.4690  0.7680
  130OSM   H18H14070   0.407   0.760   8.384 -0.4768 -2.7065  2.0178
  131OSM      N14071   4.896   5.453   5.824  0.3733 -0.0292 -0.1247
  131OSM    C1514072   5.031   5.461   5.888 -0.4359 -0.0475  0.6589
  131OSM   H15A14073   5.101   5.474   5.807 -0.2695 -0.5427  0.7196
  131OSM   H15B14074   5.044   5.368   5.942 -1.5231 -0.3266  0.4751
  131OSM   H15C14075   5.026   5.540   5.961 -1.0385  0.1255  0.4415
  131OSM    C1414076   4.888   5.565   5.726 -0.3228  0.3228 -0.3853
  131OSM   H14A14077   4.897   5.662   5.774  1.6543 -0.1574  0.2971
  131OSM   H14B14078   4.797   5.561   5.668  0.3268  0.0883 -1.4099
  131OSM   H14C14079   4.961   5.552   5.648 -0.6730  0.9383 -0.8186
  131OSM    C1314080   4.895   5.323   5.742 -0.0010 -0.1629 -0.5460
  131OSM   H13A14081   4.910   5.243   5.813  3.1848  0.0558 -0.8293
  131OSM   H13B14082   4.977   5.335   5.672  0.3009  1.7289  0.0617
  131OSM   H13C14083   4.800   5.324   5.690 -0.0162  1.2488 -0.5500
  131OSM    C1214084   4.786   5.448   5.926 -0.3471 -0.4788  0.3249
  131OSM   H12A14085   4.797   5.359   5.987 -1.2801 -0.2020  0.9054
  131OSM   H12B14086   4.687   5.441   5.883 -1.6736  1.1161  2.8764
  131OSM    C1114087   4.781   5.570   6.023  0.1925 -1.0033 -0.0849
  131OSM   H11A14088   4.679   5.565   6.067  0.7984 -2.4245  1.2192
  131OSM   H11B14089   4.778   5.668   5.971  1.2412 -1.3164 -0.7744
  131OSM      P14090   4.896   5.475   6.241  0.3450 -0.1664  0.1385
  131OSM    O1314091   4.882   5.338   6.186 -0.4293  0.1770 -0.3378
  131OSM    O1414092   5.023   5.505   6.316  0.1479 -0.5689 -0.6199
  131OSM    O1114093   4.782   5.512   6.342 -0.0083  0.0812  0.5529
  131OSM    O1214094   4.883   5.567   6.122 -0.3909  0.0909  0.3659
  131OSM    C1S14095   4.718   5.405   6.415  0.3040  0.0832 -0.0277
  131OSM    H1S14096   4.794   5.335   6.455  0.7662  0.4453 -0.2671
  131OSM    H1T14097   4.658   5.345   6.342  0.8983  0.7239 -1.0769
  131OSM     NF14098   4.582   5.324   6.599  0.1504  0.6425 -0.0475
  131OSM    HNF14099   4.498   5.280   6.567 -0.2266  1.9433 -0.9318
  131OSM    C2S14100   4.624   5.449   6.534 -0.5785 -0.9134  0.3573
  131OSM    H2S14101   4.687   5.505   6.608 -0.4507 -1.6911  0.8487
  131OSM    C3S14102   4.510   5.544   6.479  0.1947 -0.0457 -0.9415
  131OSM    H3S14103   4.428   5.489   6.429 -0.6668  0.3424 -0.0075
  131OSM     O314104   4.548   5.640   6.381 -0.2558 -0.2510  0.0260
  131OSM    HO314105   4.642   5.626   6.369 -0.1352  1.1091 -0.9442
  131OSM    C4S14106   4.447   5.608   6.602 -0.3478 -0.4077  0.8525
  131OSM    H4S14107   4.518   5.680   6.644  0.0927  0.8875 -1.9024
  131OSM    C5S14108   4.321   5.597   6.650 -0.5182  0.8096  0.5291
  131OSM    H5S14109   4.241   5.538   6.602 -1.1831  2.2005 -0.1390
  131OSM    C6S14110   4.272   5.665   6.772 -0.2779 -0.4905 -0.6333
  131OSM    H6S14111   4.170   5.709   6.761 -0.0339 -0.0976 -1.3147
  131OSM    H6T14112   4.339   5.745   6.808 -1.0882  0.5271 -1.3404
  131OSM    C7S14113   4.258   5.550   6.876  0.4442 -0.6101 -0.4293
  131OSM    H7S14114   4.178   5.485   6.836  1.2710 -0.8589 -1.7375
  131OSM    H7T14115   4.207   5.581   6.970 -0.8005  0.1067 -1.3297
  131OSM    C8S14116   4.394   5.481   6.907 -0.0610  0.4477  0.6288
  131OSM    H8S14117   4.473   5.558   6.917 -0.2476  1.0635 -2.0724
  131OSM    H8T14118   4.423   5.421   6.819  0.8918  1.8999 -0.0819
  131OSM    C9S14119   4.384   5.407   7.039  1.1995  0.0386 -0.3986
  131OSM    H9S14120   4.457   5.324   7.049  0.5491 -0.3744  1.1538
  131OSM    H9T14121   4.284   5.358   7.041  1.0022  0.4672  0.8019
  131OSM   C10S14122   4.382   5.499   7.161 -0.0509  0.3198  0.3583
  131OSM   H10S14123   4.277   5.508   7.194 -1.2605 -1.1469 -2.7477
  131OSM   H10T14124   4.425   5.597   7.130 -0.2786  0.1313 -0.5708
  131OSM   C11S14125   4.465   5.442   7.282 -0.6519  0.0305  0.1069
  131OSM   H11S14126   4.567   5.483   7.266 -1.1829  0.6201 -2.0861
  131OSM   H11T14127   4.459   5.331   7.272 -1.0224  0.1586 -1.1586
  131OSM   C12S14128   4.413   5.488   7.420  0.0878 -0.1620 -0.4699
  131OSM   H12S14129   4.302   5.492   7.420  0.1177  0.8915 -0.1385
  131OSM   H12T14130   4.439   5.595   7.435 -0.8966  0.1507 -0.9297
  131OSM   C13S14131   4.461   5.412   7.539  0.8473 -0.6479 -0.2393
  131OSM   H13S14132   4.570   5.390   7.543  0.6331 -1.6152  1.3780
  131OSM   H13T14133   4.412   5.313   7.549  1.1338 -0.7577  0.1032
  131OSM   C14S14134   4.438   5.502   7.672  0.7395  0.0769  0.5059
  131OSM   H14S14135   4.329   5.521   7.681  0.9023  1.0848  0.4154
  131OSM   H14T14136   4.486   5.600   7.657  0.5489  0.4181  1.9698
  131OSM   C15S14137   4.486   5.433   7.803  0.0981  0.1199  0.3483
  131OSM   H15S14138   4.596   5.420   7.792  0.3956  1.8201  1.0216
  131OSM   H15T14139   4.431   5.337   7.812 -0.1502  0.0005 -1.8226
  131OSM   C16S14140   4.464   5.517   7.931  0.5912 -0.4148  0.1730
  131OSM   H16S14141   4.355   5.537   7.934  0.9565  1.7466  1.6378
  131OSM   H16T14142   4.517   5.615   7.925 -0.8054  0.3721  0.3172
  131OSM   C17S14143   4.499   5.453   8.067  0.0044 -0.3670  0.0175
  131OSM   H17S14144   4.454   5.352   8.077 -0.7464  0.0535  1.1409
  131OSM   H17T14145   4.451   5.525   8.137 -0.0617  1.9131 -2.2550
  131OSM   C18S14146   4.648   5.444   8.090 -0.2488 -0.2433  0.9643
  131OSM   H18S14147   4.669   5.422   8.196 -0.3237  2.3239  1.5855
  131OSM   H18T14148   4.693   5.541   8.060 -0.0645 -0.9068 -1.1019
  131OSM   H18U14149   4.695   5.362   8.032  0.9172 -0.0715  1.6546
  131OSM    C1F14150   4.666   5.255   6.679 -0.1036  0.8013 -0.1694
  131OSM     OF14151   4.774   5.304   6.719  0.7370  0.7897 -0.5491
  131OSM    C2F14152   4.626   5.113   6.708  0.0856 -0.2943  0.1281
  131OSM    H2F14153   4.717   5.049   6.698  1.3448  1.3014  0.9002
  131OSM    H2G14154   4.545   5.082   6.639 -0.3735 -2.1015  1.4172
  131OSM    C3F14155   4.571   5.114   6.859  0.0506  0.6779  0.0247
  131OSM    H3F14156   4.501   5.199   6.879 -0.6814  0.1959 -0.4361
  131OSM    H3G14157   4.656   5.127   6.929  2.6165  0.4308 -2.8749
  131OSM    C4F14158   4.511   4.971   6.891  0.4382 -0.1115 -0.7033
  131OSM    H4F14159   4.583   4.886   6.887  1.6660  0.8775 -0.2912
  131OSM    H4G14160   4.427   4.948   6.822 -0.0647  2.4072 -1.0459
  131OSM    C5F14161   4.454   4.975   7.034 -0.0413 -0.6999 -0.1987
  131OSM    H5F14162   4.384   4.890   7.048 -0.2636 -0.2128  1.9864
  131OSM    H5G14163   4.402   5.073   7.042 -0.7910 -1.0770 -0.3835
  131OSM    C6F14164   4.558   4.956   7.152 -0.3428  0.4572 -0.4970
  131OSM    H6F14165   4.620   5.048   7.147  1.0682 -0.4857 -1.1882
  131OSM    H6G14166   4.624   4.869   7.133  0.6780  1.0194  0.3284
  131OSM    C7F14167   4.487   4.952   7.286  0.9695  0.2829  0.2111
  131OSM    H7F14168   4.424   4.860   7.285 -0.3159  1.1453 -0.2713
  131OSM    H7G14169   4.423   5.043   7.281  0.0417 -0.3086  0.9218
  131OSM    C8F14170   4.579   4.969   7.421  0.3556 -0.0600 -0.6867
  131OSM    H8F14171   4.536   5.040   7.495 -0.5819  0.2843 -1.5380
  131OSM    H8G14172   4.672   5.014   7.384 -0.7316  2.2841 -0.7215
  131OSM    C9F14173   4.605   4.828   7.466  0.1554  0.2087  0.6004
  131OSM    H9F14174   4.652   4.769   7.386  0.2567  0.9417  0.1085
  131OSM   C10F14175   4.593   4.779   7.589  0.3182 -0.1292  0.2193
  131OSM   H10F14176   4.617   4.674   7.608  1.0864 -0.0862 -0.4261
  131OSM   C11F14177   4.534   4.851   7.710 -0.9287  0.5013  0.0244
  131OSM   H11F14178   4.517   4.774   7.789  1.3862 -1.6046 -1.3504
  131OSM   H11G14179   4.443   4.910   7.687 -0.1925  1.4184 -0.5810
  131OSM   C12F14180   4.630   4.949   7.777 -0.3977 -0.2889 -0.8387
  131OSM   H12F14181   4.637   5.035   7.707  0.5502 -1.1950 -1.9013
  131OSM   H12G14182   4.733   4.908   7.789  0.7188  3.0396  2.7419
  131OSM   C13F14183   4.596   4.987   7.926  1.1931 -0.1194 -0.3861
  131OSM   H13F14184   4.596   4.891   7.982  1.4358  0.3381  0.4060
  131OSM   H13G14185   4.492   5.026   7.930  1.3387  0.1849  0.9030
  131OSM   C14F14186   4.708   5.066   7.993 -0.4037  0.5817 -0.6938
  131OSM   H14F14187   4.662   5.100   8.088 -0.3329 -3.1220  0.8706
  131OSM   H14G14188   4.731   5.151   7.926 -0.3983  1.0134 -0.1444
  131OSM   C15F14189   4.833   4.979   8.022  0.0535 -0.1108  0.2070
  131OSM   H15F14190   4.876   4.947   7.925 -0.4202 -0.2256  0.0326
  131OSM   H15G14191   4.808   4.887   8.080  2.4657  0.0907  1.7044
  131OSM   C16F14192   4.955   5.041   8.107  0.5338 -0.1280 -0.0595
  131OSM   H16F14193   5.027   4.957   8.108 -0.5595 -1.1031  1.9702
  131OSM   H16G14194   4.925   5.061   8.212 -0.7806 -0.4215 -0.3652
  131OSM   C17F14195   5.016   5.176   8.059  0.4713  0.2778  0.4490
  131OSM   H17F14196   4.940   5.252   8.088  1.3645  0.4930  2.3875
  131OSM   H17G14197   5.012   5.174   7.948 -1.6699 -0.0901  0.4941
  131OSM   C18F14198   5.155   5.198   8.115  0.4719 -0.0744 -0.5423
  131OSM   H18F14199   5.167   5.192   8.226 -0.1041  0.2278 -0.4600
  131OSM   H18G14200   5.192   5.300   8.091 -1.0780  0.6788  0.1533
  131OSM   H18H14201   5.218   5.117   8.073 -1.2042 -1.2534 -0.8848
  132OSM      N14202   4.898   0.799   6.363 -0.5507 -0.1574  0.4408
  132OSM    C1514203   4.840   0.756   6.234 -0.2156 -0.7037  0.4029
  132OSM   H15A14204   4.906   0.742   6.150  0.7112  1.3090  0.7524
  132OSM   H15B14205   4.759   0.826   6.217 -0.4233 -0.7762  1.0823
  132OSM   H15C14206   4.788   0.665   6.261  1.6185 -1.5718  1.1462
  132OSM    C1414207   4.956   0.939   6.343 -0.2889 -0.3591 -0.1932
  132OSM   H14A14208   5.039   0.965   6.407 -2.5275 -1.6944  3.5511
  132OSM   H14B14209   4.876   1.011   6.352  0.9247  0.8769  1.3681
  132OSM   H14C14210   5.000   0.942   6.244 -2.7347 -0.1344 -1.3638
  132OSM    C1314211   4.793   0.805   6.469 -0.9015 -0.2692 -0.1583
  132OSM   H13A14212   4.844   0.839   6.558  1.8852  1.5106 -2.2655
  132OSM   H13B14213   4.756   0.704   6.482  0.4124 -0.8163 -0.4995
  132OSM   H13C14214   4.709   0.866   6.440  0.3553  1.2874 -0.6336
  132OSM    C1214215   5.008   0.700   6.409 -0.6674 -0.0213  0.1015
  132OSM   H12A14216   4.960   0.603   6.409  1.2061 -0.9864  0.4345
  132OSM   H12B14217   5.035   0.730   6.509 -1.1711  1.1709 -0.0992
  132OSM    C1114218   5.134   0.683   6.318  0.4314 -0.3711  0.9147
  132OSM   H11A14219   5.107   0.675   6.211 -0.8754  0.0526  1.1943
  132OSM   H11B14220   5.180   0.583   6.335 -0.4087 -1.0200 -0.5356
  132OSM      P14221   5.317   0.771   6.473 -0.1699  0.3123  0.4112
  132OSM    O1314222   5.390   0.648   6.478  0.5955  0.5761 -0.2053
  132OSM    O1414223   5.401   0.895   6.485  0.3109  0.6264 -0.3784
  132OSM    O1114224   5.202   0.776   6.591 -0.1898  0.2945  0.0026
  132OSM    O1214225   5.229   0.784   6.339  0.7898  0.2053  0.4878
  132OSM    C1S14226   5.191   0.687   6.700 -0.0893  0.9649  0.5034
  132OSM    H1S14227   5.292   0.648   6.725  0.5532  1.0125 -1.8145
  132OSM    H1T14228   5.125   0.606   6.664 -1.0766  0.3841  3.3216
  132OSM     NF14229   5.165   0.662   6.946 -0.3075  0.7012  0.1359
  132OSM    HNF14230   5.086   0.610   6.979 -1.5083  3.0990  1.3069
  132OSM    C2S14231   5.146   0.751   6.829 -0.2626  0.2079  0.6367
  132OSM    H2S14232   5.205   0.844   6.846 -0.2080  0.2892  0.0073
  132OSM    C3S14233   5.003   0.820   6.816  0.0516 -0.3806 -0.7060
  132OSM    H3S14234   4.931   0.736   6.807  0.2305 -0.3209 -3.9752
  132OSM     O314235   4.982   0.903   6.706 -0.0512 -0.3080 -0.2374
  132OSM    HO314236   5.059   0.903   6.649 -0.5089  0.3597 -0.8867
  132OSM    C4S14237   4.973   0.891   6.955  0.6200  0.2594  0.0952
  132OSM    H4S14238   5.040   0.976   6.973  3.0562 -1.7571  1.1055
  132OSM    C5S14239   4.881   0.857   7.050 -0.7977 -0.1297 -0.2424
  132OSM    H5S14240   4.821   0.765   7.045 -2.2372  0.6672  1.3860
  132OSM    C6S14241   4.864   0.938   7.173  0.4425  0.1918  0.4860
  132OSM    H6S14242   4.759   0.974   7.177 -0.4661 -1.4812 -3.5533
  132OSM    H6T14243   4.932   1.026   7.184  0.3591  0.7562 -2.6949
  132OSM    C7S14244   4.892   0.855   7.304 -0.1733 -0.6527 -0.2145
  132OSM    H7S14245   5.001   0.842   7.320 -0.0258  1.4937  0.8533
  132OSM    H7T14246   4.843   0.755   7.307  0.6326 -1.0404  0.8749
  132OSM    C8S14247   4.868   0.942   7.431 -0.2812  0.3719 -0.0112
  132OSM    H8S14248   4.769   0.992   7.427 -0.9855 -1.0315 -0.8503
  132OSM    H8T14249   4.930   1.033   7.420  2.0050 -0.7775  2.2757
  132OSM    C9S14250   4.882   0.863   7.562 -0.1005  0.0879  0.1732
  132OSM    H9S14251   4.978   0.808   7.554 -0.6907 -1.2839  1.8367
  132OSM    H9T14252   4.811   0.777   7.558 -1.1911  0.9699 -0.3495
  132OSM   C10S14253   4.868   0.937   7.692  0.0599  0.4374  0.4134
  132OSM   H10S14254   4.760   0.962   7.702 -0.5375 -0.9939 -1.7849
  132OSM   H10T14255   4.923   1.034   7.692 -0.5795  0.8803  2.8626
  132OSM   C11S14256   4.904   0.848   7.807  0.1814  1.3777 -0.2593
  132OSM   H11S14257   5.012   0.823   7.802  0.6266  3.1998 -0.7308
  132OSM   H11T14258   4.854   0.751   7.788 -0.2416  1.3177  1.0597
  132OSM   C12S14259   4.855   0.904   7.943  0.3840  0.3045  0.3240
  132OSM   H12S14260   4.744   0.915   7.941  0.4693  1.2532  0.3815
  132OSM   H12T14261   4.900   1.004   7.955  1.7160 -0.3337  0.8452
  132OSM   C13S14262   4.896   0.823   8.063 -0.1204 -0.1180 -0.3539
  132OSM   H13S14263   5.007   0.823   8.058 -0.1025  0.0569  0.0101
  132OSM   H13T14264   4.868   0.715   8.056  1.1304 -0.4160 -1.0115
  132OSM   C14S14265   4.854   0.874   8.200 -0.5502  0.4799 -0.6290
  132OSM   H14S14266   4.743   0.874   8.210 -0.5340  2.0643 -0.0755
  132OSM   H14T14267   4.889   0.979   8.212  1.7610 -0.2268 -0.7455
  132OSM   C15S14268   4.899   0.785   8.326 -0.0185 -0.8950 -0.3056
  132OSM   H15S14269   5.009   0.772   8.325  0.5074  2.6752 -0.2212
  132OSM   H15T14270   4.845   0.689   8.310 -2.4034  0.1871  0.7262
  132OSM   C16S14271   4.856   0.848   8.463 -0.0626  0.2739  0.2847
  132OSM   H16S14272   4.875   0.778   8.547  0.2645  0.1705  0.1253
  132OSM   H16T14273   4.749   0.858   8.435  0.8397  2.4283 -2.9605
  132OSM   C17S14274   4.935   0.976   8.493  0.9969  0.5987 -0.4577
  132OSM   H17S14275   4.925   1.007   8.599 -0.2973 -1.6358  0.1470
  132OSM   H17T14276   4.892   1.062   8.438 -1.7626  2.6899  4.3389
  132OSM   C18S14277   5.090   0.974   8.462 -0.2811  0.9340  0.2433
  132OSM   H18S14278   5.101   0.951   8.355  0.6112 -0.9140  0.7033
  132OSM   H18T14279   5.149   0.898   8.517  3.3872  4.1111  1.1530
  132OSM   H18U14280   5.140   1.072   8.479  2.9176 -0.4786 -0.4208
  132OSM    C1F14281   5.291   0.641   6.985 -0.1869 -0.3113 -0.1702
  132OSM     OF14282   5.378   0.718   6.953 -0.0391  0.4566 -0.4849
  132OSM    C2F14283   5.316   0.520   7.062  0.0764 -0.2846  0.1468
  132OSM    H2F14284   5.264   0.442   7.001 -0.8231  1.0956 -0.9298
  132OSM    H2G14285   5.262   0.531   7.159 -0.1576  1.2673 -0.1240
  132OSM    C3F14286   5.459   0.476   7.083  0.0249  0.3268 -0.7080
  132OSM    H3F14287   5.522   0.550   7.137 -0.1105  0.8941 -1.3026
  132OSM    H3G14288   5.504   0.471   6.981  1.2592  0.5559 -0.1934
  132OSM    C4F14289   5.445   0.334   7.149  0.7066 -0.6010 -0.0068
  132OSM    H4F14290   5.517   0.263   7.102  0.2342 -2.3865  1.8872
  132OSM    H4G14291   5.339   0.303   7.136  0.1783  0.8584  0.6269
  132OSM    C5F14292   5.467   0.338   7.303 -0.0497 -0.1480 -0.0893
  132OSM    H5F14293   5.397   0.402   7.362 -0.7169 -1.5311  0.6569
  132OSM    H5G14294   5.568   0.379   7.326 -0.4190  0.9738 -0.3721
  132OSM    C6F14295   5.466   0.195   7.364  0.0949  0.0935  0.3724
  132OSM    H6F14296   5.507   0.119   7.294 -1.0303 -0.6464  0.4750
  132OSM    H6G14297   5.368   0.168   7.410  1.0449 -1.5039  1.5525
  132OSM    C7F14298   5.553   0.196   7.496  0.3401 -0.2850 -1.0769
  132OSM    H7F14299   5.661   0.213   7.474  0.5587 -1.9503 -1.4123
  132OSM    H7G14300   5.546   0.098   7.548  0.8168  0.1809 -0.1033
  132OSM    C8F14301   5.503   0.296   7.601 -0.5084  0.1313  0.0787
  132OSM    H8F14302   5.440   0.240   7.673  0.9811 -2.0792 -0.2118
  132OSM    H8G14303   5.456   0.376   7.541 -0.6329  0.7783  1.0305
  132OSM    C9F14304   5.617   0.369   7.669 -0.0227  0.5216 -0.7496
  132OSM    H9F14305   5.682   0.431   7.606  1.8639 -0.0068  0.5949
  132OSM   C10F14306   5.662   0.355   7.796 -0.1036 -0.3507  0.7184
  132OSM   H10F14307   5.747   0.417   7.827  0.3383 -0.5302 -0.1114
  132OSM   C11F14308   5.601   0.267   7.902  0.9496 -0.2205  0.0398
  132OSM   H11F14309   5.543   0.180   7.863  1.3873 -0.8703  0.8334
  132OSM   H11G14310   5.532   0.329   7.963  2.2039  0.1964  1.0752
  132OSM   C12F14311   5.700   0.231   8.008  0.3207 -0.2529 -0.0914
  132OSM   H12F14312   5.728   0.308   8.084 -1.4850 -0.5018  0.8932
  132OSM   H12G14313   5.796   0.200   7.962  0.7313 -1.1239  1.2963
  132OSM   C13F14314   5.652   0.119   8.103 -0.4148  0.9496 -0.2875
  132OSM   H13F14315   5.614   0.026   8.057 -0.7252  0.8648  0.1362
  132OSM   H13G14316   5.555   0.155   8.144 -0.1741  1.7632 -0.4084
  132OSM   C14F14317   5.752   0.074   8.208  0.1132  0.4610 -0.3206
  132OSM   H14F14318   5.813   0.159   8.244  2.4099 -0.8422 -0.9634
  132OSM   H14G14319   5.831   0.012   8.160  1.1054  1.3075  0.1869
  132OSM   C15F14320   5.695  -0.001   8.326  0.1796 -0.0898 -0.4072
  132OSM   H15F14321   5.783  -0.038   8.384 -0.7504 -0.3536  0.9048
  132OSM   H15G14322   5.632  -0.089   8.299 -0.8034 -0.3267  2.3010
  132OSM   C16F14323   5.603   0.089   8.408  0.6182 -0.3204 -0.8109
  132OSM   H16F14324   5.550   0.163   8.344  2.0294  0.6546 -0.8918
  132OSM   H16G14325   5.658   0.159   8.473 -1.8359  0.0945  0.9798
  132OSM   C17F14326   5.507   0.015   8.499  0.0319  0.4488 -1.0854
  132OSM   H17F14327   5.419  -0.031   8.449  0.9951 -1.3388 -1.1867
  132OSM   H17G14328   5.461   0.095   8.562  0.3506 -1.1798  1.3871
  132OSM   C18F14329   5.578  -0.074   8.597 -0.1301  0.1868  0.2702
  132OSM   H18F14330   5.632  -0.161   8.555 -0.3415  0.3517 -0.3542
  132OSM   H18G14331   5.513  -0.103   8.682 -0.5452  0.9664  0.2358
  132OSM   H18H14332   5.651  -0.006   8.647 -0.7486  0.9572  0.1551
  133OSM      N14333   5.500   6.090   6.226 -0.3173 -0.2402  0.2348
  133OSM    C1514334   5.594   6.016   6.313  0.6575  0.6524 -0.8078
  133OSM   H15A14335   5.542   5.946   6.378 -0.0254  2.2602  0.4626
  133OSM   H15B14336   5.661   6.072   6.377 -0.3313  1.1143 -0.1477
  133OSM   H15C14337   5.668   5.961   6.257  0.4351  0.8014 -1.2500
  133OSM    C1414338   5.585   6.193   6.150 -0.2752  0.1019 -0.1538
  133OSM   H14A14339   5.528   6.264   6.092  1.2589  1.5367  0.0066
  133OSM   H14B14340   5.664   6.145   6.094 -0.8469  1.0088 -1.8281
  133OSM   H14C14341   5.639   6.242   6.230  1.7323  1.3783 -2.1592
  133OSM    C1314342   5.431   5.998   6.137  0.6829 -0.5112  0.4279
  133OSM   H13A14343   5.496   5.933   6.080  1.9581  0.9116  0.2296
  133OSM   H13B14344   5.375   6.053   6.063 -2.5699 -1.0539  2.2894
  133OSM   H13C14345   5.357   5.937   6.188  0.5907  1.5864  3.0069
  133OSM    C1214346   5.395   6.166   6.301 -0.2386 -0.6932 -0.4899
  133OSM   H12A14347   5.327   6.099   6.351  0.5953  0.7683  2.8772
  133OSM   H12B14348   5.336   6.224   6.232 -0.7734 -2.2884 -1.4212
  133OSM    C1114349   5.442   6.276   6.405  0.5211  0.4738  0.7056
  133OSM   H11A14350   5.534   6.247   6.460  0.8270  1.3935  0.7014
  133OSM   H11B14351   5.356   6.278   6.475 -0.3177  0.1562 -0.2871
  133OSM      P14352   5.344   6.511   6.343  0.3182 -0.1378 -0.0326
  133OSM    O1314353   5.352   6.602   6.227  0.0175  0.2854 -0.1727
  133OSM    O1414354   5.215   6.448   6.361 -0.1018  0.9473 -0.6239
  133OSM    O1114355   5.393   6.596   6.470 -0.2326 -0.1294 -0.0411
  133OSM    O1214356   5.460   6.400   6.338  0.2806 -0.4852  0.6223
  133OSM    C1S14357   5.309   6.650   6.573 -0.6631 -0.1848 -0.4869
  133OSM    H1S14358   5.254   6.569   6.625 -0.7576  0.5968  0.6717
  133OSM    H1T14359   5.234   6.719   6.528  1.4341  1.2345 -1.9720
  133OSM     NF14360   5.328   6.770   6.794 -0.0400 -0.3909  0.2379
  133OSM    HNF14361   5.298   6.865   6.785 -1.2141 -0.7480  0.2987
  133OSM    C2S14362   5.396   6.720   6.681 -0.0771 -1.0725  0.5404
  133OSM    H2S14363   5.474   6.650   6.717  2.2435  0.6506 -0.8404
  133OSM    C3S14364   5.468   6.837   6.602  0.1898  0.4294 -0.1659
  133OSM    H3S14365   5.387   6.905   6.568 -0.9367 -1.2636 -0.9608
  133OSM     O314366   5.545   6.806   6.484 -0.2925 -0.1756 -1.1123
  133OSM    HO314367   5.512   6.717   6.470  1.3070 -1.3889  1.9496
  133OSM    C4S14368   5.559   6.912   6.701 -0.6865  0.0273  0.2857
  133OSM    H4S14369   5.519   7.008   6.737  0.5666  0.7452 -0.2167
  133OSM    C5S14370   5.677   6.873   6.754 -0.3406  0.8590 -0.3517
  133OSM    H5S14371   5.717   6.771   6.743 -0.4237  0.9290 -1.3521
  133OSM    C6S14372   5.760   6.951   6.854  1.1653  0.1926 -0.8367
  133OSM    H6S14373   5.692   7.035   6.879 -1.8833 -2.0595 -0.9388
  133OSM    H6T14374   5.857   6.983   6.810  1.2307  0.1698 -0.7110
  133OSM    C7S14375   5.811   6.867   6.976  0.3542  0.2640 -0.4258
  133OSM    H7S14376   5.878   6.785   6.942 -1.1494 -1.6017  0.9622
  133OSM    H7T14377   5.725   6.817   7.025  1.1795  0.6331  1.4904
  133OSM    C8S14378   5.880   6.949   7.084  0.2835  0.6222  0.1406
  133OSM    H8S14379   5.810   7.017   7.136  1.1709  2.1577 -0.5954
  133OSM    H8T14380   5.959   7.009   7.034 -0.0511 -0.0962 -1.3055
  133OSM    C9S14381   5.948   6.855   7.196  0.1898 -0.2810 -0.4270
  133OSM    H9S14382   5.973   6.761   7.142 -1.5625 -1.0971  0.1110
  133OSM    H9T14383   5.867   6.832   7.268  2.2439 -1.2232  1.6787
  133OSM   C10S14384   6.064   6.927   7.272  0.8135 -0.0451 -0.1238
  133OSM   H10S14385   6.025   7.031   7.280  1.5716  0.2628 -0.3991
  133OSM   H10T14386   6.146   6.946   7.200  0.5592  2.3473  0.1536
  133OSM   C11S14387   6.110   6.859   7.401  0.1553  0.5423 -0.2870
  133OSM   H11S14388   6.026   6.847   7.472  0.6281  1.8986  0.5304
  133OSM   H11T14389   6.185   6.925   7.450  1.1032  0.7266 -1.9239
  133OSM   C12S14390   6.195   6.738   7.380 -1.1248  0.3269  0.4829
  133OSM   H12S14391   6.294   6.773   7.344 -1.3861  0.6520  0.0632
  133OSM   H12T14392   6.164   6.676   7.293 -2.8017  0.7067  0.7721
  133OSM   C13S14393   6.220   6.643   7.505  0.6809 -0.0297  0.0987
  133OSM   H13S14394   6.305   6.576   7.481 -0.0550 -0.3250 -1.9187
  133OSM   H13T14395   6.126   6.583   7.511  1.0874 -0.9151 -1.7393
  133OSM   C14S14396   6.240   6.731   7.634 -0.0127 -0.1849 -0.0397
  133OSM   H14S14397   6.153   6.800   7.645 -0.4433 -0.5718 -0.9755
  133OSM   H14T14398   6.337   6.784   7.624 -0.6122  0.6665 -1.6716
  133OSM   C15S14399   6.249   6.656   7.767 -0.3024 -0.2629  0.4790
  133OSM   H15S14400   6.338   6.590   7.757  0.2065  0.5800 -1.0168
  133OSM   H15T14401   6.162   6.588   7.776 -1.3223  0.8087 -0.8947
  133OSM   C16S14402   6.256   6.736   7.896  0.3592 -0.3577  0.1594
  133OSM   H16S14403   6.316   6.830   7.891 -2.5670  1.6486  0.4090
  133OSM   H16T14404   6.284   6.669   7.980 -0.7945 -0.2860  0.6098
  133OSM   C17S14405   6.124   6.787   7.950 -0.4543  0.5058  0.1602
  133OSM   H17S14406   6.054   6.702   7.965 -1.0758  0.9791 -0.0064
  133OSM   H17T14407   6.081   6.858   7.876  0.3865 -2.1475 -3.0737
  133OSM   C18S14408   6.140   6.853   8.088  0.5925 -0.1616  0.0934
  133OSM   H18S14409   6.189   6.783   8.159 -0.8409 -1.2887  0.0208
  133OSM   H18T14410   6.043   6.888   8.130  0.3518 -0.3600 -0.2999
  133OSM   H18U14411   6.206   6.943   8.081 -1.0345  1.0001 -0.9950
  133OSM    C1F14412   5.276   6.698   6.892 -0.2567 -0.8387 -0.0490
  133OSM     OF14413   5.296   6.577   6.888 -0.1933 -0.2271 -0.3890
  133OSM    C2F14414   5.185   6.771   6.986  0.5415 -0.0787 -0.3655
  133OSM    H2F14415   5.092   6.795   6.932  0.2601  2.7748  1.2177
  133OSM    H2G14416   5.241   6.860   7.022  1.7632 -1.3537  1.0770
  133OSM    C3F14417   5.166   6.685   7.116 -0.3911  0.3802 -0.7794
  133OSM    H3F14418   5.092   6.604   7.099  0.0386  0.5816 -4.6496
  133OSM    H3G14419   5.108   6.759   7.175  2.2301  1.2925  0.8162
  133OSM    C4F14420   5.285   6.638   7.199 -0.2366  0.0092  0.4886
  133OSM    H4F14421   5.359   6.719   7.220  0.0467 -0.6160  2.0022
  133OSM    H4G14422   5.355   6.571   7.145  0.6605 -0.3193  1.9965
  133OSM    C5F14423   5.259   6.577   7.342  1.4107 -0.4821  0.5074
  133OSM    H5F14424   5.348   6.520   7.378  0.6621 -0.6677  2.1699
  133OSM    H5G14425   5.167   6.518   7.323  0.7843  0.2325  1.2578
  133OSM    C6F14426   5.212   6.679   7.446 -0.5599 -0.0245  0.3478
  133OSM    H6F14427   5.149   6.747   7.386  2.1901  1.0793 -1.4775
  133OSM    H6G14428   5.298   6.740   7.479  0.5780 -1.9907  1.2048
  133OSM    C7F14429   5.137   6.609   7.557  0.4975 -0.3591 -0.3905
  133OSM    H7F14430   5.210   6.535   7.596  0.0392 -0.0804  1.0696
  133OSM    H7G14431   5.053   6.544   7.523  0.4495 -1.1440  1.1314
  133OSM    C8F14432   5.096   6.710   7.669  0.5980 -0.0350 -0.2038
  133OSM    H8F14433   5.028   6.653   7.736  0.7713  0.9573  0.8471
  133OSM    H8G14434   5.025   6.792   7.646  0.3930 -0.4455 -1.0727
  133OSM    C9F14435   5.217   6.768   7.745 -0.0341  0.5131  0.4181
  133OSM    H9F14436   5.308   6.785   7.686  0.1715  1.5924  1.0122
  133OSM   C10F14437   5.230   6.792   7.876 -0.2614  0.6395  0.1935
  133OSM   H10F14438   5.328   6.824   7.914 -0.0418 -0.4442  0.5718
  133OSM   C11F14439   5.126   6.760   7.984 -0.4591  0.0267 -0.2841
  133OSM   H11F14440   5.028   6.727   7.945 -1.6649  3.4179 -0.4247
  133OSM   H11G14441   5.095   6.854   8.036 -0.3601  0.2531 -0.6312
  133OSM   C12F14442   5.173   6.656   8.082 -0.2108  0.8274 -0.1791
  133OSM   H12F14443   5.258   6.691   8.144  0.6244 -3.1536  1.2178
  133OSM   H12G14444   5.213   6.565   8.033 -0.1370 -0.1130  1.5708
  133OSM   C13F14445   5.062   6.609   8.185  0.0349 -0.3088  0.0901
  133OSM   H13F14446   4.977   6.554   8.139 -0.6249  0.0075  0.9007
  133OSM   H13G14447   5.020   6.697   8.239  0.2789 -0.5527  0.6858
  133OSM   C14F14448   5.121   6.527   8.290 -0.2906 -0.6453  0.2599
  133OSM   H14F14449   5.199   6.579   8.350 -0.7252  2.6615 -1.7756
  133OSM   H14G14450   5.166   6.439   8.239 -0.4915 -0.4262 -0.2977
  133OSM   C15F14451   5.013   6.467   8.379  0.1701  0.0621  0.2857
  133OSM   H15F14452   4.934   6.419   8.317  0.4979  0.0879 -0.1563
  133OSM   H15G14453   4.962   6.545   8.439 -1.5960 -0.3862 -0.5687
  133OSM   C16F14454   5.065   6.352   8.470  0.6015  0.1605  0.6434
  133OSM   H16F14455   5.137   6.400   8.540  2.4475 -2.0777  0.4196
  133OSM   H16G14456   5.125   6.290   8.400 -0.6099  1.0268 -1.2315
  133OSM   C17F14457   4.960   6.258   8.532 -0.4217  1.2078  0.2233
  133OSM   H17F14458   4.999   6.200   8.619 -2.2967  2.4994  2.0326
  133OSM   H17G14459   4.919   6.185   8.458 -0.7205  0.0444  1.4843
  133OSM   C18F14460   4.852   6.335   8.605 -0.1715 -0.2097  0.5934
  133OSM   H18F14461   4.784   6.390   8.536  1.2000 -2.0613 -2.4536
  133OSM   H18G14462   4.894   6.409   8.676  0.8839 -0.8724  0.6741
  133OSM   H18H14463   4.787   6.278   8.675 -0.6777 -0.3204  0.0440
  134OSM      N14464   5.909   3.373   6.634  0.2537  0.1811 -0.1548
  134OSM    C1514465   5.863   3.515   6.605 -0.2167  0.0438  0.8717
  134OSM   H15A14466   5.778   3.513   6.538  1.9321  0.4554 -2.0870
  134OSM   H15B14467   5.945   3.559   6.550  1.3506 -2.7735  0.7475
  134OSM   H15C14468   5.838   3.570   6.694  0.2322  0.5952  0.6615
  134OSM    C1414469   6.023   3.377   6.738 -0.1032 -0.1145  0.6567
  134OSM   H14A14470   5.989   3.413   6.833 -0.7468  0.9606  0.0349
  134OSM   H14B14471   6.097   3.448   6.703  0.2991 -0.8682 -0.0680
  134OSM   H14C14472   6.075   3.282   6.747 -2.0472 -1.4783 -1.4130
  134OSM    C1314473   5.787   3.293   6.687 -0.2483 -0.5524  0.6139
  134OSM   H13A14474   5.760   3.329   6.785  2.2019  1.0866  0.7854
  134OSM   H13B14475   5.785   3.185   6.683  0.1057 -0.5529 -2.3730
  134OSM   H13C14476   5.699   3.307   6.626 -0.1145 -0.3058  0.4781
  134OSM    C1214477   5.963   3.307   6.506  0.0921 -0.1650  0.0157
  134OSM   H12A14478   6.052   3.360   6.476 -0.7903  0.5245 -1.4995
  134OSM   H12B14479   5.892   3.319   6.425  0.0893  0.5732  0.1179
  134OSM    C1114480   6.010   3.158   6.509 -0.0839 -0.6824  0.5526
  134OSM   H11A14481   6.014   3.116   6.407 -0.1060  1.5622 -0.4313
  134OSM   H11B14482   5.926   3.103   6.557  0.6611 -0.9468  1.5740
  134OSM      P14483   6.188   3.010   6.616 -0.5735  0.1693  0.0990
  134OSM    O1314484   6.152   2.988   6.757 -0.0786  0.2690 -0.2749
  134OSM    O1414485   6.130   2.914   6.522  0.1590 -0.1968  0.1506
  134OSM    O1114486   6.342   3.015   6.592 -0.7865 -0.7003 -0.3083
  134OSM    O1214487   6.139   3.155   6.574  0.5744 -0.1285  0.5691
  134OSM    C1S14488   6.432   3.054   6.696 -0.2797 -0.5249 -0.2989
  134OSM    H1S14489   6.385   3.121   6.771 -0.9115 -1.7666  0.4423
  134OSM    H1T14490   6.527   3.098   6.658  0.5244 -1.6266  0.3761
  134OSM     NF14491   6.587   2.958   6.872  0.0660  0.2135 -0.2138
  134OSM    HNF14492   6.682   2.929   6.865  1.1636  2.7046  2.4009
  134OSM    C2S14493   6.490   2.930   6.769  1.0454  0.5481  0.1075
  134OSM    H2S14494   6.401   2.883   6.816  2.6709 -2.6082  0.2675
  134OSM    C3S14495   6.543   2.824   6.669 -0.1213 -0.2676  0.6076
  134OSM    H3S14496   6.634   2.866   6.620 -1.0250 -0.0238 -0.9296
  134OSM     O314497   6.457   2.768   6.568 -0.0338 -0.6500 -0.4936
  134OSM    HO314498   6.381   2.826   6.568 -0.6014 -1.2031  2.7502
  134OSM    C4S14499   6.582   2.696   6.741  0.6171  0.0463 -0.0075
  134OSM    H4S14500   6.508   2.663   6.816 -0.0844 -3.9084 -2.1602
  134OSM    C5S14501   6.678   2.617   6.700  0.2667  1.3599 -0.3021
  134OSM    H5S14502   6.733   2.637   6.607 -1.1169 -1.7969 -1.9728
  134OSM    C6S14503   6.711   2.486   6.762 -0.1824  0.2919 -0.2632
  134OSM    H6S14504   6.819   2.466   6.747  0.0864 -0.4940  2.2398
  134OSM    H6T14505   6.671   2.401   6.703  0.9722 -1.5747  1.4540
  134OSM    C7S14506   6.676   2.455   6.910  0.1592  0.1619  0.2334
  134OSM    H7S14507   6.722   2.354   6.920 -0.2891 -0.3690 -2.2677
  134OSM    H7T14508   6.565   2.448   6.913  0.1463 -1.4686 -1.7538
  134OSM    C8S14509   6.719   2.550   7.012  0.4659  0.2996 -0.8881
  134OSM    H8S14510   6.679   2.652   6.994  0.5647  0.3690 -0.7167
  134OSM    H8T14511   6.831   2.552   7.010  0.5331 -1.1602 -0.0200
  134OSM    C9S14512   6.669   2.510   7.150  0.1070  0.8074 -0.3150
  134OSM    H9S14513   6.717   2.414   7.179 -2.2580 -0.1400  0.7064
  134OSM    H9T14514   6.561   2.485   7.146  0.5224 -0.9825 -2.7578
  134OSM   C10S14515   6.710   2.615   7.252  0.3360 -0.3404 -0.2912
  134OSM   H10S14516   6.661   2.713   7.239  0.6401  0.0206  1.0874
  134OSM   H10T14517   6.819   2.636   7.261  0.6579 -0.9637 -2.2318
  134OSM   C11S14518   6.671   2.561   7.391 -0.1575  0.0060 -0.3468
  134OSM   H11S14519   6.689   2.451   7.399  0.3220  0.0570 -0.6871
  134OSM   H11T14520   6.560   2.563   7.393 -0.2000 -1.2377 -0.5907
  134OSM   C12S14521   6.738   2.650   7.499  0.6214  0.5081 -0.2385
  134OSM   H12S14522   6.709   2.756   7.480 -1.0018  0.1404 -0.0095
  134OSM   H12T14523   6.848   2.647   7.492  0.5974 -1.6954 -0.5073
  134OSM   C13S14524   6.685   2.637   7.645  0.6033 -0.2486  0.7807
  134OSM   H13S14525   6.682   2.532   7.682  1.4016 -0.7035 -0.3741
  134OSM   H13T14526   6.585   2.684   7.657 -0.2793 -1.9680  0.4554
  134OSM   C14S14527   6.770   2.712   7.746  0.8697 -0.6880 -0.5193
  134OSM   H14S14528   6.725   2.813   7.738 -0.0573 -0.9016  1.3354
  134OSM   H14T14529   6.879   2.711   7.723  0.8832  0.2973 -0.5469
  134OSM   C15S14530   6.757   2.668   7.887 -0.3713 -0.1911 -0.0771
  134OSM   H15S14531   6.802   2.568   7.903 -1.1032 -0.1709  2.7844
  134OSM   H15T14532   6.655   2.657   7.931  0.3337 -1.3722  1.3426
  134OSM   C16S14533   6.819   2.773   7.987  0.0218  0.3039  0.1511
  134OSM   H16S14534   6.767   2.870   7.976  0.3819  0.4929  0.0950
  134OSM   H16T14535   6.926   2.778   7.956  0.3151 -0.8303  0.9283
  134OSM   C17S14536   6.819   2.734   8.138  0.4201  0.3450 -0.5588
  134OSM   H17S14537   6.715   2.745   8.175 -0.2557 -0.1896 -2.1714
  134OSM   H17T14538   6.885   2.804   8.193 -0.3014  0.4459  0.2034
  134OSM   C18S14539   6.885   2.600   8.163 -0.4659  0.4734 -0.2073
  134OSM   H18S14540   6.835   2.515   8.112 -1.3110  0.8076  0.0383
  134OSM   H18T14541   6.879   2.568   8.269  1.9075 -0.5332 -0.3047
  134OSM   H18U14542   6.992   2.602   8.135 -0.0131  1.8532  1.4453
  134OSM    C1F14543   6.554   3.032   6.980 -0.0707 -0.0558 -0.1216
  134OSM     OF14544   6.437   3.066   6.987  0.3631 -0.3301 -0.3061
  134OSM    C2F14545   6.651   3.059   7.090  0.0483 -0.4203 -0.5065
  134OSM    H2F14546   6.609   3.027   7.187 -0.4149 -1.0521 -0.9082
  134OSM    H2G14547   6.650   3.169   7.105 -1.7049 -0.6244  1.3277
  134OSM    C3F14548   6.791   2.993   7.084  0.1707  0.1921  0.4614
  134OSM    H3F14549   6.833   3.026   6.986 -0.7193  0.0715  0.0305
  134OSM    H3G14550   6.793   2.882   7.075 -1.9867  0.2122 -0.8500
  134OSM    C4F14551   6.886   3.051   7.192 -0.0923 -0.6810 -0.7051
  134OSM    H4F14552   6.856   3.158   7.191 -0.3996 -0.7504  0.0633
  134OSM    H4G14553   6.991   3.047   7.156  0.3484 -2.3803  0.6254
  134OSM    C5F14554   6.867   2.989   7.329  0.2071 -0.7390  0.1125
  134OSM    H5F14555   6.920   2.891   7.332 -0.1042 -0.9865 -1.5135
  134OSM    H5G14556   6.765   2.966   7.365 -0.1467  0.1499 -0.3027
  134OSM    C6F14557   6.930   3.082   7.431  0.1903  0.6141 -0.4651
  134OSM    H6F14558   6.868   3.174   7.423 -1.0269 -0.1985 -0.7467
  134OSM    H6G14559   7.031   3.119   7.405 -0.0427  2.5343  1.1405
  134OSM    C7F14560   6.931   3.040   7.581  0.1507  0.0061 -0.4427
  134OSM    H7F14561   6.958   2.932   7.578  0.5834  0.1265 -2.5000
  134OSM    H7G14562   6.827   3.030   7.618  0.3616 -1.9645 -0.2407
  134OSM    C8F14563   7.024   3.126   7.670  0.0559  0.1979 -0.3831
  134OSM    H8F14564   7.123   3.134   7.620 -0.1394  2.8570 -0.4610
  134OSM    H8G14565   7.052   3.069   7.761  0.8221 -0.1960 -0.8471
  134OSM    C9F14566   6.977   3.262   7.697  0.1678 -0.7325 -0.6389
  134OSM    H9F14567   7.004   3.331   7.616  0.2366 -1.3939 -1.1896
  134OSM   C10F14568   6.909   3.306   7.806 -0.0700 -0.5121  0.4225
  134OSM   H10F14569   6.893   3.414   7.820  0.7783 -0.2609 -0.4298
  134OSM   C11F14570   6.866   3.213   7.916  0.0156  0.0893  0.2493
  134OSM   H11F14571   6.841   3.112   7.879 -1.1258  0.1707  0.7717
  134OSM   H11G14572   6.772   3.261   7.951  0.7511 -0.2836  2.9870
  134OSM   C12F14573   6.967   3.226   8.036  0.3845  0.6298 -0.2169
  134OSM   H12F14574   6.977   3.327   8.080  1.7372  0.6338 -0.4899
  134OSM   H12G14575   7.066   3.186   8.006  0.7065 -0.4233  2.0495
  134OSM   C13F14576   6.928   3.128   8.150  0.3926 -0.6198  0.0110
  134OSM   H13F14577   6.921   3.028   8.102 -0.3969 -0.0805 -1.0389
  134OSM   H13G14578   6.823   3.148   8.177 -0.0959 -3.0311  0.1533
  134OSM   C14F14579   7.034   3.147   8.265 -0.3670  0.4372 -0.1833
  134OSM   H14F14580   7.027   3.255   8.293 -0.0703  0.4351 -0.0977
  134OSM   H14G14581   7.136   3.131   8.224 -0.4365 -1.4118  0.2902
  134OSM   C15F14582   7.025   3.051   8.387 -0.8598 -0.7455  0.0485
  134OSM   H15F14583   7.005   2.948   8.352 -1.9539 -0.3012 -0.6687
  134OSM   H15G14584   6.943   3.086   8.454 -0.7451 -0.7838  0.2106
  134OSM   C16F14585   7.144   3.042   8.486 -0.5028 -0.4082 -0.6537
  134OSM   H16F14586   7.237   3.005   8.439 -0.8140  0.9719 -2.5040
  134OSM   H16G14587   7.106   2.977   8.567 -0.8350  0.6998  0.0961
  134OSM   C17F14588   7.179   3.183   8.540  0.9125 -0.2807 -0.5484
  134OSM   H17F14589   7.088   3.229   8.583  0.8200  0.9480 -1.9833
  134OSM   H17G14590   7.189   3.264   8.464 -2.5579  1.0229  0.2147
  134OSM   C18F14591   7.286   3.171   8.641 -0.6379  0.6102 -0.2529
  134OSM   H18F14592   7.244   3.098   8.713  0.5316  1.3716  1.2369
  134OSM   H18G14593   7.307   3.271   8.685 -1.9889  0.9661 -0.3685
  134OSM   H18H14594   7.375   3.119   8.601 -0.9434  0.6649 -1.0225
  135OSM      N14595   5.483   2.573   6.637 -0.0506  0.3516  0.0252
  135OSM    C1514596   5.560   2.676   6.561 -0.1596  0.6387  0.4473
  135OSM   H15A14597   5.595   2.756   6.625  1.2300  0.1318  0.3554
  135OSM   H15B14598   5.515   2.719   6.472  0.9200  1.0018  0.0570
  135OSM   H15C14599   5.653   2.629   6.531 -1.5877 -1.0575 -1.5384
  135OSM    C1414600   5.526   2.574   6.781  0.0987 -0.0276 -0.0744
  135OSM   H14A14601   5.471   2.516   6.854  1.8633 -1.6948  0.0339
  135OSM   H14B14602   5.528   2.670   6.828  0.0731 -1.2354  2.5578
  135OSM   H14C14603   5.621   2.523   6.784 -0.5772 -1.4586 -1.1434
  135OSM    C1314604   5.333   2.595   6.624  0.2301 -0.1003  0.4931
  135OSM   H13A14605   5.307   2.612   6.520  2.1619 -2.2445 -0.4198
  135OSM   H13B14606   5.299   2.675   6.688  0.2876 -1.0559  1.7658
  135OSM   H13C14607   5.279   2.512   6.665 -0.7090 -0.1235 -0.7329
  135OSM    C1214608   5.512   2.428   6.573  0.1134 -0.3710 -0.1291
  135OSM   H12A14609   5.483   2.427   6.469  0.9006 -0.9105 -0.3448
  135OSM   H12B14610   5.447   2.353   6.615  0.1685 -1.3652 -1.7504
  135OSM    C1114611   5.661   2.382   6.565  0.0649 -0.4466  0.3072
  135OSM   H11A14612   5.671   2.284   6.514  4.2296  0.1038 -0.2784
  135OSM   H11B14613   5.708   2.379   6.666 -1.2678  1.3699  1.0343
  135OSM      P14614   5.891   2.475   6.440  0.4840  0.1591  0.1846
  135OSM    O1314615   5.923   2.336   6.406 -0.3538 -0.3719  0.5021
  135OSM    O1414616   5.902   2.572   6.330 -0.6475  0.3126 -0.3089
  135OSM    O1114617   5.970   2.518   6.568  0.2196 -0.1080 -0.3150
  135OSM    O1214618   5.740   2.475   6.489 -0.0975 -0.2240 -0.1527
  135OSM    C1S14619   5.914   2.583   6.687 -0.2027  0.3224  0.3958
  135OSM    H1S14620   5.813   2.543   6.712 -0.5845  1.3663  0.5680
  135OSM    H1T14621   5.899   2.691   6.665 -0.1818  0.8461  2.7622
  135OSM     NF14622   5.933   2.604   6.926 -1.0938 -0.1657 -0.2162
  135OSM    HNF14623   5.958   2.695   6.958 -2.6276  0.6617 -1.2220
  135OSM    C2S14624   6.003   2.552   6.811  0.1421 -0.5457 -0.6662
  135OSM    H2S14625   6.009   2.442   6.825  1.0233 -0.3963  0.1466
  135OSM    C3S14626   6.145   2.608   6.782 -0.7892 -0.0217  0.1130
  135OSM    H3S14627   6.133   2.711   6.745  0.9864 -0.4810 -1.8811
  135OSM     O314628   6.220   2.540   6.683 -0.0947  0.1338  0.2261
  135OSM    HO314629   6.155   2.486   6.637  1.1186 -0.5861 -0.6935
  135OSM    C4S14630   6.223   2.612   6.909  0.4622  0.0981 -0.4956
  135OSM    H4S14631   6.235   2.510   6.948  1.1282 -0.0694 -1.0999
  135OSM    C5S14632   6.282   2.716   6.978 -0.3859 -0.0029 -0.1331
  135OSM    H5S14633   6.279   2.818   6.935  2.3269  0.3905  0.4214
  135OSM    C6S14634   6.356   2.713   7.109 -0.5204 -0.0996 -0.0577
  135OSM    H6S14635   6.463   2.740   7.093 -0.2377 -0.4553  1.1421
  135OSM    H6T14636   6.373   2.609   7.143  1.0284  0.2065  0.1989
  135OSM    C7S14637   6.285   2.800   7.208  1.0138  0.1619 -0.3958
  135OSM    H7S14638   6.290   2.907   7.178  1.1074 -0.2752 -2.0110
  135OSM    H7T14639   6.350   2.788   7.298  0.3944  2.2028  0.3729
  135OSM    C8S14640   6.143   2.747   7.255 -0.3816 -0.3156 -0.1140
  135OSM    H8S14641   6.084   2.780   7.167 -0.7248 -0.2742  0.1280
  135OSM    H8T14642   6.107   2.812   7.338 -1.9634 -0.3210 -0.7643
  135OSM    C9S14643   6.135   2.600   7.308  0.1225 -1.5005  0.4266
  135OSM    H9S14644   6.175   2.534   7.228  2.8353  1.3871 -0.8247
  135OSM    H9T14645   6.028   2.579   7.330 -1.2229  2.7763 -1.0038
  135OSM   C10S14646   6.227   2.575   7.434  0.8625  0.2267  0.0342
  135OSM   H10S14647   6.187   2.654   7.501  0.1797 -0.3906  0.3731
  135OSM   H10T14648   6.331   2.598   7.401  0.7267 -0.5693 -0.9617
  135OSM   C11S14649   6.226   2.433   7.492 -0.2354 -0.0319  0.3344
  135OSM   H11S14650   6.242   2.357   7.412  0.6697  0.6966 -0.1914
  135OSM   H11T14651   6.129   2.415   7.544  0.4072  1.6533  2.2333
  135OSM   C12S14652   6.344   2.406   7.586  0.3331  0.6339  0.4776
  135OSM   H12S14653   6.429   2.477   7.582  0.7108  0.6972  5.0562
  135OSM   H12T14654   6.379   2.305   7.556  2.3196  1.4001  0.0699
  135OSM   C13S14655   6.297   2.420   7.730  0.0792 -0.7818  0.8737
  135OSM   H13S14656   6.226   2.338   7.754 -0.7976 -0.4619 -0.4686
  135OSM   H13T14657   6.246   2.517   7.751  0.7718 -0.0143 -0.7930
  135OSM   C14S14658   6.415   2.402   7.829 -0.4833 -0.1144 -0.2019
  135OSM   H14S14659   6.497   2.477   7.820  0.8324 -1.3993  0.4994
  135OSM   H14T14660   6.461   2.303   7.813  0.1581  0.0852  0.3554
  135OSM   C15S14661   6.383   2.411   7.982 -0.5435 -0.0565  0.7962
  135OSM   H15S14662   6.291   2.354   8.008 -1.2281 -0.5579 -2.2373
  135OSM   H15T14663   6.366   2.519   8.000  1.3709  0.1442  1.6268
  135OSM   C16S14664   6.500   2.367   8.073  0.0427  0.0610  0.2735
  135OSM   H16S14665   6.592   2.420   8.039 -0.1023 -1.4461 -2.9224
  135OSM   H16T14666   6.521   2.258   8.067 -0.8058 -0.2641  2.3379
  135OSM   C17S14667   6.475   2.403   8.221 -0.0173  0.4282  0.1837
  135OSM   H17S14668   6.389   2.346   8.264  0.6715 -0.3215  0.5907
  135OSM   H17T14669   6.457   2.511   8.239 -0.5251  0.0256  2.3737
  135OSM   C18S14670   6.604   2.374   8.294 -0.1412 -0.0354 -0.0820
  135OSM   H18S14671   6.685   2.410   8.227 -0.8667 -1.8951 -2.1103
  135OSM   H18T14672   6.604   2.264   8.307  2.2186 -0.0816 -0.0013
  135OSM   H18U14673   6.603   2.437   8.385 -0.8588  1.6842 -1.2078
  135OSM    C1F14674   5.835   2.529   6.978 -0.2707 -0.4302 -0.7750
  135OSM     OF14675   5.784   2.431   6.923 -0.3145  0.6501 -0.0850
  135OSM    C2F14676   5.787   2.577   7.114 -0.5822 -0.1589  0.4783
  135OSM    H2F14677   5.699   2.643   7.104  1.4154  3.0427  2.1969
  135OSM    H2G14678   5.865   2.630   7.174 -1.8279  0.5213  1.5598
  135OSM    C3F14679   5.774   2.456   7.198  0.2810  0.4955 -0.7181
  135OSM    H3F14680   5.868   2.397   7.205  0.6198  1.0454 -0.5970
  135OSM    H3G14681   5.704   2.381   7.155  1.8270  0.1129 -2.7158
  135OSM    C4F14682   5.739   2.478   7.340  0.8172  0.2206 -0.4779
  135OSM    H4F14683   5.632   2.499   7.361  0.8917  0.6392 -0.5043
  135OSM    H4G14684   5.789   2.569   7.380  3.2423 -1.4224  0.5265
  135OSM    C5F14685   5.793   2.369   7.426  0.6236 -0.4863 -0.0375
  135OSM    H5F14686   5.902   2.348   7.421  0.9712  1.3009 -0.7865
  135OSM    H5G14687   5.736   2.276   7.404 -0.1928 -0.3523  1.4000
  135OSM    C6F14688   5.750   2.390   7.577 -0.2487 -0.0345  0.1824
  135OSM    H6F14689   5.657   2.332   7.600 -0.4863  0.3337  0.1585
  135OSM    H6G14690   5.744   2.498   7.604  2.0331 -0.4491  2.6900
  135OSM    C7F14691   5.853   2.343   7.678 -0.0904 -0.0247  0.0592
  135OSM    H7F14692   5.946   2.377   7.628 -0.9195  0.9620 -0.8869
  135OSM    H7G14693   5.853   2.233   7.689  1.8086  0.1012  2.0802
  135OSM    C8F14694   5.849   2.400   7.830  0.1872 -0.0730 -0.0777
  135OSM    H8F14695   5.758   2.362   7.881  0.3179  1.1791  1.1320
  135OSM    H8G14696   5.836   2.510   7.819 -0.5583 -0.2048 -0.5966
  135OSM    C9F14697   5.968   2.371   7.920  0.3991  0.6578 -0.5108
  135OSM    H9F14698   5.988   2.264   7.929 -0.8284  0.3976 -0.7057
  135OSM   C10F14699   6.027   2.448   8.015  0.2073 -0.4214  0.1729
  135OSM   H10F14700   6.116   2.414   8.070  1.1604 -1.4699 -1.8914
  135OSM   C11F14701   5.988   2.587   8.053  0.1555  0.8805 -0.1287
  135OSM   H11F14702   5.889   2.601   8.006  0.5639 -0.5177 -1.4862
  135OSM   H11G14703   6.056   2.660   8.004  0.9475 -0.3179 -0.8758
  135OSM   C12F14704   5.978   2.620   8.209  0.1977 -0.1684 -0.3785
  135OSM   H12F14705   5.933   2.532   8.259  1.1332 -2.9978 -4.0404
  135OSM   H12G14706   5.906   2.701   8.234 -0.3232 -1.3946  2.4478
  135OSM   C13F14707   6.115   2.648   8.276  0.3508  0.7881  0.3861
  135OSM   H13F14708   6.170   2.726   8.220 -0.8052  2.9105  2.0469
  135OSM   H13G14709   6.179   2.558   8.281  0.9399  1.0892 -1.1370
  135OSM   C14F14710   6.100   2.713   8.417 -0.7786 -0.1171  0.0023
  135OSM   H14F14711   6.052   2.811   8.399 -2.2734 -0.6804  0.7688
  135OSM   H14G14712   6.205   2.739   8.444 -0.9041  0.5196 -0.0926
  135OSM   C15F14713   6.026   2.640   8.531 -0.1398  0.1012  1.0530
  135OSM   H15F14714   6.053   2.533   8.542  0.7266  0.3226  1.1556
  135OSM   H15G14715   5.921   2.649   8.493 -0.4837 -1.4748  1.5537
  135OSM   C16F14716   6.043   2.708   8.662 -0.0031  0.0994 -0.2161
  135OSM   H16F14717   5.999   2.809   8.672 -1.6195 -0.7509  2.1534
  135OSM   H16G14718   6.151   2.732   8.657 -0.0252  0.3522  0.4790
  135OSM   C17F14719   6.001   2.630   8.782  0.9077 -0.0597  0.4148
  135OSM   H17F14720   6.048   2.531   8.800 -1.5669 -0.8219  3.5314
  135OSM   H17G14721   5.894   2.611   8.761  1.1063 -0.0850 -0.6142
  135OSM   C18F14722   6.007   2.706   8.910 -0.1304 -0.3152  0.1954
  135OSM   H18F14723   5.946   2.798   8.899  1.2789  0.9655  2.2768
  135OSM   H18G14724   6.112   2.733   8.936 -0.8174 -0.4467  3.5900
  135OSM   H18H14725   5.961   2.650   8.994  2.0682 -0.6260  1.2589
  136OSM      N14726   5.052   1.702   6.086  0.3115 -0.4976 -0.9444
  136OSM    C1514727   5.015   1.641   5.962 -0.0114  0.7636 -0.0097
  136OSM   H15A14728   4.947   1.559   5.975 -0.2263  0.8527 -0.5780
  136OSM   H15B14729   5.108   1.618   5.912  0.4426 -1.7509  1.8004
  136OSM   H15C14730   4.951   1.711   5.911 -1.3439  1.4042  2.3795
  136OSM    C1414731   5.114   1.595   6.178 -0.0249  0.1136 -0.1986
  136OSM   H14A14732   5.028   1.530   6.187  2.0593 -2.6939  0.9360
  136OSM   H14B14733   5.141   1.636   6.274  1.0514 -2.5986  0.7450
  136OSM   H14C14734   5.195   1.541   6.132 -1.2555 -1.7290 -0.3179
  136OSM    C1314735   5.170   1.796   6.062  0.3850  0.2935 -0.0134
  136OSM   H13A14736   5.217   1.826   6.155 -2.4498 -0.1716  1.6979
  136OSM   H13B14737   5.140   1.887   6.013 -0.9402  0.0637  0.3197
  136OSM   H13C14738   5.252   1.756   6.004  0.5649  1.5140 -0.6276
  136OSM    C1214739   4.939   1.777   6.156  0.2072 -0.5905  0.4107
  136OSM   H12A14740   4.906   1.861   6.098  0.4328 -0.1216  0.9526
  136OSM   H12B14741   4.971   1.809   6.254 -0.9866 -0.1650  0.6715
  136OSM    C1114742   4.814   1.689   6.188  0.1365  0.0823 -0.1056
  136OSM   H11A14743   4.748   1.748   6.254  0.2489 -0.4569  0.4963
  136OSM   H11B14744   4.857   1.599   6.238 -1.4189 -1.5144 -1.5103
  136OSM      P14745   4.669   1.508   6.070  0.4451  0.3904 -0.0469
  136OSM    O1314746   4.560   1.509   5.968 -0.0854  0.5222 -0.5807
  136OSM    O1414747   4.762   1.395   6.057 -0.7992  0.3109 -0.1365
  136OSM    O1114748   4.606   1.498   6.208 -0.1969  0.2037 -0.0571
  136OSM    O1214749   4.737   1.651   6.069  0.5784  0.8117  0.0962
  136OSM    C1S14750   4.513   1.574   6.278  0.2462 -0.4689  0.0563
  136OSM    H1S14751   4.408   1.557   6.248 -0.8111  0.8403  2.6927
  136OSM    H1T14752   4.544   1.681   6.274  0.8047 -0.5967  0.6262
  136OSM     NF14753   4.409   1.617   6.500  0.0534 -0.0498 -0.3676
  136OSM    HNF14754   4.440   1.692   6.558  0.1998  0.5358 -1.1886
  136OSM    C2S14755   4.515   1.540   6.431 -0.4276 -0.5173  0.5357
  136OSM    H2S14756   4.488   1.432   6.430  0.8438 -0.8981  2.1670
  136OSM    C3S14757   4.662   1.543   6.499  0.5184 -0.0611 -0.3125
  136OSM    H3S14758   4.683   1.652   6.507  1.0260 -0.1490 -0.4146
  136OSM     O314759   4.759   1.474   6.427 -0.3015  0.4495  0.1546
  136OSM    HO314760   4.722   1.487   6.339 -0.2352  0.3802  0.1162
  136OSM    C4S14761   4.655   1.485   6.639  0.8434 -0.2117 -0.2926
  136OSM    H4S14762   4.611   1.385   6.646  2.5683 -0.9561  0.4617
  136OSM    C5S14763   4.709   1.541   6.752  0.3814 -0.1941  0.2910
  136OSM    H5S14764   4.743   1.645   6.736 -1.4049  0.3673 -0.0606
  136OSM    C6S14765   4.726   1.487   6.895  1.0018  0.6858 -0.0022
  136OSM    H6S14766   4.710   1.560   6.977 -0.3799  0.9035 -0.4418
  136OSM    H6T14767   4.832   1.456   6.907  0.4586 -1.6067 -0.7334
  136OSM    C7S14768   4.651   1.355   6.934  0.0698  0.1112 -0.3420
  136OSM    H7S14769   4.674   1.294   6.844 -1.0997  2.2843 -2.2366
  136OSM    H7T14770   4.540   1.360   6.929  0.0320 -0.7071 -0.3580
  136OSM    C8S14771   4.710   1.292   7.061 -0.4793  0.2678 -0.2110
  136OSM    H8S14772   4.820   1.283   7.053 -0.4558 -1.5008  1.2974
  136OSM    H8T14773   4.681   1.187   7.086 -0.8156  0.1892 -0.9115
  136OSM    C9S14774   4.679   1.380   7.187 -0.2925 -0.0665 -0.1776
  136OSM    H9S14775   4.571   1.404   7.203 -0.2833 -1.7109  3.0567
  136OSM    H9T14776   4.736   1.475   7.177  0.3075 -0.1163  2.1609
  136OSM   C10S14777   4.730   1.317   7.314 -0.8601  0.6315 -1.0603
  136OSM   H10S14778   4.840   1.304   7.317 -0.6790  2.0841  2.1684
  136OSM   H10T14779   4.684   1.216   7.318  4.0792 -1.8957 -0.3880
  136OSM   C11S14780   4.693   1.398   7.441 -0.3087  0.9547  0.5380
  136OSM   H11S14781   4.588   1.432   7.426 -1.2357 -1.4048  1.2353
  136OSM   H11T14782   4.756   1.489   7.451  0.4156  0.4475  0.6446
  136OSM   C12S14783   4.711   1.328   7.575 -0.0165 -0.5058 -0.1605
  136OSM   H12S14784   4.817   1.305   7.595  1.5628  2.8826 -3.3725
  136OSM   H12T14785   4.636   1.245   7.572 -2.1752  1.3336  0.3187
  136OSM   C13S14786   4.674   1.428   7.683  0.2984 -0.8940 -0.4647
  136OSM   H13S14787   4.567   1.454   7.684  0.5867  0.7569  3.1070
  136OSM   H13T14788   4.711   1.532   7.673 -0.8643 -0.6536 -2.9871
  136OSM   C14S14789   4.716   1.373   7.825  0.0363 -0.0835  0.6463
  136OSM   H14S14790   4.825   1.355   7.812 -0.0395  0.4021 -0.9606
  136OSM   H14T14791   4.672   1.271   7.838 -2.2637  0.5579 -1.3349
  136OSM   C15S14792   4.685   1.469   7.939  0.4705 -0.6120  0.8705
  136OSM   H15S14793   4.575   1.466   7.957  0.1542  1.7197 -0.2649
  136OSM   H15T14794   4.700   1.572   7.900  1.9764 -1.4134 -0.7932
  136OSM   C16S14795   4.782   1.462   8.054 -0.2902  0.5923  0.1716
  136OSM   H16S14796   4.801   1.557   8.107 -0.4361  0.3109  0.7364
  136OSM   H16T14797   4.876   1.437   8.000 -0.1410 -2.8845  1.7505
  136OSM   C17S14798   4.738   1.350   8.147 -0.0859  0.5921  0.4262
  136OSM   H17S14799   4.738   1.254   8.090  0.5572  0.8751 -0.0526
  136OSM   H17T14800   4.630   1.367   8.167 -0.2331 -0.0658  0.2189
  136OSM   C18S14801   4.817   1.316   8.274 -0.1204 -0.0533  0.5028
  136OSM   H18S14802   4.831   1.400   8.345  2.8877  0.8245 -0.9109
  136OSM   H18T14803   4.917   1.278   8.242 -0.7395  0.0859 -1.8283
  136OSM   H18U14804   4.750   1.242   8.321 -2.4694 -1.5796 -4.4857
  136OSM    C1F14805   4.276   1.598   6.494  0.2421  0.3885  0.2751
  136OSM     OF14806   4.226   1.502   6.428 -0.3337 -0.4052 -0.6152
  136OSM    C2F14807   4.191   1.698   6.572 -0.1868  0.3056 -0.3891
  136OSM    H2F14808   4.101   1.729   6.515 -2.1883 -2.5722  0.9782
  136OSM    H2G14809   4.245   1.791   6.599  0.0797 -0.0488  0.3260
  136OSM    C3F14810   4.145   1.644   6.708  0.4445  1.2227  0.2442
  136OSM    H3F14811   4.229   1.592   6.758  2.1281  1.2230 -2.3992
  136OSM    H3G14812   4.071   1.566   6.681  0.0170  1.3700  0.9642
  136OSM    C4F14813   4.079   1.748   6.797 -0.4303  0.4867  0.5123
  136OSM    H4F14814   3.990   1.791   6.745 -1.1293 -0.8258  0.5913
  136OSM    H4G14815   4.157   1.828   6.800 -0.5441  0.5648  1.8132
  136OSM    C5F14816   4.045   1.696   6.936 -0.5491 -0.1867 -0.0425
  136OSM    H5F14817   4.130   1.644   6.987  0.4102  0.1403 -1.2402
  136OSM    H5G14818   3.962   1.623   6.932 -0.2584 -0.5085 -2.9805
  136OSM    C6F14819   3.993   1.806   7.024  0.2626 -0.4119  0.0568
  136OSM    H6F14820   3.889   1.829   6.994 -0.0067 -2.4857 -0.8208
  136OSM    H6G14821   4.060   1.892   7.004 -0.8889  0.1255 -1.7000
  136OSM    C7F14822   3.967   1.764   7.164  0.0376  0.1698 -0.4507
  136OSM    H7F14823   4.070   1.738   7.200 -0.4891 -0.8283  0.4070
  136OSM    H7G14824   3.910   1.669   7.175 -1.8865  1.0593 -2.2004
  136OSM    C8F14825   3.924   1.880   7.260  0.5717 -0.0358  0.4892
  136OSM    H8F14826   3.913   1.832   7.360  0.4563 -1.4963 -0.1868
  136OSM    H8G14827   3.818   1.902   7.236  0.7638  1.0797  0.6283
  136OSM    C9F14828   3.982   2.015   7.254 -0.9632  0.3268 -0.8690
  136OSM    H9F14829   3.997   2.048   7.150 -1.1644 -2.8015 -1.9988
  136OSM   C10F14830   4.031   2.085   7.363  0.4348  1.0764 -0.0481
  136OSM   H10F14831   4.068   2.187   7.343  1.3301  0.7839  0.0514
  136OSM   C11F14832   4.039   2.042   7.512  0.2405  0.3335  0.2219
  136OSM   H11F14833   4.041   1.933   7.534  0.2818  0.2510 -0.1874
  136OSM   H11G14834   3.938   2.069   7.551 -1.0035 -2.9559 -0.3484
  136OSM   C12F14835   4.156   2.101   7.597 -0.0999  0.3227  0.6247
  136OSM   H12F14836   4.171   2.211   7.598  2.8453  0.0105  1.0526
  136OSM   H12G14837   4.251   2.068   7.550 -0.5602 -0.4651  0.2240
  136OSM   C13F14838   4.156   2.046   7.735 -0.0391  0.2991 -0.0302
  136OSM   H13F14839   4.257   2.060   7.779  1.7348 -1.1854 -3.3040
  136OSM   H13G14840   4.125   1.940   7.738 -0.2252  0.3667  1.1516
  136OSM   C14F14841   4.052   2.122   7.819 -1.0149  0.5000 -0.2109
  136OSM   H14F14842   3.950   2.100   7.783 -0.4337  0.0092 -1.6194
  136OSM   H14G14843   4.069   2.230   7.799  5.0553  0.1112  0.8581
  136OSM   C15F14844   4.061   2.078   7.968  0.0872  0.0001  0.0168
  136OSM   H15F14845   4.143   2.130   8.021 -2.2467  0.8192  3.0976
  136OSM   H15G14846   4.072   1.967   7.966 -1.3198 -0.1585 -1.2478
  136OSM   C16F14847   3.934   2.110   8.051  0.4418  0.0366  0.4543
  136OSM   H16F14848   3.950   2.048   8.142 -0.3382 -0.6748  0.1202
  136OSM   H16G14849   3.837   2.080   8.008  1.4632 -1.2319 -1.0665
  136OSM   C17F14850   3.928   2.259   8.081 -0.0987 -0.4677 -0.6987
  136OSM   H17F14851   3.907   2.305   7.982 -1.3272 -0.8156 -0.6226
  136OSM   H17G14852   4.024   2.297   8.121  0.1092  0.0771 -1.6869
  136OSM   C18F14853   3.816   2.285   8.185  0.1612 -0.7843  0.6611
  136OSM   H18F14854   3.719   2.245   8.148 -0.3047  1.0881 -0.3202
  136OSM   H18G14855   3.813   2.394   8.209  0.0728 -0.1830 -1.8083
  136OSM   H18H14856   3.830   2.234   8.282  1.5307 -0.8665  0.4359
  137OSM      N14857   0.136   3.356   6.090 -0.0130 -0.2020 -0.0001
  137OSM    C1514858   0.187   3.220   6.122 -0.0131  0.7150 -0.3206
  137OSM   H15A14859   0.245   3.221   6.213 -0.9791  1.6257  0.3215
  137OSM   H15B14860   0.257   3.188   6.047  1.6442  2.4101  0.4114
  137OSM   H15C14861   0.109   3.145   6.124 -0.1055  0.8044 -0.4749
  137OSM    C1414862   0.075   3.362   5.952 -0.4228  0.9132  0.9277
  137OSM   H14A14863   0.134   3.319   5.872 -3.2992  0.2565 -0.9907
  137OSM   H14B14864   0.040   3.460   5.923 -0.8979  0.8107  1.1383
  137OSM   H14C14865  -0.012   3.298   5.952  0.9259 -1.0291  1.9376
  137OSM    C1314866   0.037   3.386   6.192  0.1685  0.1758 -0.8396
  137OSM   H13A14867   0.087   3.407   6.285 -0.4506  0.3523 -0.5452
  137OSM   H13B14868  -0.038   3.308   6.201  1.1153 -0.7059 -0.3559
  137OSM   H13C14869  -0.012   3.482   6.181 -3.5372 -1.4865 -0.4370
  137OSM    C1214870   0.246   3.473   6.091  0.2419 -0.1331  1.0334
  137OSM   H12A14871   0.292   3.458   5.995 -1.3824 -0.2390  0.2228
  137OSM   H12B14872   0.321   3.458   6.167  1.4342  0.5604  0.0250
  137OSM    C1114873   0.207   3.618   6.124  0.4048  0.1512 -0.5209
  137OSM   H11A14874   0.111   3.631   6.070 -0.9794 -0.0521  1.7625
  137OSM   H11B14875   0.282   3.692   6.090  0.2948  0.6958  0.3804
  137OSM      P14876   0.258   3.630   6.366  0.1258  0.2054 -0.1647
  137OSM    O1314877   0.246   3.511   6.453 -0.1395 -0.3900 -0.0739
  137OSM    O1414878   0.396   3.652   6.317 -0.2498 -0.3631  0.5700
  137OSM    O1114879   0.220   3.771   6.434  0.2696  0.2352  0.2380
  137OSM    O1214880   0.154   3.630   6.256  0.3854  0.3058 -0.3714
  137OSM    C1S14881   0.090   3.786   6.494  0.2450  0.3753 -0.2633
  137OSM    H1S14882   0.013   3.708   6.479 -1.8596  1.5721  3.1808
  137OSM    H1T14883   0.055   3.883   6.452 -0.7913  0.3003  0.4040
  137OSM     NF14884  -0.035   3.845   6.705 -0.0835 -0.4390  1.2462
  137OSM    HNF14885  -0.041   3.943   6.725  1.2885  0.1008 -0.7464
  137OSM    C2S14886   0.094   3.805   6.654 -0.2813 -0.0901 -0.3112
  137OSM    H2S14887   0.128   3.708   6.697 -0.7727 -0.6993 -1.2755
  137OSM    C3S14888   0.208   3.908   6.689  0.3711  0.1913 -0.9563
  137OSM    H3S14889   0.198   4.004   6.633  1.7355  1.0338  0.1737
  137OSM     O314890   0.341   3.860   6.656 -0.7136 -0.0207 -0.1709
  137OSM    HO314891   0.324   3.816   6.573 -0.7822  0.7515 -0.5742
  137OSM    C4S14892   0.213   3.916   6.840 -0.0249 -0.4112 -0.5272
  137OSM    H4S14893   0.261   3.832   6.891  3.3175  0.5546 -1.8144
  137OSM    C5S14894   0.171   4.023   6.907  0.0419  0.3342 -0.0135
  137OSM    H5S14895   0.143   4.114   6.851 -0.6580  2.0169  2.8534
  137OSM    C6S14896   0.177   4.030   7.058  0.2655  0.1641  0.6199
  137OSM    H6S14897   0.072   4.039   7.092 -0.5983  2.3401 -2.2420
  137OSM    H6T14898   0.231   4.126   7.077 -0.2676  0.1877  2.1558
  137OSM    C7S14899   0.241   3.909   7.144 -0.2985 -0.6616  0.1663
  137OSM    H7S14900   0.351   3.919   7.133 -0.3134  2.1142  1.4408
  137OSM    H7T14901   0.207   3.815   7.096  0.3089 -0.3170 -0.9750
  137OSM    C8S14902   0.191   3.911   7.287 -0.0298  0.4501 -0.8516
  137OSM    H8S14903   0.085   3.877   7.291  0.5157 -1.2185  2.1122
  137OSM    H8T14904   0.195   4.016   7.322  1.6039 -0.2636  1.3109
  137OSM    C9S14905   0.269   3.807   7.368 -0.5775 -0.3210 -0.5391
  137OSM    H9S14906   0.379   3.804   7.354 -0.6231 -2.1504 -0.6620
  137OSM    H9T14907   0.242   3.703   7.339  2.8381 -1.1398 -1.1447
  137OSM   C10S14908   0.236   3.813   7.522  0.0559 -0.4946 -0.0957
  137OSM   H10S14909   0.126   3.809   7.531 -0.0644 -0.5811 -1.4205
  137OSM   H10T14910   0.260   3.914   7.564 -0.5279 -0.5907  0.4882
  137OSM   C11S14911   0.299   3.702   7.599 -0.7584 -0.3033 -0.6979
  137OSM   H11S14912   0.409   3.715   7.590 -0.7598 -0.8133 -1.5333
  137OSM   H11T14913   0.271   3.601   7.563  1.4066 -1.0677 -0.3926
  137OSM   C12S14914   0.262   3.707   7.750 -0.5505  0.2869  0.8577
  137OSM   H12S14915   0.162   3.657   7.746 -0.2446 -0.3093  0.3843
  137OSM   H12T14916   0.250   3.812   7.782  0.7487  0.9192 -0.6384
  137OSM   C13S14917   0.358   3.645   7.842 -0.4284  0.4366  0.0058
  137OSM   H13S14918   0.460   3.689   7.841  0.2125 -0.9395 -2.3152
  137OSM   H13T14919   0.382   3.539   7.817  0.3592  1.2564 -3.0472
  137OSM   C14S14920   0.316   3.652   7.994  0.6926  0.6858  1.0403
  137OSM   H14S14921   0.231   3.586   8.024 -1.6447  3.1370  0.2318
  137OSM   H14T14922   0.286   3.758   8.013  1.6189  0.7522  2.2755
  137OSM   C15S14923   0.431   3.618   8.090  0.7678 -0.5178 -0.3651
  137OSM   H15S14924   0.514   3.676   8.045  1.0617 -0.8013 -0.1877
  137OSM   H15T14925   0.465   3.516   8.064 -0.4476 -0.6872 -1.3842
  137OSM   C16S14926   0.403   3.643   8.241  0.1368 -0.6318  0.1336
  137OSM   H16S14927   0.330   3.562   8.261  0.9054 -1.3481  0.1254
  137OSM   H16T14928   0.360   3.742   8.270  1.4785 -0.3734  1.3834
  137OSM   C17S14929   0.521   3.611   8.340  0.0681  0.0777  0.5931
  137OSM   H17S14930   0.603   3.684   8.324 -0.3422  0.1477 -1.4948
  137OSM   H17T14931   0.554   3.508   8.313  1.4159  0.3230  1.1833
  137OSM   C18S14932   0.484   3.602   8.489 -0.6542 -0.0601 -0.4393
  137OSM   H18S14933   0.416   3.516   8.506 -0.4999 -0.1321 -0.1867
  137OSM   H18T14934   0.435   3.695   8.525  1.1396  0.4727  0.7426
  137OSM   H18U14935   0.580   3.586   8.543 -1.0651  1.2962  0.7488
  137OSM    C1F14936  -0.136   3.759   6.719 -0.7770 -0.5612  0.1773
  137OSM     OF14937  -0.138   3.644   6.669  0.0007 -0.3543 -0.3149
  137OSM    C2F14938  -0.250   3.803   6.804  1.2007 -0.2452 -0.0434
  137OSM    H2F14939  -0.341   3.759   6.759  0.9249  0.4951 -0.2207
  137OSM    H2G14940  -0.255   3.913   6.816  1.7229 -0.2673  0.4263
  137OSM    C3F14941  -0.229   3.751   6.946  1.1988 -0.9841 -0.2937
  137OSM    H3F14942  -0.134   3.783   6.995  0.2999 -1.0417  1.5528
  137OSM    H3G14943  -0.240   3.641   6.935  0.0752 -0.9618  0.4875
  137OSM    C4F14944  -0.348   3.791   7.047 -0.0878 -0.1339  0.2626
  137OSM    H4F14945  -0.450   3.769   7.009 -0.3334  0.4422  0.5713
  137OSM    H4G14946  -0.355   3.901   7.065 -0.9621  0.2488 -1.9919
  137OSM    C5F14947  -0.325   3.731   7.180  0.8558 -0.0051 -0.0716
  137OSM    H5F14948  -0.230   3.777   7.215  1.3623 -1.2485  0.2397
  137OSM    H5G14949  -0.310   3.623   7.156  0.4861  0.2786 -1.7417
  137OSM    C6F14950  -0.431   3.755   7.284  0.4326 -0.1373 -0.3364
  137OSM    H6F14951  -0.527   3.706   7.257 -0.6614  0.9907  1.3248
  137OSM    H6G14952  -0.449   3.864   7.285  0.6192 -0.1107  0.7257
  137OSM    C7F14953  -0.397   3.707   7.420 -0.3313 -0.2212  0.9990
  137OSM    H7F14954  -0.297   3.745   7.448  0.0095 -0.8339  0.6419
  137OSM    H7G14955  -0.381   3.598   7.432  2.6175 -0.0034 -0.1444
  137OSM    C8F14956  -0.492   3.760   7.537 -0.2147 -0.5170 -0.4396
  137OSM    H8F14957  -0.492   3.871   7.540  1.9227 -0.4759 -0.6704
  137OSM    H8G14958  -0.454   3.720   7.634  0.4282  2.8135  0.8253
  137OSM    C9F14959  -0.632   3.705   7.520  0.5332  0.1598 -0.6978
  137OSM    H9F14960  -0.680   3.743   7.428  0.0196  1.8971  0.2325
  137OSM   C10F14961  -0.712   3.639   7.607 -0.0076 -0.1706  0.4732
  137OSM   H10F14962  -0.809   3.610   7.566 -0.1156  1.3621 -0.4289
  137OSM   C11F14963  -0.683   3.583   7.746 -0.0105  0.1786 -0.1759
  137OSM   H11F14964  -0.669   3.655   7.830  0.8356 -1.9361  1.6036
  137OSM   H11G14965  -0.584   3.533   7.754  0.3726  1.1295  1.3886
  137OSM   C12F14966  -0.792   3.485   7.799  0.2254 -0.0303 -0.3043
  137OSM   H12F14967  -0.754   3.413   7.874 -0.8289 -0.9359 -0.6231
  137OSM   H12G14968  -0.807   3.416   7.713  1.9697  0.4148 -1.0253
  137OSM   C13F14969  -0.905   3.564   7.856  0.8337  0.4513  0.2673
  137OSM   H13F14970  -0.946   3.638   7.785 -1.4159 -0.3080  0.6889
  137OSM   H13G14971  -0.865   3.621   7.942  0.6873 -0.8468  1.2245
  137OSM   C14F14972  -1.019   3.470   7.905  0.2074  0.5151  0.3056
  137OSM   H14F14973  -0.973   3.372   7.928  0.3558  0.6688  0.6667
  137OSM   H14G14974  -1.083   3.445   7.817  1.2223 -1.1055 -0.0003
  137OSM   C15F14975  -1.089   3.541   8.022 -0.1783 -0.2642 -0.0240
  137OSM   H15F14976  -1.018   3.537   8.108 -1.0167 -2.8310  0.6393
  137OSM   H15G14977  -1.176   3.481   8.056  0.1296 -1.6786 -1.6105
  137OSM   C16F14978  -1.135   3.683   7.987 -0.3984 -0.0951 -0.4692
  137OSM   H16F14979  -1.217   3.673   7.913 -1.7640 -1.7350  1.1601
  137OSM   H16G14980  -1.047   3.743   7.956 -0.1577 -0.8147 -1.2260
  137OSM   C17F14981  -1.199   3.762   8.106  0.0936  0.5392  0.0329
  137OSM   H17F14982  -1.122   3.769   8.186  1.2596  1.7769 -1.1425
  137OSM   H17G14983  -1.283   3.697   8.135  1.8067 -1.8877 -0.1525
  137OSM   C18F14984  -1.247   3.899   8.054 -0.2498 -0.7220  0.0022
  137OSM   H18F14985  -1.317   3.944   8.127 -2.8384 -1.6397 -1.8014
  137OSM   H18G14986  -1.304   3.897   7.959 -1.2253 -0.3070  0.5697
  137OSM   H18H14987  -1.158   3.966   8.048 -0.6626 -0.2132 -0.6599
  138OSM      N14988   1.095   5.245   6.283 -0.2365 -0.1970 -0.0102
  138OSM    C1514989   1.107   5.378   6.214  0.2224 -0.2408  0.5591
  138OSM   H15A14990   1.206   5.380   6.172  1.1539  0.5921  2.6723
  138OSM   H15B14991   1.094   5.462   6.280  0.0202  1.3399 -1.4179
  138OSM   H15C14992   1.028   5.394   6.142  0.1822 -0.9139  0.4416
  138OSM    C1414993   1.098   5.138   6.176 -0.2663  0.5870 -0.7634
  138OSM   H14A14994   1.095   5.036   6.212 -1.8626  1.2942  1.2667
  138OSM   H14B14995   1.175   5.142   6.100  0.4639  0.7553 -0.0359
  138OSM   H14C14996   1.003   5.150   6.127 -0.6964 -0.1712 -0.1397
  138OSM    C1314997   1.215   5.227   6.380  0.0077 -0.3285  0.2415
  138OSM   H13A14998   1.220   5.305   6.456  1.0167 -1.2251  1.1360
  138OSM   H13B14999   1.309   5.223   6.327  0.8629  1.1344  1.5680
  138OSM   H13C15000   1.204   5.128   6.421  0.1682 -1.4012 -2.1774
  138OSM    C1215001   0.959   5.243   6.345  0.3704  0.0899 -0.1321
  138OSM   H12A15002   0.954   5.334   6.403  0.9828  0.4084 -0.5702
  138OSM   H12B15003   0.951   5.172   6.425 -0.0326  0.4668  0.1688
  138OSM    C1115004   0.830   5.219   6.255 -0.5224  0.4901  0.9416
  138OSM   H11A15005   0.732   5.196   6.302 -1.9057 -0.0581 -1.9403
  138OSM   H11B15006   0.853   5.125   6.200  1.3361  0.2904  1.9744
  138OSM      P15007   0.758   5.463   6.210  0.4350 -0.4374  0.0682
  138OSM    O1315008   0.851   5.569   6.187 -0.1754 -0.2716 -0.1005
  138OSM    O1415009   0.624   5.488   6.150 -0.1301  0.9970  0.0297
  138OSM    O1115010   0.740   5.450   6.359  0.1411  0.6511 -0.3449
  138OSM    O1215011   0.818   5.321   6.154 -0.1540 -0.4454 -0.3041
  138OSM    C1S15012   0.625   5.476   6.439  0.1210 -0.4475 -0.2666
  138OSM    H1S15013   0.538   5.418   6.400 -0.8261  0.0457  1.0323
  138OSM    H1T15014   0.606   5.585   6.440  2.0845 -0.0803 -0.1203
  138OSM     NF15015   0.514   5.408   6.654  0.4623 -0.1462 -0.3348
  138OSM    HNF15016   0.483   5.485   6.709  0.2581 -1.1785  1.0259
  138OSM    C2S15017   0.641   5.424   6.587 -0.0277  0.2651  0.1493
  138OSM    H2S15018   0.684   5.321   6.585  0.0148  0.2872 -0.2572
  138OSM    C3S15019   0.743   5.523   6.662  0.3534 -0.1394 -0.7532
  138OSM    H3S15020   0.705   5.627   6.662  0.3718 -0.1283 -0.0119
  138OSM     O315021   0.873   5.524   6.609  0.1671 -0.5502 -0.0710
  138OSM    HO315022   0.861   5.462   6.536 -0.1209  0.1247 -0.6009
  138OSM    C4S15023   0.755   5.471   6.808  0.9181  0.2340  0.4005
  138OSM    H4S15024   0.801   5.372   6.821  0.4330  0.1591  1.6977
  138OSM    C5S15025   0.720   5.538   6.917 -0.0247  0.3408 -0.8827
  138OSM    H5S15026   0.673   5.637   6.912  0.2256  0.5092 -0.1357
  138OSM    C6S15027   0.730   5.485   7.058  0.4562  0.0104 -0.1300
  138OSM    H6S15028   0.830   5.509   7.101  0.6298 -1.8474  0.5982
  138OSM    H6T15029   0.720   5.375   7.048 -0.0284  0.0714 -0.3398
  138OSM    C7S15030   0.621   5.538   7.154  0.1991  0.1012 -0.0629
  138OSM    H7S15031   0.518   5.504   7.132  0.1003  0.2251  0.2110
  138OSM    H7T15032   0.619   5.649   7.160 -0.6326  0.0229  1.6339
  138OSM    C8S15033   0.654   5.489   7.301  0.6572 -0.6522  0.0719
  138OSM    H8S15034   0.756   5.529   7.321  1.1454  0.1885 -3.3705
  138OSM    H8T15035   0.661   5.379   7.305 -1.2089 -0.7820  0.5274
  138OSM    C9S15036   0.537   5.525   7.399  0.1155 -0.5552 -0.0327
  138OSM    H9S15037   0.447   5.474   7.360 -0.9685  1.3216 -0.1165
  138OSM    H9T15038   0.517   5.634   7.397  0.2585 -0.5342 -0.3048
  138OSM   C10S15039   0.581   5.483   7.543  0.3559  0.3960  0.3876
  138OSM   H10S15040   0.674   5.534   7.578  0.1842  1.7232 -0.9916
  138OSM   H10T15041   0.581   5.372   7.550 -1.6003  0.2766 -0.8502
  138OSM   C11S15042   0.480   5.536   7.643  0.3053 -0.4590  0.4585
  138OSM   H11S15043   0.387   5.476   7.633  0.7205 -1.0152 -0.1167
  138OSM   H11T15044   0.453   5.644   7.637  0.6045 -0.4053  0.0594
  138OSM   C12S15045   0.544   5.532   7.785 -0.6865  0.1549  0.1392
  138OSM   H12S15046   0.629   5.603   7.795 -0.1676 -0.2914 -0.9703
  138OSM   H12T15047   0.586   5.432   7.809  2.1021  1.3215  0.4790
  138OSM   C13S15048   0.447   5.587   7.895 -0.6642 -0.3866  0.3966
  138OSM   H13S15049   0.347   5.545   7.870  0.6735 -2.0585 -2.7652
  138OSM   H13T15050   0.443   5.697   7.884 -1.1382 -0.4840 -0.5452
  138OSM   C14S15051   0.491   5.555   8.040 -0.0613 -0.3915  0.2222
  138OSM   H14S15052   0.598   5.587   8.042  0.1777 -1.1927  0.8909
  138OSM   H14T15053   0.495   5.444   8.053 -0.0520 -0.6967 -2.0079
  138OSM   C15S15054   0.390   5.603   8.143 -0.0205 -0.3682 -0.6727
  138OSM   H15S15055   0.316   5.521   8.154 -0.7091  0.1866 -1.0782
  138OSM   H15T15056   0.345   5.701   8.117  2.6949  1.1324 -0.0438
  138OSM   C16S15057   0.458   5.631   8.278 -0.1450  0.0702 -0.0488
  138OSM   H16S15058   0.541   5.703   8.258  0.0611  0.0893  0.8367
  138OSM   H16T15059   0.491   5.537   8.327 -0.9552 -0.0997  0.1756
  138OSM   C17S15060   0.365   5.684   8.394 -0.0408  0.4921 -0.0999
  138OSM   H17S15061   0.276   5.620   8.415  0.1974 -0.3833 -1.5822
  138OSM   H17T15062   0.324   5.774   8.343 -1.7418 -0.6676 -0.8722
  138OSM   C18S15063   0.433   5.722   8.523 -0.2659 -0.1539 -0.0572
  138OSM   H18S15064   0.538   5.755   8.508 -1.1289  1.9722 -2.0299
  138OSM   H18T15065   0.435   5.644   8.602  0.2307  0.5001  0.5958
  138OSM   H18U15066   0.392   5.813   8.572  2.1598  0.7589  0.4492
  138OSM    C1F15067   0.421   5.326   6.602  0.0854  0.7077 -0.4703
  138OSM     OF15068   0.451   5.226   6.533 -0.2630 -0.6225 -0.4076
  138OSM    C2F15069   0.282   5.363   6.631 -1.1639 -0.0326  0.3535
  138OSM    H2F15070   0.219   5.351   6.539 -1.5666  1.1533  0.4534
  138OSM    H2G15071   0.292   5.468   6.664  0.6310  0.0520 -0.3795
  138OSM    C3F15072   0.234   5.282   6.754  0.1718  1.0304  0.5877
  138OSM    H3F15073   0.291   5.309   6.846 -1.2200 -1.1539  2.1902
  138OSM    H3G15074   0.246   5.173   6.743 -1.0530  0.8414  1.0029
  138OSM    C4F15075   0.088   5.309   6.786 -0.2506  0.2444 -0.1161
  138OSM    H4F15076   0.025   5.263   6.707  0.4931 -0.9323 -0.0529
  138OSM    H4G15077   0.066   5.418   6.788 -2.5635 -0.1755  0.6681
  138OSM    C5F15078   0.030   5.245   6.912 -0.1951  0.0783  0.0211
  138OSM    H5F15079   0.086   5.300   6.991 -0.4722 -2.2301  1.9503
  138OSM    H5G15080   0.056   5.137   6.914 -0.1704  0.0516 -1.1268
  138OSM    C6F15081  -0.115   5.275   6.924  0.1040 -0.1110 -0.2657
  138OSM    H6F15082  -0.188   5.211   6.869  0.7895 -2.1113  1.0481
  138OSM    H6G15083  -0.120   5.382   6.896  1.5963  0.4971  1.5925
  138OSM    C7F15084  -0.160   5.270   7.073 -0.6690  0.2104  0.5126
  138OSM    H7F15085  -0.121   5.356   7.130 -0.5897  1.8297 -1.8332
  138OSM    H7G15086  -0.102   5.184   7.113  1.0608  1.5181  0.9181
  138OSM    C8F15087  -0.309   5.257   7.095  0.0777  0.1029 -0.6080
  138OSM    H8F15088  -0.306   5.231   7.203 -0.1979  0.6292 -0.4706
  138OSM    H8G15089  -0.345   5.170   7.037 -0.6851  0.9406 -1.4237
  138OSM    C9F15090  -0.375   5.388   7.065  0.5006  0.1427  0.5173
  138OSM    H9F15091  -0.343   5.436   6.971  0.0959 -0.9661 -0.1972
  138OSM   C10F15092  -0.450   5.457   7.154  0.1524 -0.5737  0.0706
  138OSM   H10F15093  -0.507   5.544   7.118 -1.2784 -1.4646  0.0875
  138OSM   C11F15094  -0.481   5.421   7.286  0.3149  0.6222 -0.4700
  138OSM   H11F15095  -0.497   5.311   7.290 -0.2543  0.7379  1.7346
  138OSM   H11G15096  -0.578   5.470   7.309  0.3275  0.7260 -0.6443
  138OSM   C12F15097  -0.360   5.460   7.378  0.1124 -0.1406  0.2662
  138OSM   H12F15098  -0.344   5.568   7.360 -0.4536 -0.0415  0.3392
  138OSM   H12G15099  -0.275   5.391   7.359 -0.3344 -0.4036 -0.9175
  138OSM   C13F15100  -0.405   5.431   7.527 -0.5753 -0.0143  0.5791
  138OSM   H13F15101  -0.436   5.326   7.548 -1.2028  0.2156  0.8299
  138OSM   H13G15102  -0.501   5.479   7.557 -0.6537  0.4839 -0.4060
  138OSM   C14F15103  -0.279   5.463   7.621 -0.1068  0.6330 -0.2488
  138OSM   H14F15104  -0.250   5.569   7.613  1.4492  0.1792 -1.0749
  138OSM   H14G15105  -0.198   5.403   7.575 -1.4079  0.1314 -1.9820
  138OSM   C15F15106  -0.310   5.432   7.769  0.2013 -0.1289  0.5128
  138OSM   H15F15107  -0.351   5.329   7.770  2.4524 -1.1048 -0.4751
  138OSM   H15G15108  -0.382   5.510   7.803 -0.8947 -0.1933 -1.5028
  138OSM   C16F15109  -0.186   5.450   7.858 -0.8154  0.1329 -0.0578
  138OSM   H16F15110  -0.181   5.560   7.875 -0.0222  0.0030  0.6350
  138OSM   H16G15111  -0.092   5.414   7.811 -1.9552  0.3457 -2.6371
  138OSM   C17F15112  -0.192   5.373   7.994  0.2233 -0.3162  0.1252
  138OSM   H17F15113  -0.182   5.264   7.977 -0.0237 -0.3625  0.2638
  138OSM   H17G15114  -0.299   5.388   8.022  0.8403 -0.7972  3.1216
  138OSM   C18F15115  -0.092   5.413   8.108  0.2031  0.2282 -0.1241
  138OSM   H18F15116   0.004   5.448   8.063 -0.2954 -0.5147 -1.8466
  138OSM   H18G15117  -0.085   5.322   8.172  0.0685 -0.3741 -0.9508
  138OSM   H18H15118  -0.130   5.499   8.167  1.2986 -0.2037  1.2686
  139OSM      N15119   5.754   6.628   6.195  0.3357  0.0372  0.1647
  139OSM    C1515120   5.723   6.555   6.317 -0.0702 -0.3632  0.1252
  139OSM   H15A15121   5.636   6.491   6.302 -1.2342  0.6579  2.0538
  139OSM   H15B15122   5.694   6.621   6.398 -2.2841 -1.2063  0.1059
  139OSM   H15C15123   5.812   6.500   6.344 -0.0702 -1.5522 -2.0604
  139OSM    C1415124   5.646   6.716   6.158  0.7748  0.0139  0.0103
  139OSM   H14A15125   5.649   6.755   6.057  0.5807  2.5567  0.9369
  139OSM   H14B15126   5.641   6.805   6.219 -1.1409  0.0207 -0.0821
  139OSM   H14C15127   5.550   6.668   6.174  1.4968 -1.2633  0.6752
  139OSM    C1315128   5.886   6.709   6.198  0.2089  0.1548 -0.9209
  139OSM   H13A15129   5.963   6.640   6.230 -0.5832  0.4864  2.0001
  139OSM   H13B15130   5.883   6.789   6.271  0.7328 -0.9249  0.3270
  139OSM   H13C15131   5.913   6.755   6.104 -0.0306  0.6443 -0.7560
  139OSM    C1215132   5.763   6.523   6.082  0.5752 -0.2214  0.4853
  139OSM   H12A15133   5.767   6.579   5.989 -0.5573  0.9224  1.1073
  139OSM   H12B15134   5.668   6.473   6.072  0.9180 -0.5110 -2.0145
  139OSM    C1115135   5.884   6.423   6.095 -0.4032 -0.1943  0.2090
  139OSM   H11A15136   5.965   6.499   6.088 -2.7480  2.6723  1.7705
  139OSM   H11B15137   5.888   6.352   6.010 -0.2248  1.2619 -1.0446
  139OSM      P15138   6.010   6.271   6.262 -0.3545  0.3803 -0.0973
  139OSM    O1315139   6.016   6.127   6.212  0.4347  0.4358  0.3192
  139OSM    O1415140   6.131   6.346   6.225 -0.4701  0.0140 -0.1251
  139OSM    O1115141   5.986   6.268   6.416  0.1665  0.2289  0.2583
  139OSM    O1215142   5.878   6.350   6.215  0.5176 -0.3840 -0.3717
  139OSM    C1S15143   5.858   6.216   6.471 -0.2274 -0.1572  0.2733
  139OSM    H1S15144   5.871   6.107   6.456  1.4087  0.3140 -2.4271
  139OSM    H1T15145   5.772   6.250   6.410 -0.3418  0.1375  0.5957
  139OSM     NF15146   5.693   6.163   6.649 -0.0660  0.0768 -0.0164
  139OSM    HNF15147   5.628   6.214   6.705 -0.2056 -0.2785  0.1451
  139OSM    C2S15148   5.824   6.235   6.619 -0.4889 -0.5396 -0.5136
  139OSM    H2S15149   5.904   6.192   6.683  0.0900  2.4425  0.9475
  139OSM    C3S15150   5.814   6.381   6.655 -0.0067  0.1021  0.5381
  139OSM    H3S15151   5.725   6.420   6.602  0.9060  2.8925  0.9156
  139OSM     O315152   5.917   6.462   6.600  0.1403  0.1925 -0.7175
  139OSM    HO315153   5.954   6.408   6.530  0.1440 -0.9829  0.1709
  139OSM    C4S15154   5.798   6.401   6.804  0.4273  1.3166 -0.6226
  139OSM    H4S15155   5.869   6.344   6.866 -0.8461 -0.4444 -0.7252
  139OSM    C5S15156   5.692   6.463   6.861 -0.5689  0.0215  0.2801
  139OSM    H5S15157   5.619   6.521   6.803 -1.1241 -2.1052 -1.2514
  139OSM    C6S15158   5.690   6.473   7.010  0.3219 -0.0808  0.0684
  139OSM    H6S15159   5.631   6.565   7.030  1.8578  1.0250 -0.3349
  139OSM    H6T15160   5.792   6.491   7.050  0.7406  1.7174 -1.6881
  139OSM    C7S15161   5.628   6.352   7.093  0.5435 -0.1209 -0.3085
  139OSM    H7S15162   5.698   6.268   7.113 -0.6282 -1.2809 -0.9840
  139OSM    H7T15163   5.540   6.321   7.033  0.2161  1.9444 -0.9736
  139OSM    C8S15164   5.580   6.399   7.227 -0.1847  0.3105  0.6135
  139OSM    H8S15165   5.480   6.355   7.247  0.2049 -0.5042  0.8206
  139OSM    H8T15166   5.563   6.508   7.215 -0.8307 -0.0201 -2.3056
  139OSM    C9S15167   5.680   6.368   7.332  0.7652 -0.1437  0.2548
  139OSM    H9S15168   5.776   6.414   7.301 -0.1622  0.9297 -1.1468
  139OSM    H9T15169   5.696   6.260   7.352  1.1205 -0.2806 -0.6791
  139OSM   C10S15170   5.633   6.446   7.459  0.7075  0.3164  0.5321
  139OSM   H10S15171   5.547   6.385   7.492 -0.6009  1.0434 -1.3595
  139OSM   H10T15172   5.596   6.547   7.431  0.2477  0.3419  1.2328
  139OSM   C11S15173   5.740   6.452   7.566  1.0629  0.1038 -0.3126
  139OSM   H11S15174   5.829   6.508   7.531  1.9833 -1.4412 -0.5198
  139OSM   H11T15175   5.771   6.354   7.608  2.9609  1.8542  2.7498
  139OSM   C12S15176   5.674   6.523   7.693 -0.2003 -0.9496  0.0037
  139OSM   H12S15177   5.671   6.632   7.668  0.0620 -1.0681 -0.5498
  139OSM   H12T15178   5.760   6.516   7.764 -0.5211  0.8237  0.6204
  139OSM   C13S15179   5.539   6.470   7.734  0.4170 -0.0496  0.1314
  139OSM   H13S15180   5.527   6.361   7.722  0.9348 -0.0758 -0.1599
  139OSM   H13T15181   5.462   6.502   7.661 -0.0194  0.6271  0.8741
  139OSM   C14S15182   5.492   6.509   7.877  0.5769  0.6734  0.6208
  139OSM   H14S15183   5.382   6.496   7.888  0.4777  1.2787  0.3889
  139OSM   H14T15184   5.514   6.618   7.890 -1.1063  1.1057  0.1795
  139OSM   C15S15185   5.549   6.408   7.987  0.0710 -0.4257  0.5251
  139OSM   H15S15186   5.658   6.427   7.993  0.6500 -2.8035 -0.9198
  139OSM   H15T15187   5.542   6.302   7.953 -0.6501 -0.4800  0.8333
  139OSM   C16S15188   5.485   6.438   8.121 -0.0165  0.4419 -0.1793
  139OSM   H16S15189   5.379   6.405   8.114  0.6989 -1.8232 -1.8622
  139OSM   H16T15190   5.510   6.544   8.142 -2.0225  1.0877 -0.8324
  139OSM   C17S15191   5.557   6.351   8.222 -0.9725  0.5822 -1.0060
  139OSM   H17S15192   5.666   6.371   8.228 -0.6381 -1.3599 -0.1562
  139OSM   H17T15193   5.548   6.248   8.183  1.7192 -0.0773 -0.0881
  139OSM   C18S15194   5.508   6.359   8.366 -0.4064  0.0136 -0.4917
  139OSM   H18S15195   5.398   6.346   8.373 -0.4143  0.7666  1.7707
  139OSM   H18T15196   5.526   6.455   8.418  1.3334 -0.8505  0.6387
  139OSM   H18U15197   5.556   6.289   8.438 -1.6496  0.3176  0.6854
  139OSM    C1F15198   5.675   6.032   6.648 -0.5682 -0.1402  0.1803
  139OSM     OF15199   5.769   5.955   6.629 -0.4119 -0.5953 -0.5388
  139OSM    C2F15200   5.535   5.982   6.681  0.2237 -0.1651 -0.1860
  139OSM    H2F15201   5.488   5.953   6.584  2.1127 -1.4238 -0.7903
  139OSM    H2G15202   5.474   6.066   6.721 -1.1353  0.0991 -2.5914
  139OSM    C3F15203   5.519   5.867   6.782 -0.1834 -0.1038 -0.1294
  139OSM    H3F15204   5.567   5.775   6.744 -0.2415 -1.1911  2.2516
  139OSM    H3G15205   5.410   5.871   6.803 -0.1281  0.8683  0.0331
  139OSM    C4F15206   5.593   5.915   6.909  0.0327  0.1224  0.0955
  139OSM    H4F15207   5.577   6.025   6.905  1.1307  0.3333  0.9569
  139OSM    H4G15208   5.702   5.898   6.894 -0.2804  0.0095 -2.2858
  139OSM    C5F15209   5.529   5.860   7.034  0.3389  0.4607 -0.5484
  139OSM    H5F15210   5.521   5.749   7.028  0.8535  0.4104 -0.3251
  139OSM    H5G15211   5.428   5.903   7.050  1.2452  2.3083  0.5517
  139OSM    C6F15212   5.622   5.881   7.161  0.3762 -0.2298  0.4209
  139OSM    H6F15213   5.640   5.991   7.167 -1.1067  0.0301  0.5404
  139OSM    H6G15214   5.724   5.840   7.147  0.0902 -1.1038  0.8403
  139OSM    C7F15215   5.557   5.826   7.292 -0.1015 -0.0175 -0.5489
  139OSM    H7F15216   5.537   5.719   7.272  3.3404 -1.3385  2.1006
  139OSM    H7G15217   5.455   5.862   7.319 -1.3647 -2.6407 -1.4788
  139OSM    C8F15218   5.629   5.837   7.430  0.7712  0.6538 -0.1792
  139OSM    H8F15219   5.722   5.779   7.451 -0.0878  0.5731  4.3691
  139OSM    H8G15220   5.552   5.793   7.497 -0.5050 -0.0555 -2.0146
  139OSM    C9F15221   5.661   5.977   7.468  0.8225  0.1874  0.5672
  139OSM    H9F15222   5.666   6.057   7.394  1.1857 -1.3226 -1.1208
  139OSM   C10F15223   5.655   6.017   7.600  0.2415 -0.2991 -0.1103
  139OSM   H10F15224   5.681   6.122   7.618 -0.2612  0.3194 -2.6039
  139OSM   C11F15225   5.631   5.942   7.730 -0.4558  0.2153  0.1739
  139OSM   H11F15226   5.646   5.833   7.711  1.4656  0.3675  0.5733
  139OSM   H11G15227   5.529   5.946   7.773 -0.2535  1.5019  0.5688
  139OSM   C12F15228   5.732   5.987   7.843  0.6236  0.4021 -0.2699
  139OSM   H12F15229   5.724   6.098   7.855  1.0585  0.5026 -0.8621
  139OSM   H12G15230   5.839   5.967   7.822  0.3405 -0.9299 -0.4918
  139OSM   C13F15231   5.700   5.921   7.979 -0.3297  0.2410 -0.0566
  139OSM   H13F15232   5.715   5.811   7.969 -2.0899  0.1839 -4.0521
  139OSM   H13G15233   5.590   5.932   7.986 -0.2112  1.4088  0.2719
  139OSM   C14F15234   5.780   5.972   8.106  0.2287 -0.8646  0.5419
  139OSM   H14F15235   5.756   6.080   8.114  1.5958 -0.4285 -0.9178
  139OSM   H14G15236   5.889   5.972   8.087  0.7007  2.4393  2.4374
  139OSM   C15F15237   5.741   5.911   8.241 -0.1067 -0.6474 -0.5312
  139OSM   H15F15238   5.770   5.804   8.233 -0.0010 -0.8704  2.0267
  139OSM   H15G15239   5.636   5.934   8.268  1.3253  2.7094  3.2769
  139OSM   C16F15240   5.829   5.963   8.353  0.0550  0.6240  0.0367
  139OSM   H16F15241   5.803   6.070   8.367 -0.5025  0.5051 -0.0757
  139OSM   H16G15242   5.935   5.942   8.328 -0.6113 -2.2822 -0.7849
  139OSM   C17F15243   5.787   5.888   8.485  0.0889 -0.4331  1.5474
  139OSM   H17F15244   5.820   5.783   8.471 -0.2588 -0.1899 -1.9894
  139OSM   H17G15245   5.676   5.890   8.488 -0.0128 -1.7049  0.0806
  139OSM   C18F15246   5.851   5.932   8.615  0.0701 -0.5255  0.2250
  139OSM   H18F15247   5.962   5.920   8.616 -0.0821 -3.4154 -2.4131
  139OSM   H18G15248   5.826   5.867   8.701  2.5074 -0.7601  0.8194
  139OSM   H18H15249   5.825   6.036   8.645 -1.3976 -1.1377  1.1355
  140OSM      N15250   0.970   2.604   6.122 -0.1117 -0.1764  0.1998
  140OSM    C1515251   1.020   2.723   6.199 -0.2463  0.2964  0.2479
  140OSM   H15A15252   1.022   2.698   6.304 -0.7063  1.2896  0.5067
  140OSM   H15B15253   0.971   2.816   6.172  0.9154  0.3774 -1.7740
  140OSM   H15C15254   1.124   2.738   6.174  0.7079 -0.7218  3.1790
  140OSM    C1415255   0.825   2.589   6.135 -0.2198 -0.4140  0.6177
  140OSM   H14A15256   0.778   2.553   6.046 -0.0597 -2.6063  1.3655
  140OSM   H14B15257   0.781   2.679   6.175  1.6011  0.2091  1.3567
  140OSM   H14C15258   0.789   2.519   6.209  0.3498  0.6267  1.9319
  140OSM    C1315259   0.999   2.630   5.977  0.1327  0.1020 -0.1734
  140OSM   H13A15260   0.973   2.548   5.911 -1.6535  0.0320  0.5783
  140OSM   H13B15261   1.106   2.643   5.969 -0.0578  3.1806  1.1779
  140OSM   H13C15262   0.948   2.714   5.934 -0.3758 -1.1662 -2.1739
  140OSM    C1215263   1.028   2.474   6.161  0.0900 -0.5125  0.1482
  140OSM   H12A15264   1.136   2.480   6.159  0.1818 -0.2720  2.7060
  140OSM   H12B15265   0.985   2.399   6.096  0.1386 -2.5646  2.3378
  140OSM    C1115266   0.998   2.409   6.295 -0.5520  0.4160  0.2478
  140OSM   H11A15267   1.041   2.482   6.366 -0.5973  0.0036  0.7105
  140OSM   H11B15268   1.051   2.313   6.313 -1.1484  0.2953  1.4676
  140OSM      P15269   0.775   2.272   6.321 -0.0194 -0.1529  0.1736
  140OSM    O1315270   0.642   2.297   6.368  0.3779 -0.7208 -0.2866
  140OSM    O1415271   0.797   2.229   6.182  0.4402 -0.0867 -0.0060
  140OSM    O1115272   0.837   2.171   6.416 -0.6029 -0.0709  0.4381
  140OSM    O1215273   0.859   2.402   6.329 -0.2622  0.3384  0.2816
  140OSM    C1S15274   0.881   2.211   6.551 -0.6844 -0.3734 -0.0269
  140OSM    H1S15275   0.880   2.321   6.565  0.2217 -0.2879 -0.4815
  140OSM    H1T15276   0.987   2.180   6.567 -0.0803  1.5111 -0.1033
  140OSM     NF15277   0.854   2.199   6.790  0.0274  0.2883  0.6312
  140OSM    HNF15278   0.928   2.155   6.840 -1.1498  0.2985  2.4776
  140OSM    C2S15279   0.807   2.144   6.664  0.2750  0.4516 -0.0018
  140OSM    H2S15280   0.698   2.168   6.663  0.4918  1.8662  2.4479
  140OSM    C3S15281   0.824   1.993   6.656 -0.2351  0.6061 -0.2558
  140OSM    H3S15282   0.935   1.983   6.664 -0.1646  1.8443  0.5493
  140OSM     O315283   0.797   1.932   6.528 -0.5378  0.1239  0.0636
  140OSM    HO315284   0.806   2.006   6.468  0.7970 -1.1493 -1.4065
  140OSM    C4S15285   0.752   1.915   6.765 -0.4888 -0.3652  0.2432
  140OSM    H4S15286   0.808   1.907   6.859 -0.4911  0.2712  0.3047
  140OSM    C5S15287   0.634   1.848   6.749 -0.1152 -1.0815 -0.5790
  140OSM    H5S15288   0.583   1.865   6.653  0.9984 -0.6196 -1.1178
  140OSM    C6S15289   0.549   1.771   6.846 -0.1169 -0.9040 -0.1625
  140OSM    H6S15290   0.517   1.670   6.813 -3.7465 -0.3321  1.1375
  140OSM    H6T15291   0.451   1.823   6.849  0.0924 -0.5101 -0.1091
  140OSM    C7S15292   0.611   1.757   6.992  0.5761  0.0093  0.3888
  140OSM    H7S15293   0.650   1.858   7.018  2.1016 -0.2073 -0.8889
  140OSM    H7T15294   0.700   1.692   7.004  1.1558  0.7991  0.4482
  140OSM    C8S15295   0.507   1.727   7.106 -0.2340 -0.1191  0.0509
  140OSM    H8S15296   0.490   1.617   7.104  1.9791 -0.5270 -2.3693
  140OSM    H8T15297   0.412   1.782   7.095 -0.5108 -0.3854  1.0226
  140OSM    C9S15298   0.577   1.755   7.235  0.9681 -0.5042  0.4860
  140OSM    H9S15299   0.617   1.859   7.235  0.1106 -0.1398  2.2546
  140OSM    H9T15300   0.672   1.698   7.249 -0.1140 -1.7774  3.4184
  140OSM   C10S15301   0.485   1.751   7.366  0.0019  0.1523  0.2644
  140OSM   H10S15302   0.430   1.655   7.363 -0.8780  0.6580 -0.0671
  140OSM   H10T15303   0.403   1.825   7.354  1.8764  2.3369  0.2332
  140OSM   C11S15304   0.561   1.761   7.504  0.0468 -0.3752  0.1450
  140OSM   H11S15305   0.588   1.868   7.515  1.1029 -0.6913  0.7653
  140OSM   H11T15306   0.649   1.694   7.501  0.1503 -0.2806  0.9606
  140OSM   C12S15307   0.471   1.728   7.622 -0.7166 -0.5431 -0.6820
  140OSM   H12S15308   0.446   1.620   7.611 -2.0491 -0.3970  0.6088
  140OSM   H12T15309   0.372   1.777   7.607 -1.0549 -2.0901 -4.8061
  140OSM   C13S15310   0.534   1.738   7.768  0.3568  0.7747  0.1755
  140OSM   H13S15311   0.588   1.836   7.771  2.7250 -0.4544 -0.2870
  140OSM   H13T15312   0.607   1.655   7.777 -0.5639 -0.0752 -0.0674
  140OSM   C14S15313   0.432   1.717   7.885  0.5629  0.3279 -0.5933
  140OSM   H14S15314   0.368   1.627   7.878  0.3247  0.5845 -2.0593
  140OSM   H14T15315   0.364   1.804   7.896 -1.4155 -1.3498  1.2574
  140OSM   C15S15316   0.514   1.696   8.010 -0.6455 -0.0161 -0.3057
  140OSM   H15S15317   0.457   1.714   8.104 -0.8670 -2.4796  0.0872
  140OSM   H15T15318   0.595   1.772   8.022 -1.9568  1.4388 -0.4454
  140OSM   C16S15319   0.572   1.550   8.032  0.0355  0.1072  0.2281
  140OSM   H16S15320   0.644   1.533   7.949 -1.3632 -0.6256 -0.8829
  140OSM   H16T15321   0.489   1.476   8.034  0.1525 -0.0070  1.7211
  140OSM   C17S15322   0.634   1.541   8.172 -0.4048 -0.1560  0.2843
  140OSM   H17S15323   0.556   1.551   8.251 -0.3354 -0.4956  0.3937
  140OSM   H17T15324   0.709   1.623   8.176  0.5249 -0.9648 -0.1462
  140OSM   C18S15325   0.710   1.412   8.213 -0.1856  0.0333 -0.3054
  140OSM   H18S15326   0.808   1.423   8.161 -0.4812 -0.7720 -1.0595
  140OSM   H18T15327   0.658   1.322   8.174 -1.6272  1.2053 -1.2123
  140OSM   H18U15328   0.722   1.417   8.323  0.2642  1.0924 -0.3882
  140OSM    C1F15329   0.818   2.318   6.835 -0.1345  0.5580 -0.3010
  140OSM     OF15330   0.724   2.383   6.792 -0.0823  0.0444  0.6555
  140OSM    C2F15331   0.911   2.366   6.942  0.2721 -0.3384 -0.1591
  140OSM    H2F15332   1.002   2.392   6.884  0.7931  0.1195  0.8434
  140OSM    H2G15333   0.935   2.276   7.002 -0.3809 -0.5162 -0.1509
  140OSM    C3F15334   0.847   2.473   7.035  0.3022 -0.2780 -0.5098
  140OSM    H3F15335   0.748   2.432   7.064 -0.4400  0.5301 -1.8476
  140OSM    H3G15336   0.834   2.570   6.983  0.4212 -0.7034 -1.3501
  140OSM    C4F15337   0.907   2.490   7.172  0.0569 -0.2083  0.0512
  140OSM    H4F15338   1.000   2.547   7.153 -2.1700  2.8777 -2.7163
  140OSM    H4G15339   0.942   2.394   7.216 -0.4828 -0.5447 -0.2345
  140OSM    C5F15340   0.822   2.569   7.272  0.3228  1.1994  0.0609
  140OSM    H5F15341   0.723   2.520   7.280  0.7383  0.4791  1.0529
  140OSM    H5G15342   0.798   2.671   7.235 -1.0123  0.4697 -1.1558
  140OSM    C6F15343   0.880   2.577   7.416  0.8915 -0.1582 -0.4716
  140OSM    H6F15344   0.815   2.649   7.471  3.9191  1.9396  0.5843
  140OSM    H6G15345   0.980   2.624   7.415  1.2061 -0.7018  1.4000
  140OSM    C7F15346   0.888   2.439   7.488 -0.8705  0.2548  0.7365
  140OSM    H7F15347   0.965   2.377   7.437 -1.8589 -1.1652  0.9308
  140OSM    H7G15348   0.793   2.382   7.496 -0.1185 -1.5548 -1.8347
  140OSM    C8F15349   0.941   2.459   7.631 -0.6353  0.2096 -0.0745
  140OSM    H8F15350   1.025   2.531   7.639  0.1027 -0.8530  3.6803
  140OSM    H8G15351   0.977   2.358   7.658 -0.6922 -0.0049 -0.7887
  140OSM    C9F15352   0.841   2.513   7.725  0.7343 -0.5351 -0.5592
  140OSM    H9F15353   0.787   2.602   7.689  2.0950  1.4287  1.8982
  140OSM   C10F15354   0.828   2.479   7.851  0.0721 -0.0948 -0.3697
  140OSM   H10F15355   0.742   2.514   7.911  1.1121 -1.8316  2.3296
  140OSM   C11F15356   0.921   2.389   7.928  0.0933 -0.2613 -0.1305
  140OSM   H11F15357   0.966   2.457   8.004 -1.6607  1.9687 -0.9392
  140OSM   H11G15358   0.994   2.347   7.857  0.7809  0.6889 -0.0061
  140OSM   C12F15359   0.837   2.278   8.002 -0.6753  0.1878  0.1736
  140OSM   H12F15360   0.895   2.184   8.011 -2.2503 -0.9388 -0.8531
  140OSM   H12G15361   0.754   2.246   7.935  0.1530 -0.7530 -0.4345
  140OSM   C13F15362   0.759   2.323   8.126  0.3304 -0.2638  0.1788
  140OSM   H13F15363   0.665   2.365   8.084 -0.0299 -1.0475  0.1715
  140OSM   H13G15364   0.820   2.394   8.185  2.7836 -1.3227 -0.9522
  140OSM   C14F15365   0.705   2.210   8.224  0.3010  0.1317  0.6897
  140OSM   H14F15366   0.654   2.140   8.155 -0.2657  0.2491  0.9811
  140OSM   H14G15367   0.624   2.250   8.290 -0.3102  1.4193 -0.7593
  140OSM   C15F15368   0.819   2.143   8.304  0.6206  0.2741 -0.0292
  140OSM   H15F15369   0.851   2.224   8.372 -0.0923 -0.8031  1.6729
  140OSM   H15G15370   0.913   2.115   8.253 -0.5544 -2.4475 -0.9128
  140OSM   C16F15371   0.765   2.031   8.391  0.3692  0.0343 -0.1951
  140OSM   H16F15372   0.743   1.941   8.329 -0.0003 -1.2000  1.6433
  140OSM   H16G15373   0.668   2.059   8.438  0.5476 -1.7908  1.3846
  140OSM   C17F15374   0.859   1.991   8.494  0.7337  0.2868 -0.5454
  140OSM   H17F15375   0.790   1.938   8.563 -1.4178  0.4214 -2.4560
  140OSM   H17G15376   0.910   2.077   8.544  0.5601 -0.6960  1.3997
  140OSM   C18F15377   0.959   1.885   8.452 -0.3061 -0.2289  0.2264
  140OSM   H18F15378   1.036   1.867   8.530 -0.6109  0.5705  0.7113
  140OSM   H18G15379   1.008   1.920   8.358 -0.3052  2.2693  1.0908
  140OSM   H18H15380   0.900   1.794   8.425  0.7434 -0.7561 -0.3645
  141OSM      N15381   6.315   3.100   6.210 -0.0495  0.1061  0.2034
  141OSM    C1515382   6.404   3.042   6.105 -0.3098 -0.8362  0.1144
  141OSM   H15A15383   6.485   3.111   6.085 -0.5293 -0.2638  1.1499
  141OSM   H15B15384   6.354   2.995   6.022  1.1167 -2.4252  0.0877
  141OSM   H15C15385   6.459   2.959   6.145  0.7511  0.4189  1.3689
  141OSM    C1415386   6.261   3.234   6.156  0.3249 -0.6567 -0.1477
  141OSM   H14A15387   6.204   3.289   6.230  0.5075  0.4247 -0.7978
  141OSM   H14B15388   6.220   3.227   6.056  2.3615  1.4582 -1.2436
  141OSM   H14C15389   6.336   3.304   6.122  1.9063 -2.8810 -1.5303
  141OSM    C1315390   6.206   3.002   6.232  0.0120 -0.2507  0.4944
  141OSM   H13A15391   6.151   3.019   6.323  0.3558 -1.3467  0.9258
  141OSM   H13B15392   6.247   2.902   6.235 -2.0012 -1.2424 -1.6722
  141OSM   H13C15393   6.140   2.994   6.147 -1.4521  1.3647  1.4218
  141OSM    C1215394   6.405   3.120   6.341  0.3974 -0.4684 -0.5003
  141OSM   H12A15395   6.426   3.019   6.371 -2.0019 -1.7072 -2.6004
  141OSM   H12B15396   6.339   3.171   6.409  0.8562 -0.3225 -0.1575
  141OSM    C1115397   6.533   3.205   6.332 -0.0748  0.0084  0.1840
  141OSM   H11A15398   6.569   3.233   6.434 -2.0260  1.2574  0.5878
  141OSM   H11B15399   6.508   3.299   6.278  0.9402  1.0459  1.4262
  141OSM      P15400   6.690   2.986   6.315  0.1504  0.6747 -0.0030
  141OSM    O1315401   6.585   2.881   6.321  0.0082  0.1216  0.2804
  141OSM    O1415402   6.795   2.951   6.224  0.0343 -0.5494 -0.3922
  141OSM    O1115403   6.740   3.009   6.466  0.4022  0.1419  0.0066
  141OSM    O1215404   6.638   3.128   6.266  0.3607 -0.0615  0.3575
  141OSM    C1S15405   6.819   3.119   6.502 -0.3279 -0.1506 -0.3494
  141OSM    H1S15406   6.761   3.214   6.508 -0.1005 -0.0435  0.2172
  141OSM    H1T15407   6.901   3.138   6.429  0.8416 -1.1809  0.6389
  141OSM     NF15408   6.940   3.215   6.689 -0.2036  0.5351 -0.4416
  141OSM    HNF15409   7.036   3.231   6.667 -0.3954  1.6512 -0.5385
  141OSM    C2S15410   6.881   3.088   6.636 -0.7797  0.5794 -0.7717
  141OSM    H2S15411   6.805   3.052   6.710  2.4867 -0.5364  2.3467
  141OSM    C3S15412   6.987   2.974   6.615 -0.5021  0.5386 -0.2813
  141OSM    H3S15413   7.054   3.025   6.542 -0.3204  1.3158  0.4208
  141OSM     O315414   6.944   2.849   6.555  0.2761  0.2754 -0.2060
  141OSM    HO315415   6.851   2.866   6.539  0.3349  1.1566  0.3437
  141OSM    C4S15416   7.065   2.945   6.737  0.0334 -0.3494  0.4257
  141OSM    H4S15417   7.155   3.005   6.757 -1.8778  2.3728  1.6010
  141OSM    C5S15418   7.031   2.854   6.826 -0.0439  0.5656  0.3454
  141OSM    H5S15419   6.952   2.784   6.796 -2.3704  3.0837  0.1833
  141OSM    C6S15420   7.104   2.815   6.951 -0.1606  0.1029  0.6694
  141OSM    H6S15421   7.107   2.705   6.961  0.0867 -0.1212 -1.4851
  141OSM    H6T15422   7.043   2.845   7.039  1.9835  0.0856  2.2222
  141OSM    C7S15423   7.250   2.868   6.967 -0.5719  0.8214  0.1938
  141OSM    H7S15424   7.256   2.979   6.972  1.0481  0.9987 -3.0170
  141OSM    H7T15425   7.310   2.844   6.876  0.2762 -0.2725  1.0232
  141OSM    C8S15426   7.320   2.799   7.090  0.4836 -0.1069 -0.7296
  141OSM    H8S15427   7.431   2.801   7.098  0.5234  1.1244 -1.3037
  141OSM    H8T15428   7.303   2.693   7.064  3.3127 -0.7875 -0.1324
  141OSM    C9S15429   7.262   2.844   7.224 -0.0811 -0.5736 -0.0080
  141OSM    H9S15430   7.157   2.808   7.217  0.3570 -1.6317 -2.3610
  141OSM    H9T15431   7.266   2.954   7.214  0.7087 -0.6813 -1.2361
  141OSM   C10S15432   7.335   2.797   7.346 -0.3873 -0.5606  0.2984
  141OSM   H10S15433   7.439   2.836   7.340 -0.1744 -1.2132 -0.4931
  141OSM   H10T15434   7.358   2.689   7.342  2.5333 -0.1128  1.7281
  141OSM   C11S15435   7.261   2.834   7.468 -0.5749  0.7789 -1.1713
  141OSM   H11S15436   7.160   2.793   7.447 -0.9215 -0.2897  2.0702
  141OSM   H11T15437   7.256   2.941   7.497  2.3799  0.1509  2.3823
  141OSM   C12S15438   7.318   2.755   7.588  0.4931  0.0320 -0.2967
  141OSM   H12S15439   7.426   2.781   7.592  0.6706 -0.3947 -1.6700
  141OSM   H12T15440   7.301   2.649   7.560  3.5098 -0.9549  1.1004
  141OSM   C13S15441   7.258   2.799   7.718 -0.7012 -0.8874  0.6734
  141OSM   H13S15442   7.148   2.781   7.718 -0.8743  0.1306  0.9556
  141OSM   H13T15443   7.263   2.909   7.704  0.8137 -0.9395  0.7147
  141OSM   C14S15444   7.337   2.761   7.849 -0.3131  0.8115 -0.0847
  141OSM   H14S15445   7.428   2.823   7.842  1.1795 -1.4218 -2.0725
  141OSM   H14T15446   7.362   2.653   7.840  1.6877  1.3413 -1.3167
  141OSM   C15S15447   7.254   2.793   7.975  0.0886  0.1632  0.0758
  141OSM   H15S15448   7.148   2.762   7.967  0.3973 -1.7144  2.1704
  141OSM   H15T15449   7.258   2.904   7.976 -0.8238  0.2062 -0.2798
  141OSM   C16S15450   7.301   2.728   8.107 -0.0767  0.0118  0.6712
  141OSM   H16S15451   7.409   2.752   8.108 -0.2076  0.7821  2.5485
  141OSM   H16T15452   7.290   2.619   8.090  0.1439 -0.1226  1.3362
  141OSM   C17S15453   7.240   2.786   8.237 -0.6705 -0.2311 -0.2607
  141OSM   H17S15454   7.130   2.775   8.251 -1.0169 -0.1754 -2.5646
  141OSM   H17T15455   7.243   2.895   8.214  1.0877  0.0311  1.0355
  141OSM   C18S15456   7.318   2.748   8.348  0.5007  0.3284 -0.4165
  141OSM   H18S15457   7.310   2.638   8.361  0.3916  0.4014  0.1482
  141OSM   H18T15458   7.276   2.800   8.436  0.5561  0.2729 -0.3571
  141OSM   H18U15459   7.426   2.770   8.333  0.5091  0.1308 -0.6613
  141OSM    C1F15460   6.872   3.309   6.755 -0.4657  0.1793  0.1539
  141OSM     OF15461   6.756   3.291   6.774 -0.1901 -0.1065 -0.0685
  141OSM    C2F15462   6.939   3.436   6.799 -0.2297 -0.2507  0.3857
  141OSM    H2F15463   6.944   3.491   6.702  3.3774  0.5113  0.8440
  141OSM    H2G15464   7.044   3.417   6.830 -0.2524  0.5274  0.9767
  141OSM    C3F15465   6.861   3.504   6.910 -0.5834  0.1087 -0.7388
  141OSM    H3F15466   6.757   3.535   6.887 -0.9623 -0.2694  0.3890
  141OSM    H3G15467   6.904   3.604   6.934  1.2356 -1.3907  3.0396
  141OSM    C4F15468   6.864   3.434   7.047  0.3598  0.6677 -0.0530
  141OSM    H4F15469   6.971   3.437   7.074  0.6552 -0.1601 -1.0400
  141OSM    H4G15470   6.820   3.333   7.031  2.0539 -0.1849  0.5257
  141OSM    C5F15471   6.792   3.507   7.160 -0.1938 -0.6275 -0.1825
  141OSM    H5F15472   6.686   3.531   7.136 -0.2296  1.0313  1.4310
  141OSM    H5G15473   6.860   3.594   7.169 -1.2081  0.2941 -1.1487
  141OSM    C6F15474   6.784   3.443   7.301  1.1047  0.0085  0.5872
  141OSM    H6F15475   6.878   3.439   7.359 -0.2156  0.1529  2.8637
  141OSM    H6G15476   6.722   3.351   7.291 -1.6679  1.9088 -1.0571
  141OSM    C7F15477   6.713   3.551   7.392  0.2438  0.2090 -0.4629
  141OSM    H7F15478   6.615   3.583   7.350 -1.6597 -1.1736  2.6263
  141OSM    H7G15479   6.772   3.646   7.390  0.5157  0.0452 -0.1733
  141OSM    C8F15480   6.684   3.495   7.528 -0.2240  0.6159  0.8212
  141OSM    H8F15481   6.787   3.464   7.553 -0.1127  1.6837  1.7609
  141OSM    H8G15482   6.611   3.414   7.508 -0.6999  0.8370  1.6139
  141OSM    C9F15483   6.643   3.599   7.633 -0.6150 -0.0429 -0.7827
  141OSM    H9F15484   6.668   3.703   7.609  0.9159 -0.3856 -0.8034
  141OSM   C10F15485   6.587   3.579   7.750 -0.4470  0.7224  0.6862
  141OSM   H10F15486   6.575   3.663   7.820  0.8028 -0.8408  2.9133
  141OSM   C11F15487   6.542   3.443   7.811  0.2528  0.3138  0.6178
  141OSM   H11F15488   6.629   3.381   7.842  0.0170 -0.5544 -0.3930
  141OSM   H11G15489   6.495   3.381   7.732 -2.9942  0.9871  1.8711
  141OSM   C12F15490   6.432   3.456   7.922 -0.6301 -0.0702 -0.2665
  141OSM   H12F15491   6.429   3.360   7.976 -0.9142 -0.6265 -1.2464
  141OSM   H12G15492   6.332   3.480   7.879 -1.0664 -1.3844 -0.0120
  141OSM   C13F15493   6.466   3.550   8.045  0.0467 -0.2488  0.1200
  141OSM   H13F15494   6.441   3.655   8.020 -0.4756  0.2210  2.3382
  141OSM   H13G15495   6.573   3.538   8.070  0.2086 -3.4578 -1.6202
  141OSM   C14F15496   6.381   3.513   8.170 -0.7143  0.6676  0.0567
  141OSM   H14F15497   6.415   3.575   8.255  0.2227  0.1444  0.0783
  141OSM   H14G15498   6.395   3.404   8.189 -2.9630 -0.1108 -2.1829
  141OSM   C15F15499   6.224   3.540   8.151 -0.4656  0.6791  0.0075
  141OSM   H15F15500   6.199   3.466   8.072 -0.0061  2.3969 -1.8328
  141OSM   H15G15501   6.196   3.639   8.111 -0.3527  0.5358 -0.4339
  141OSM   C16F15502   6.144   3.506   8.279  0.0514  0.1493  0.0598
  141OSM   H16F15503   6.198   3.564   8.358 -0.1149  0.6985 -0.2233
  141OSM   H16G15504   6.167   3.404   8.317 -0.5880  0.0719  0.2522
  141OSM   C17F15505   5.996   3.535   8.284 -0.4524 -0.6163 -0.5677
  141OSM   H17F15506   5.939   3.475   8.209 -0.8152 -4.0339  2.2047
  141OSM   H17G15507   5.990   3.645   8.267  1.3362 -0.5018 -0.6381
  141OSM   C18F15508   5.935   3.489   8.414  0.7269 -0.3716 -0.3646
  141OSM   H18F15509   5.931   3.379   8.427  4.0298 -0.2954  3.0323
  141OSM   H18G15510   5.834   3.531   8.435  1.0179  1.2086 -1.8351
  141OSM   H18H15511   5.992   3.527   8.502 -0.1051  0.7608 -0.2829
  142OSM      N15512   0.224   4.377   6.175  0.1896  0.2131 -0.1817
  142OSM    C1515513   0.102   4.454   6.131 -0.1162  0.0644  0.1106
  142OSM   H15A15514   0.039   4.489   6.211  2.7830 -1.0773  3.0820
  142OSM   H15B15515   0.055   4.385   6.062  1.3468  0.2486 -1.1243
  142OSM   H15C15516   0.127   4.528   6.056 -0.0688  0.3349  0.3949
  142OSM    C1415517   0.286   4.305   6.066 -0.4658 -0.3690  0.3886
  142OSM   H14A15518   0.302   4.369   5.981 -0.1691 -1.6161 -0.5127
  142OSM   H14B15519   0.236   4.219   6.024 -0.7398  0.2393 -0.5644
  142OSM   H14C15520   0.381   4.271   6.104 -0.2444  0.8417  0.9695
  142OSM    C1315521   0.325   4.478   6.224 -0.5555 -0.4279 -0.8775
  142OSM   H13A15522   0.374   4.540   6.150  2.3450 -1.5936 -0.0684
  142OSM   H13B15523   0.414   4.425   6.256  0.2287  0.3559 -1.7071
  142OSM   H13C15524   0.284   4.545   6.299  1.7074 -0.0751  0.1354
  142OSM    C1215525   0.170   4.286   6.278 -0.4441  0.1578 -0.4208
  142OSM   H12A15526   0.242   4.212   6.308 -0.5168  0.1840 -0.1812
  142OSM   H12B15527   0.094   4.229   6.227 -0.7279  0.5634 -0.4607
  142OSM    C1115528   0.120   4.350   6.413 -0.7460  0.0236 -0.8076
  142OSM   H11A15529   0.197   4.421   6.449 -2.8650  1.2111  1.7254
  142OSM   H11B15530   0.101   4.267   6.485 -0.3155  0.0457 -0.6664
  142OSM      P15531  -0.141   4.366   6.397  0.4677 -0.1373  0.4524
  142OSM    O1315532  -0.242   4.470   6.356 -0.1867 -0.0293  0.0429
  142OSM    O1415533  -0.150   4.234   6.335  0.6906 -0.5154  0.1418
  142OSM    O1115534  -0.169   4.345   6.554 -0.3981 -0.1566  0.0321
  142OSM    O1215535   0.001   4.428   6.389  0.4286  0.6689  0.1511
  142OSM    C1S15536  -0.090   4.420   6.647 -0.2117  0.0890 -0.0683
  142OSM    H1S15537  -0.098   4.526   6.615 -0.7136 -0.2509 -1.1238
  142OSM    H1T15538   0.020   4.403   6.646 -0.3704 -1.1597 -2.2572
  142OSM     NF15539  -0.097   4.509   6.881  0.2283  0.1887  0.2593
  142OSM    HNF15540  -0.028   4.481   6.947 -0.3405 -0.7259  0.4831
  142OSM    C2S15541  -0.142   4.408   6.790 -0.0627  0.4968  0.0461
  142OSM    H2S15542  -0.252   4.418   6.795  0.1191  2.4428  2.1055
  142OSM    C3S15543  -0.106   4.268   6.846 -0.8179  0.0677  0.1009
  142OSM    H3S15544   0.004   4.255   6.860 -0.9498 -1.4741 -0.1517
  142OSM     O315545  -0.145   4.157   6.760  0.1114 -0.6007 -0.3055
  142OSM    HO315546  -0.173   4.196   6.677  2.0515  0.5856 -0.4674
  142OSM    C4S15547  -0.161   4.248   6.988 -1.2602 -0.0788  0.5390
  142OSM    H4S15548  -0.087   4.268   7.066 -0.1266  1.8514 -0.9313
  142OSM    C5S15549  -0.278   4.191   7.025 -0.3461 -0.2490 -0.6136
  142OSM    H5S15550  -0.359   4.143   6.968 -1.1656 -0.8160  0.9714
  142OSM    C6S15551  -0.303   4.173   7.169 -0.7947 -0.5309  0.1039
  142OSM    H6S15552  -0.400   4.119   7.167 -0.4852 -1.0559 -1.7387
  142OSM    H6T15553  -0.332   4.274   7.207 -1.4895 -0.5182 -0.4485
  142OSM    C7S15554  -0.193   4.110   7.253 -0.2416  0.2923  0.4702
  142OSM    H7S15555  -0.111   4.182   7.276 -1.3383  0.7203  3.4139
  142OSM    H7T15556  -0.153   4.035   7.181  0.2451  1.2421 -0.2782
  142OSM    C8S15557  -0.246   4.062   7.388 -0.0783 -0.0676 -0.0096
  142OSM    H8S15558  -0.198   3.970   7.427 -2.9522 -2.0373 -0.8649
  142OSM    H8T15559  -0.350   4.027   7.369  0.3877 -0.5113 -1.9148
  142OSM    C9S15560  -0.236   4.176   7.494  0.5314 -0.2334 -0.3824
  142OSM    H9S15561  -0.314   4.252   7.471  0.2191 -0.3262  0.3240
  142OSM    H9T15562  -0.140   4.233   7.492  1.0281 -0.8753  2.0693
  142OSM   C10S15563  -0.249   4.121   7.641  0.1230 -0.6673  0.3186
  142OSM   H10S15564  -0.337   4.054   7.636  0.1739 -0.7006 -4.3864
  142OSM   H10T15565  -0.284   4.210   7.698 -0.9128 -0.2714 -0.8973
  142OSM   C11S15566  -0.132   4.054   7.710  0.2538  0.5523  0.0413
  142OSM   H11S15567  -0.069   4.140   7.738 -2.0823  2.4303 -0.1003
  142OSM   H11T15568  -0.086   3.973   7.649 -1.6433 -0.5023 -0.0737
  142OSM   C12S15569  -0.160   3.986   7.844 -0.1220  0.1830  0.0811
  142OSM   H12S15570  -0.242   3.915   7.821 -0.1672  0.1831  0.2383
  142OSM   H12T15571  -0.206   4.058   7.916  0.5753  1.2061 -0.4670
  142OSM   C13S15572  -0.038   3.917   7.907  0.3059  0.9926 -0.4654
  142OSM   H13S15573   0.058   3.971   7.912  1.8042 -1.5624  0.0409
  142OSM   H13T15574  -0.008   3.833   7.840  0.5504 -0.2651  1.1528
  142OSM   C14S15575  -0.080   3.851   8.041  0.2734  0.2829  0.3670
  142OSM   H14S15576  -0.006   3.769   8.056 -0.9702 -0.7132  1.2604
  142OSM   H14T15577  -0.170   3.786   8.037  0.6403 -0.2044 -0.3911
  142OSM   C15S15578  -0.090   3.946   8.159  0.1386 -0.0772  0.5651
  142OSM   H15S15579  -0.176   4.013   8.137  1.1253  0.2093 -3.1099
  142OSM   H15T15580   0.008   3.998   8.166  0.7964 -0.8603 -1.7067
  142OSM   C16S15581  -0.124   3.856   8.290  0.2837  0.3372  0.7022
  142OSM   H16S15582  -0.211   3.794   8.262  1.1622 -0.5706 -0.0886
  142OSM   H16T15583  -0.155   3.931   8.366  0.3482 -1.3542  2.4714
  142OSM   C17S15584   0.003   3.784   8.336  0.9078 -0.1909  0.0998
  142OSM   H17S15585   0.086   3.857   8.342  0.5588  0.2732 -0.5539
  142OSM   H17T15586   0.037   3.718   8.254  0.8916  0.2514 -0.2662
  142OSM   C18S15587   0.003   3.714   8.471  0.2501 -0.0222  0.0234
  142OSM   H18S15588   0.106   3.675   8.488  0.4292  0.6143  0.4223
  142OSM   H18T15589  -0.082   3.644   8.489 -1.3108  2.0569  1.1879
  142OSM   H18U15590  -0.009   3.783   8.557  0.2877  0.0408 -0.0221
  142OSM    C1F15591  -0.147   4.637   6.889  0.5151 -0.3204  0.6440
  142OSM     OF15592  -0.256   4.666   6.840  0.3220  0.4024  0.7377
  142OSM    C2F15593  -0.071   4.747   6.960  0.1385  0.0199 -0.0902
  142OSM    H2F15594  -0.069   4.844   6.904  0.3691  0.4733  0.6887
  142OSM    H2G15595   0.032   4.714   6.984  0.0547  0.2052  0.5408
  142OSM    C3F15596  -0.147   4.786   7.092 -0.3781 -0.5008 -0.8386
  142OSM    H3F15597  -0.156   4.687   7.141 -1.3244  0.1350  0.3270
  142OSM    H3G15598  -0.246   4.836   7.094 -1.1336 -1.9595 -0.5188
  142OSM    C4F15599  -0.058   4.872   7.182 -0.1139  0.2353  0.5638
  142OSM    H4F15600  -0.074   4.977   7.149  1.8759  0.1426 -0.8892
  142OSM    H4G15601   0.049   4.843   7.184 -0.3900 -1.0528 -1.1481
  142OSM    C5F15602  -0.113   4.860   7.326  0.3341  0.1384  0.1885
  142OSM    H5F15603  -0.216   4.818   7.330  0.2333  0.4677  1.1607
  142OSM    H5G15604  -0.108   4.959   7.375  1.7109 -0.8430  2.1240
  142OSM    C6F15605  -0.020   4.775   7.421  0.6833 -0.2671  0.1539
  142OSM    H6F15606   0.085   4.811   7.426 -0.5155  3.6144  0.7412
  142OSM    H6G15607   0.001   4.675   7.377  3.2333  0.3495 -0.1603
  142OSM    C7F15608  -0.093   4.777   7.558 -0.4997 -0.6434  0.0595
  142OSM    H7F15609  -0.201   4.751   7.563 -0.7204  0.3377  0.7313
  142OSM    H7G15610  -0.071   4.878   7.600  0.7162  0.4826 -3.0556
  142OSM    C8F15611  -0.016   4.688   7.662  0.2628  0.5765 -1.0006
  142OSM    H8F15612  -0.069   4.715   7.756 -1.5220 -3.1374 -0.7250
  142OSM    H8G15613   0.092   4.714   7.662  0.7537 -0.9088  2.2452
  142OSM    C9F15614  -0.028   4.541   7.636 -0.9618 -0.7921  0.3626
  142OSM    H9F15615  -0.014   4.517   7.530 -0.6526  2.3380 -0.4080
  142OSM   C10F15616  -0.039   4.437   7.723  0.0158 -0.3946 -0.6222
  142OSM   H10F15617  -0.042   4.338   7.675  0.4445 -0.8742  0.3110
  142OSM   C11F15618  -0.046   4.450   7.877 -0.0180 -0.3664  0.4474
  142OSM   H11F15619  -0.037   4.557   7.906  0.5523 -0.2412 -0.1657
  142OSM   H11G15620   0.039   4.395   7.923 -1.0807  0.6731  3.9370
  142OSM   C12F15621  -0.169   4.380   7.930  0.0726  0.6458 -0.8163
  142OSM   H12F15622  -0.147   4.271   7.930  0.1832  0.6647 -1.2267
  142OSM   H12G15623  -0.253   4.391   7.858 -0.5267  1.0550 -0.0726
  142OSM   C13F15624  -0.224   4.413   8.073  0.7307 -0.0447 -0.2761
  142OSM   H13F15625  -0.306   4.339   8.087  1.0853 -0.4793 -0.4590
  142OSM   H13G15626  -0.257   4.518   8.065  1.4605  0.0496 -2.5301
  142OSM   C14F15627  -0.115   4.382   8.179  0.2720 -0.2247 -0.2033
  142OSM   H14F15628  -0.032   4.452   8.155  0.7434 -1.3045 -1.9121
  142OSM   H14G15629  -0.083   4.276   8.168 -0.0432 -0.3822  0.3882
  142OSM   C15F15630  -0.172   4.401   8.321 -0.7243  0.1232  0.5490
  142OSM   H15F15631  -0.273   4.446   8.324 -1.2953 -1.0255 -0.4042
  142OSM   H15G15632  -0.104   4.446   8.396 -2.0174  0.0784  1.7724
  142OSM   C16F15633  -0.204   4.270   8.390 -0.1918  0.1428  0.4517
  142OSM   H16F15634  -0.123   4.197   8.367 -0.6627  0.2556 -1.7899
  142OSM   H16G15635  -0.297   4.226   8.348 -0.9102  0.2873  1.8365
  142OSM   C17F15636  -0.215   4.289   8.542  0.2388  0.5790  0.8314
  142OSM   H17F15637  -0.274   4.207   8.589  0.0716  1.1184  1.5766
  142OSM   H17G15638  -0.272   4.381   8.566  0.1410  0.6258  0.4248
  142OSM   C18F15639  -0.089   4.299   8.626  0.8373 -0.3689  0.4012
  142OSM   H18F15640  -0.018   4.217   8.598  0.9205  0.4662 -2.1159
  142OSM   H18G15641  -0.097   4.295   8.736  1.5380  1.6318  0.5622
  142OSM   H18H15642  -0.040   4.397   8.607 -0.3427  0.6095  2.1191
  143OSM      N15643   4.351   5.818   6.146  0.2312 -0.1831  0.6475
  143OSM    C1515644   4.379   5.684   6.075  0.0230 -0.0981  0.0978
  143OSM   H15A15645   4.463   5.647   6.132 -0.0098 -0.6521 -0.2143
  143OSM   H15B15646   4.408   5.702   5.973  1.8849 -2.7287  0.0546
  143OSM   H15C15647   4.291   5.623   6.080 -0.0618 -0.0789 -0.9748
  143OSM    C1415648   4.481   5.892   6.149  0.4475  0.9204  0.4073
  143OSM   H14A15649   4.478   5.979   6.213  2.2714  0.8187  0.6795
  143OSM   H14B15650   4.512   5.926   6.051 -1.4240  1.3673 -0.0620
  143OSM   H14C15651   4.551   5.825   6.196  1.3024 -0.2780 -2.4056
  143OSM    C1315652   4.252   5.896   6.072 -0.1923 -0.2949 -0.8312
  143OSM   H13A15653   4.222   5.986   6.125 -1.6797 -0.4135 -1.4291
  143OSM   H13B15654   4.159   5.842   6.064 -0.4495  0.2009 -1.2998
  143OSM   H13C15655   4.283   5.918   5.971 -0.9427  1.5633 -0.7022
  143OSM    C1215656   4.311   5.782   6.281  0.6692  0.4388 -0.5501
  143OSM   H12A15657   4.322   5.868   6.345  3.0037  0.4589 -0.8894
  143OSM   H12B15658   4.378   5.703   6.311  2.6050  0.4293 -4.2760
  143OSM    C1115659   4.164   5.728   6.306  0.0985 -0.3937 -0.3662
  143OSM   H11A15660   4.086   5.801   6.276  0.0481  0.0253  0.7376
  143OSM   H11B15661   4.152   5.733   6.416  0.6164  1.3280 -0.3486
  143OSM      P15662   4.033   5.487   6.294  0.5162 -0.1180 -0.0371
  143OSM    O1315663   3.950   5.478   6.176 -0.2245 -0.2894  0.3233
  143OSM    O1415664   4.096   5.360   6.335 -0.3482  0.1256  0.0128
  143OSM    O1115665   3.944   5.536   6.411 -0.2585 -0.9482  0.0908
  143OSM    O1215666   4.151   5.594   6.262  0.0770 -0.0030 -0.1150
  143OSM    C1S15667   3.879   5.439   6.504  0.0381 -0.3215  0.1825
  143OSM    H1S15668   3.893   5.333   6.475 -0.9401 -0.1972 -0.8124
  143OSM    H1T15669   3.773   5.473   6.511 -0.3268 -1.2562 -0.6110
  143OSM     NF15670   3.896   5.350   6.720  0.0111 -0.4084  0.0218
  143OSM    HNF15671   3.819   5.369   6.781 -1.5141  1.3833 -2.2810
  143OSM    C2S15672   3.929   5.462   6.646  0.0761 -0.0805 -0.4701
  143OSM    H2S15673   4.039   5.481   6.637 -0.2632  2.6425  0.2730
  143OSM    C3S15674   3.866   5.603   6.695  0.2612 -0.5734  0.2146
  143OSM    H3S15675   3.756   5.598   6.678  0.0092 -1.4228  1.9194
  143OSM     O315676   3.922   5.720   6.625 -0.3884 -0.1311 -1.0053
  143OSM    HO315677   3.955   5.685   6.541  2.8253  0.7750 -0.2362
  143OSM    C4S15678   3.900   5.619   6.840  0.2913  0.1792 -0.6164
  143OSM    H4S15679   3.993   5.676   6.858 -0.0374  0.3867  0.5059
  143OSM    C5S15680   3.825   5.589   6.949  0.0648  0.2666  0.3873
  143OSM    H5S15681   3.720   5.559   6.936 -0.3074  0.9436  1.6780
  143OSM    C6S15682   3.874   5.603   7.087  0.0098 -0.3612  0.0305
  143OSM    H6S15683   3.979   5.638   7.096 -0.0147 -0.0167 -0.8549
  143OSM    H6T15684   3.873   5.508   7.144  0.3235 -0.3059  0.1334
  143OSM    C7S15685   3.791   5.703   7.172 -0.1906 -0.1212 -0.2799
  143OSM    H7S15686   3.683   5.676   7.160 -0.3587  0.7931 -0.9727
  143OSM    H7T15687   3.806   5.810   7.143 -0.6351  0.4310  1.4275
  143OSM    C8S15688   3.833   5.686   7.318 -0.6612 -0.0081  0.7116
  143OSM    H8S15689   3.938   5.714   7.339 -0.9285  0.2813  1.7414
  143OSM    H8T15690   3.827   5.577   7.339  1.2397  0.1167  2.1913
  143OSM    C9S15691   3.749   5.777   7.406 -0.6134  0.0551  0.4912
  143OSM    H9S15692   3.643   5.757   7.378 -0.2086  0.8937 -1.9071
  143OSM    H9T15693   3.773   5.882   7.376  1.9883 -0.1420  1.6460
  143OSM   C10S15694   3.777   5.755   7.558  0.5195  0.3306  0.1907
  143OSM   H10S15695   3.884   5.734   7.579  0.3148  0.4825  1.4934
  143OSM   H10T15696   3.717   5.667   7.589  0.8980  0.6664  1.9846
  143OSM   C11S15697   3.732   5.865   7.655  0.4926  0.3275  0.3483
  143OSM   H11S15698   3.624   5.888   7.639  0.1591 -0.8854  0.7627
  143OSM   H11T15699   3.786   5.957   7.625 -0.8707  1.4397  1.1591
  143OSM   C12S15700   3.769   5.838   7.803  0.1221  0.5576 -0.2695
  143OSM   H12S15701   3.879   5.823   7.813 -0.1168  0.0575  2.1191
  143OSM   H12T15702   3.712   5.750   7.839 -0.4807  0.9409 -0.2776
  143OSM   C13S15703   3.726   5.952   7.890  0.1693 -0.3092  0.1460
  143OSM   H13S15704   3.616   5.934   7.891  0.3203 -1.2518  0.3831
  143OSM   H13T15705   3.756   6.053   7.854 -2.2566  0.7374  0.8137
  143OSM   C14S15706   3.770   5.923   8.038  0.0869 -0.1642 -0.4750
  143OSM   H14S15707   3.736   6.010   8.098 -1.7918 -0.9712 -0.2956
  143OSM   H14T15708   3.880   5.906   8.033 -0.3069 -2.8252 -3.3852
  143OSM   C15S15709   3.706   5.798   8.095  0.8286 -0.6316  0.1079
  143OSM   H15S15710   3.752   5.706   8.055 -0.6077 -1.6783  0.7531
  143OSM   H15T15711   3.602   5.794   8.056  1.7056 -2.6909 -2.2549
  143OSM   C16S15712   3.702   5.796   8.250  0.8378  0.9277  0.3977
  143OSM   H16S15713   3.661   5.699   8.286  0.3245  0.7204 -0.7054
  143OSM   H16T15714   3.644   5.879   8.296 -0.0752  0.7466 -0.3780
  143OSM   C17S15715   3.840   5.802   8.317 -0.8435  0.4360  0.0921
  143OSM   H17S15716   3.896   5.895   8.293  0.2750 -0.5774 -1.3714
  143OSM   H17T15717   3.905   5.719   8.283 -1.3226 -0.2105  0.7284
  143OSM   C18S15718   3.836   5.776   8.467 -0.3262  0.3605  0.9859
  143OSM   H18S15719   3.841   5.667   8.485  2.2003 -0.2103 -2.1938
  143OSM   H18T15720   3.742   5.817   8.510 -0.9566 -0.2391  0.2138
  143OSM   H18U15721   3.925   5.822   8.516  0.3419  1.0930 -0.8354
  143OSM    C1F15722   3.966   5.235   6.722  0.9641 -0.0395  0.0994
  143OSM     OF15723   4.065   5.209   6.649  0.1977  0.2116  0.0885
  143OSM    C2F15724   3.913   5.124   6.808  0.2119  0.0844 -0.6839
  143OSM    H2F15725   3.925   5.026   6.758 -2.0609 -2.1927  2.7546
  143OSM    H2G15726   3.802   5.128   6.815 -0.1117 -1.4120 -3.7533
  143OSM    C3F15727   3.958   5.113   6.957 -0.1219  0.4104  0.4173
  143OSM    H3F15728   4.056   5.060   6.961  0.8814  2.1385 -0.3493
  143OSM    H3G15729   3.879   5.070   7.022  0.0125 -0.0091  0.3075
  143OSM    C4F15730   4.013   5.252   7.016  1.2544  0.0589 -0.1186
  143OSM    H4F15731   3.921   5.304   7.052  1.6001 -1.3912  3.3126
  143OSM    H4G15732   4.063   5.320   6.945  1.4884  2.5353  2.2500
  143OSM    C5F15733   4.083   5.222   7.150 -0.3132 -0.5324  0.3175
  143OSM    H5F15734   4.094   5.319   7.203 -0.4895 -0.6350  0.5477
  143OSM    H5G15735   4.180   5.174   7.126  0.4940  0.9964  0.4591
  143OSM    C6F15736   4.019   5.109   7.248 -0.2510  0.1847  0.0873
  143OSM    H6F15737   4.025   5.015   7.190  1.7807  1.0870 -1.2745
  143OSM    H6G15738   3.916   5.142   7.275 -0.3924  3.2156 -3.3550
  143OSM    C7F15739   4.103   5.105   7.379 -0.7918  0.7922  0.8936
  143OSM    H7F15740   4.207   5.077   7.352 -1.0676 -0.7956  1.3594
  143OSM    H7G15741   4.080   5.019   7.445  2.6967 -0.7949  0.2983
  143OSM    C8F15742   4.115   5.230   7.467 -0.0167  0.5786  0.4826
  143OSM    H8F15743   4.179   5.298   7.406 -2.1179  2.2264  0.0103
  143OSM    H8G15744   4.181   5.207   7.553 -0.3809 -1.0620  0.3651
  143OSM    C9F15745   3.988   5.305   7.498 -0.3240  0.6912 -0.6323
  143OSM    H9F15746   3.914   5.299   7.417  0.2760 -1.3701 -1.0946
  143OSM   C10F15747   3.967   5.383   7.609 -0.2935  0.0454  0.8914
  143OSM   H10F15748   3.876   5.444   7.608 -0.6947 -0.5091 -0.8605
  143OSM   C11F15749   4.060   5.417   7.718 -0.2790  0.1110  0.0179
  143OSM   H11F15750   4.097   5.522   7.707  1.4129 -0.5982 -1.4762
  143OSM   H11G15751   4.147   5.348   7.723 -1.8588 -1.9410  0.5611
  143OSM   C12F15752   3.988   5.392   7.853 -0.0960 -0.3339  0.3552
  143OSM   H12F15753   3.969   5.284   7.871 -2.1533  0.2656  2.1557
  143OSM   H12G15754   3.894   5.449   7.867 -0.3628 -0.8353  0.6257
  143OSM   C13F15755   4.067   5.441   7.976  0.3264 -0.0075 -0.6593
  143OSM   H13F15756   4.070   5.551   7.981 -1.9283  0.0425  2.0262
  143OSM   H13G15757   4.161   5.382   7.964 -0.3462 -1.1256 -0.5957
  143OSM   C14F15758   4.012   5.388   8.110 -0.7296 -0.2145 -0.3378
  143OSM   H14F15759   4.088   5.385   8.191  0.8471 -0.7835 -1.7795
  143OSM   H14G15760   3.990   5.279   8.106 -1.1121 -0.1514  0.0038
  143OSM   C15F15761   3.884   5.456   8.154 -0.1008  0.4908  0.7341
  143OSM   H15F15762   3.810   5.429   8.077 -0.1078 -1.2485  1.3156
  143OSM   H15G15763   3.899   5.565   8.135  1.1293  0.2842  0.4668
  143OSM   C16F15764   3.838   5.430   8.297 -0.6091 -0.2822 -0.6194
  143OSM   H16F15765   3.768   5.506   8.336  1.9500  1.3702  1.1120
  143OSM   H16G15766   3.918   5.434   8.375  0.1957 -0.3819 -1.4310
  143OSM   C17F15767   3.783   5.295   8.326 -0.3066  0.3461  0.1004
  143OSM   H17F15768   3.862   5.217   8.318  0.8425  1.3266  1.4457
  143OSM   H17G15769   3.699   5.270   8.258  1.5126 -0.3301 -2.0175
  143OSM   C18F15770   3.729   5.277   8.468 -0.2429  0.7575  0.5583
  143OSM   H18F15771   3.807   5.286   8.547  1.1389 -0.9366 -0.5262
  143OSM   H18G15772   3.684   5.176   8.478  1.6837 -0.0631  1.3590
  143OSM   H18H15773   3.645   5.348   8.485 -0.4109  0.4846  0.8848
  144OSM      N15774   0.685   5.911   6.064 -0.5277 -0.3659  0.3781
  144OSM    C1515775   0.775   6.020   6.096 -0.0417  0.5472  0.4394
  144OSM   H15A15776   0.718   6.080   6.166 -0.8121  0.6133 -0.2234
  144OSM   H15B15777   0.793   6.093   6.018 -2.0752  0.6670  0.0243
  144OSM   H15C15778   0.861   5.989   6.153 -0.0382  1.7152  1.1211
  144OSM    C1415779   0.547   5.960   6.017  0.7637  0.0278 -0.6751
  144OSM   H14A15780   0.492   6.008   6.097 -1.7903 -0.3128 -2.1170
  144OSM   H14B15781   0.502   5.871   5.976 -1.7140  1.0267 -0.2850
  144OSM   H14C15782   0.567   6.034   5.941  0.5360  0.2999 -0.4727
  144OSM    C1315783   0.749   5.832   5.949 -0.1767  0.4012  0.1347
  144OSM   H13A15784   0.846   5.790   5.976 -0.1489  1.1705  1.2992
  144OSM   H13B15785   0.772   5.902   5.870 -1.0076  0.0670 -0.4118
  144OSM   H13C15786   0.676   5.765   5.907 -1.3139  2.1935 -0.8636
  144OSM    C1215787   0.670   5.825   6.192  0.0925  0.7442 -0.2683
  144OSM   H12A15788   0.767   5.786   6.219 -0.1496  0.8490  0.7976
  144OSM   H12B15789   0.605   5.740   6.181 -0.8471  1.1080  1.9718
  144OSM    C1115790   0.619   5.892   6.321  0.0550  0.1543 -0.6118
  144OSM   H11A15791   0.691   5.974   6.345  0.2454  0.3614 -1.8235
  144OSM   H11B15792   0.633   5.813   6.398 -1.6034  2.3132  2.0924
  144OSM      P15793   0.366   5.846   6.346 -0.2279  0.4000  0.1016
  144OSM    O1315794   0.237   5.912   6.330  0.7441 -0.9293 -0.3392
  144OSM    O1415795   0.377   5.721   6.267  0.2735  0.0725  0.2559
  144OSM    O1115796   0.394   5.819   6.495 -0.0420  0.0354 -0.0845
  144OSM    O1215797   0.483   5.946   6.310 -0.1389  0.3142  0.9375
  144OSM    C1S15798   0.403   5.926   6.591 -0.2371  0.7960 -0.0572
  144OSM    H1S15799   0.364   6.020   6.545 -1.3672 -0.2877 -1.4402
  144OSM    H1T15800   0.510   5.952   6.608 -0.3090  0.2001  1.4145
  144OSM     NF15801   0.323   6.014   6.811  0.1310 -0.1391 -0.2662
  144OSM    HNF15802   0.374   6.018   6.896  2.5444 -0.5295 -1.5918
  144OSM    C2S15803   0.340   5.895   6.732 -0.9296  0.4807  0.4693
  144OSM    H2S15804   0.238   5.855   6.711 -0.3432 -2.0005  1.9600
  144OSM    C3S15805   0.417   5.787   6.805 -0.5875 -0.1992 -0.1732
  144OSM    H3S15806   0.506   5.840   6.847 -0.8350  2.1309 -2.3600
  144OSM     O315807   0.467   5.684   6.723  0.8985  0.0831  0.6893
  144OSM    HO315808   0.442   5.706   6.633 -1.3538 -0.8697  1.0265
  144OSM    C4S15809   0.348   5.733   6.923  0.4764  1.3864 -0.6059
  144OSM    H4S15810   0.360   5.811   6.999  0.9509  1.5980 -0.8925
  144OSM    C5S15811   0.281   5.619   6.951 -0.2168  0.7630  0.2877
  144OSM    H5S15812   0.267   5.542   6.874  1.9875 -0.9043  1.4346
  144OSM    C6S15813   0.231   5.577   7.082  0.9700  0.0940  0.9902
  144OSM    H6S15814   0.295   5.492   7.115 -2.0260 -2.3961  0.7889
  144OSM    H6T15815   0.131   5.531   7.070  1.1215  0.1804 -0.7829
  144OSM    C7S15816   0.222   5.682   7.194 -0.3164  0.0570 -0.1552
  144OSM    H7S15817   0.164   5.773   7.169  0.3492  0.6374  0.3712
  144OSM    H7T15818   0.327   5.708   7.221  0.6829 -3.1964 -0.4160
  144OSM    C8S15819   0.158   5.627   7.321 -0.2487 -0.6874 -0.0464
  144OSM    H8S15820   0.207   5.529   7.339 -0.3240 -0.8594 -0.7455
  144OSM    H8T15821   0.056   5.601   7.285 -0.3880  0.2880 -0.3955
  144OSM    C9S15822   0.179   5.712   7.444  0.6473  0.1363  0.4769
  144OSM    H9S15823   0.138   5.815   7.444 -2.0878 -0.8542  0.1052
  144OSM    H9T15824   0.290   5.714   7.444  0.6501  0.1445  0.0083
  144OSM   C10S15825   0.129   5.646   7.579  0.6546  0.2956  0.0534
  144OSM   H10S15826   0.188   5.557   7.611 -0.6529 -0.9849 -0.9736
  144OSM   H10T15827   0.023   5.616   7.562  0.2370  0.8901  1.4451
  144OSM   C11S15828   0.134   5.747   7.687  0.2807  0.2183 -0.5495
  144OSM   H11S15829   0.102   5.846   7.648  1.6367  2.2271  2.9606
  144OSM   H11T15830   0.238   5.743   7.724  0.8843 -2.7673 -2.2303
  144OSM   C12S15831   0.039   5.715   7.804 -0.5288 -0.3924  0.4637
  144OSM   H12S15832   0.066   5.611   7.833 -2.2584 -0.8370  0.6141
  144OSM   H12T15833  -0.067   5.721   7.771 -0.2384 -1.9064 -0.8673
  144OSM   C13S15834   0.064   5.810   7.920  0.3280 -0.2191 -0.3403
  144OSM   H13S15835   0.038   5.917   7.903  0.1365  0.0280  1.3726
  144OSM   H13T15836   0.170   5.807   7.952 -0.3942  1.2090  2.4759
  144OSM   C14S15837  -0.010   5.761   8.044 -0.2087 -0.6035 -0.5309
  144OSM   H14S15838   0.010   5.657   8.079  0.8833 -0.7883 -1.6426
  144OSM   H14T15839  -0.119   5.773   8.028 -0.3683 -0.2437  0.7323
  144OSM   C15S15840   0.025   5.848   8.171  0.6956 -0.4257  0.6550
  144OSM   H15S15841   0.002   5.953   8.143 -1.8043 -0.5958  1.8437
  144OSM   H15T15842   0.133   5.824   8.183  1.1521  0.2343 -1.5575
  144OSM   C16S15843  -0.064   5.816   8.300 -0.1525  0.1874  0.0300
  144OSM   H16S15844  -0.078   5.707   8.309 -0.2786  0.3644  2.5091
  144OSM   H16T15845  -0.161   5.867   8.283  0.2107  0.8504 -0.1366
  144OSM   C17S15846   0.012   5.850   8.428 -0.1447  0.0712  0.4332
  144OSM   H17S15847   0.045   5.955   8.410 -0.9242 -0.0874 -2.2439
  144OSM   H17T15848   0.095   5.777   8.438  1.2317  1.5247  0.0170
  144OSM   C18S15849  -0.072   5.842   8.557  0.2132  0.4564  0.3097
  144OSM   H18S15850  -0.027   5.898   8.641  1.1583  2.3588 -1.3722
  144OSM   H18T15851  -0.097   5.740   8.591  0.6065  0.2125 -0.1245
  144OSM   H18U15852  -0.169   5.896   8.545 -0.2796 -0.6080 -0.7877
  144OSM    C1F15853   0.253   6.120   6.769 -0.6221  0.3944  0.2660
  144OSM     OF15854   0.203   6.119   6.658  0.0979 -0.4612 -0.0460
  144OSM    C2F15855   0.227   6.225   6.868  0.1978 -0.1035 -0.4342
  144OSM    H2F15856   0.326   6.259   6.907 -0.1351 -0.9709  1.2859
  144OSM    H2G15857   0.181   6.177   6.957 -0.6808  3.1063  0.9812
  144OSM    C3F15858   0.134   6.344   6.825 -0.3226  0.2009 -0.0866
  144OSM    H3F15859   0.038   6.294   6.798 -0.3001  1.5068 -2.9456
  144OSM    H3G15860   0.165   6.386   6.727 -0.9555  2.0290  0.4539
  144OSM    C4F15861   0.102   6.437   6.944 -0.0471 -1.0215  0.9107
  144OSM    H4F15862   0.038   6.517   6.900 -1.0238 -1.8398  0.8008
  144OSM    H4G15863   0.198   6.480   6.980  0.3892  0.8698 -2.1134
  144OSM    C5F15864   0.033   6.367   7.065  0.6346  0.2403  0.2599
  144OSM    H5F15865   0.091   6.277   7.097 -0.9758 -1.4322 -1.2968
  144OSM    H5G15866  -0.061   6.319   7.028  0.7447 -2.0137  2.5874
  144OSM    C6F15867   0.005   6.466   7.180  0.8814  0.3863  0.4159
  144OSM    H6F15868  -0.066   6.544   7.147 -0.5657 -1.4048 -0.9338
  144OSM    H6G15869   0.101   6.513   7.210  1.2430  1.1175 -1.7234
  144OSM    C7F15870  -0.053   6.382   7.289  0.2426 -0.2122  0.4775
  144OSM    H7F15871   0.002   6.292   7.325  1.1138  0.1268  0.0011
  144OSM    H7G15872  -0.159   6.363   7.260  0.7557 -0.5914 -1.2994
  144OSM    C8F15873  -0.055   6.469   7.419  0.1196  0.5218 -0.4886
  144OSM    H8F15874   0.049   6.503   7.436  0.1844 -0.0503  0.2900
  144OSM    H8G15875  -0.087   6.401   7.501  0.8039 -0.1034 -0.7380
  144OSM    C9F15876  -0.161   6.579   7.421 -0.1644 -0.3807 -0.2204
  144OSM    H9F15877  -0.245   6.560   7.353 -0.4893 -0.9143  0.3240
  144OSM   C10F15878  -0.164   6.684   7.508  0.8204  0.4874 -0.3692
  144OSM   H10F15879  -0.243   6.760   7.493  1.4949  0.7165 -3.3425
  144OSM   C11F15880  -0.063   6.706   7.623 -0.0718 -0.0065 -0.2875
  144OSM   H11F15881  -0.015   6.806   7.620  3.7062 -1.5503  1.2423
  144OSM   H11G15882   0.025   6.639   7.614  1.2951  1.5402  0.8492
  144OSM   C12F15883  -0.113   6.670   7.765 -0.3804  0.2609 -0.8259
  144OSM   H12F15884  -0.124   6.560   7.777 -0.5514  0.4730  1.2990
  144OSM   H12G15885  -0.213   6.712   7.787 -0.0790  0.2730  0.6128
  144OSM   C13F15886  -0.006   6.720   7.868  0.1067 -0.1675  0.2026
  144OSM   H13F15887  -0.024   6.829   7.878 -0.6386 -0.4637  2.8672
  144OSM   H13G15888   0.100   6.708   7.840  0.4425  1.4402  0.7262
  144OSM   C14F15889  -0.034   6.654   7.999  0.8549  0.2796 -0.3400
  144OSM   H14F15890   0.045   6.673   8.075  0.3930 -0.4772  0.3384
  144OSM   H14G15891  -0.036   6.543   7.987  1.0739  0.3241 -0.8061
  144OSM   C15F15892  -0.157   6.700   8.077 -0.8856 -0.4407  0.4371
  144OSM   H15F15893  -0.181   6.627   8.158  1.5504 -2.1060 -0.2286
  144OSM   H15G15894  -0.239   6.716   8.003 -0.7798 -1.3750  0.1068
  144OSM   C16F15895  -0.140   6.836   8.140  0.5678  0.6497 -0.7556
  144OSM   H16F15896  -0.090   6.917   8.083 -1.2293  1.2998 -1.4811
  144OSM   H16G15897  -0.082   6.824   8.234 -2.3065  1.0704  1.1985
  144OSM   C17F15898  -0.283   6.899   8.167 -1.2707 -0.5206  0.3812
  144OSM   H17F15899  -0.332   6.830   8.239 -1.8512  0.4842  0.9682
  144OSM   H17G15900  -0.338   6.917   8.073  0.4147  2.2510 -0.1818
  144OSM   C18F15901  -0.278   7.039   8.237 -0.4904  0.3280 -0.1871
  144OSM   H18F15902  -0.200   7.098   8.183  2.6312 -0.0932  3.4130
  144OSM   H18G15903  -0.242   7.016   8.340 -0.9435 -1.0760 -0.3158
  144OSM   H18H15904  -0.374   7.093   8.243  0.1313  1.5113 -0.5192
  145SAPE     N15905   1.440   5.170  10.733  0.1420  0.0511 -0.3051
  145SAPE   HN115906   1.457   5.154  10.834  2.8308  1.6035 -0.4234
  145SAPE   HN215907   1.530   5.195  10.686  0.9008 -2.3268 -0.2914
  145SAPE   HN315908   1.376   5.250  10.723 -0.8376 -0.8892 -2.0258
  145SAPE   C1215909   1.377   5.054  10.657  0.7100 -0.4567 -0.5440
  145SAPE  H12A15910   1.301   5.010  10.725  2.0688 -0.3801  1.1018
  145SAPE  H12B15911   1.456   4.986  10.620  0.7914 -0.9521  0.5042
  145SAPE   C1115912   1.301   5.113  10.533  0.0726  0.0488 -0.0038
  145SAPE  H11A15913   1.278   5.016  10.483  1.4814 -0.6016  0.5748
  145SAPE  H11B15914   1.362   5.161  10.454  0.5512 -0.9499 -0.2654
  145SAPE     P15915   1.171   5.333  10.578 -0.0935 -0.1398  0.2443
  145SAPE   O1315916   1.034   5.379  10.577  0.0751  0.3587 -0.5175
  145SAPE   O1415917   1.270   5.386  10.675  0.0826 -0.0012 -0.0134
  145SAPE   O1215918   1.180   5.174  10.576  0.0402  0.2129  0.8707
  145SAPE   O1115919   1.222   5.367  10.433  0.0082 -0.0897  0.0801
  145SAPE    C115920   1.167   5.301  10.319 -0.0553 -1.1454 -0.0087
  145SAPE    HA15921   1.246   5.294  10.241 -0.9476 -0.4406 -1.0040
  145SAPE    HB15922   1.110   5.208  10.340  0.4079 -0.9148  2.5597
  145SAPE    C215923   1.054   5.386  10.247  0.0312 -0.3657 -0.1028
  145SAPE    HS15924   0.975   5.403  10.323  0.6731  2.6642  0.0141
  145SAPE   O2115925   1.016   5.319  10.128  0.1824 -0.0363  0.7650
  145SAPE   C2115926   0.893   5.361  10.083 -0.5948  0.7015 -0.2007
  145SAPE   O2215927   0.816   5.420  10.151  0.4579 -0.2307 -0.3971
  145SAPE   C2215928   0.887   5.324   9.933  0.4900  0.4347 -0.3721
  145SAPE   H2R15929   0.989   5.325   9.890  1.3952 -1.4812  1.5640
  145SAPE   H2S15930   0.847   5.220   9.934  1.1759  0.1486  1.6441
  145SAPE    C315931   1.107   5.528  10.215  0.1076  0.5261 -0.3828
  145SAPE    HX15932   1.190   5.514  10.143 -0.2181 -2.1410 -0.3431
  145SAPE    HY15933   1.145   5.564  10.313 -4.7139  0.7350  1.6951
  145SAPE   O3115934   1.018   5.616  10.161  0.0320  1.2879 -0.6246
  145SAPE   C3115935   0.946   5.691  10.241 -0.5269  0.4651  0.2256
  145SAPE   O3215936   0.956   5.693  10.364 -0.0272  0.2897  0.4199
  145SAPE   C3215937   0.851   5.784  10.169 -0.1590 -0.0951 -0.7406
  145SAPE   H2X15938   0.903   5.882  10.177  0.7008 -0.3827 -2.3590
  145SAPE   H2Y15939   0.759   5.794  10.230  0.4159 -2.2900  0.5975
  145SAPE   C2315940   0.790   5.416   9.860  0.1127 -0.1270 -0.4787
  145SAPE   H3R15941   0.826   5.521   9.851  0.4057 -0.1152  0.6090
  145SAPE   H3S15942   0.707   5.446   9.927  0.1233  0.7995 -0.8594
  145SAPE   C2415943   0.730   5.351   9.733 -1.0246 -0.4199  0.1829
  145SAPE   H4R15944   0.652   5.415   9.687 -0.8895 -0.3841  0.0020
  145SAPE   H4S15945   0.675   5.261   9.766 -1.6138  0.0951  0.6209
  145SAPE   C2515946   0.834   5.299   9.633  0.8826 -0.1914 -0.6211
  145SAPE   H5R15947   0.890   5.207   9.656  2.3365  1.0450  1.0015
  145SAPE   C2615948   0.867   5.360   9.520  0.1474 -0.4344  1.2427
  145SAPE   H6R15949   0.945   5.323   9.453 -1.7049  1.4668 -2.2609
  145SAPE   C2715950   0.811   5.498   9.473  0.4200  0.3498  0.3008
  145SAPE   H7R15951   0.720   5.534   9.527 -2.6447 -1.0871 -3.4002
  145SAPE   H7S15952   0.774   5.473   9.371  0.7784 -2.6108  0.8138
  145SAPE   C2815953   0.921   5.609   9.471  0.3781  0.0030 -0.1933
  145SAPE   H8R15954   0.993   5.611   9.554  0.2184  2.9358 -0.0085
  145SAPE   C2915955   0.920   5.698   9.370  0.0368  0.6722 -0.2013
  145SAPE   H9R15956   0.993   5.780   9.370  0.0714  0.9391 -5.0158
  145SAPE  C21015957   0.825   5.711   9.254  0.3047 -0.3650 -1.1384
  145SAPE  H10R15958   0.751   5.783   9.294 -0.2171 -2.4518  2.0017
  145SAPE  H10S15959   0.771   5.615   9.239  1.6234 -1.4307  0.5706
  145SAPE  C21115960   0.903   5.751   9.132  0.1429  0.1198  0.1714
  145SAPE  H11R15961   0.999   5.699   9.127  0.2679  0.3615  0.0633
  145SAPE  C21215962   0.856   5.831   9.035 -0.4068 -0.3939  0.1329
  145SAPE  H12R15963   0.920   5.865   8.952  1.3484 -0.9412  1.2020
  145SAPE  C21315964   0.714   5.882   9.020 -0.5695  0.0730 -0.2546
  145SAPE  H13R15965   0.708   5.986   9.060 -1.1218 -0.5167  1.2960
  145SAPE  H13S15966   0.635   5.837   9.085  0.1911 -2.0346 -0.7221
  145SAPE  C21415967   0.661   5.890   8.876 -0.6792 -0.2812  0.4705
  145SAPE  H14R15968   0.596   5.804   8.853  0.2278 -1.3096  1.6109
  145SAPE  C21515969   0.692   5.983   8.791 -0.0242  0.0977 -0.0387
  145SAPE  H15R15970   0.648   5.980   8.691 -0.4124  0.0590  0.1312
  145SAPE  C21615971   0.792   6.096   8.816  0.0936  0.1755  0.0933
  145SAPE  H16R15972   0.856   6.080   8.906 -0.2628  0.0149  0.3178
  145SAPE  H16S15973   0.753   6.198   8.833  0.7785  0.0112  3.2290
  145SAPE  C21715974   0.901   6.101   8.705 -0.3190 -0.3094 -0.2988
  145SAPE  H17R15975   0.949   6.003   8.685 -0.0234 -0.9017  2.7912
  145SAPE  H17S15976   0.982   6.166   8.745 -0.5703 -2.4645  4.3748
  145SAPE  C21815977   0.847   6.162   8.579  0.3571 -0.7881 -0.5808
  145SAPE  H18R15978   0.749   6.122   8.545 -0.7622 -0.1903  1.7440
  145SAPE  H18S15979   0.913   6.140   8.492  1.2772 -2.8258  0.5713
  145SAPE  C21915980   0.827   6.318   8.582 -0.1853  0.4795 -0.2408
  145SAPE  H19R15981   0.927   6.365   8.592 -2.0774  4.9166 -0.1053
  145SAPE  H19S15982   0.770   6.354   8.670  0.4992  1.1347 -0.0546
  145SAPE  C22015983   0.772   6.374   8.452  0.5826  0.1799  0.3849
  145SAPE  H20R15984   0.686   6.316   8.415 -0.1485  1.0312  0.7064
  145SAPE  H20S15985   0.850   6.368   8.373 -2.7698 -0.4877 -3.1754
  145SAPE  H20T15986   0.751   6.483   8.460 -1.4330 -0.0447 -1.1322
  145SAPE   C3315987   0.820   5.763  10.020 -0.6159 -0.4636  0.9347
  145SAPE   H3X15988   0.785   5.659  10.002 -0.5714 -1.0612  3.7885
  145SAPE   H3Y15989   0.915   5.775   9.965  0.6206  0.8022  3.1988
  145SAPE   C3415990   0.722   5.863   9.957  0.0036 -0.4084 -0.1750
  145SAPE   H4X15991   0.746   5.967   9.988  0.6398 -0.5841 -0.0776
  145SAPE   H4Y15992   0.621   5.853  10.002 -0.3640 -1.5681 -1.2096
  145SAPE   C3515993   0.702   5.846   9.804  0.1954  0.4191 -0.6653
  145SAPE   H5X15994   0.666   5.745   9.775  2.0889 -0.4123 -0.3046
  145SAPE   H5Y15995   0.800   5.859   9.753  0.8088  1.7802  0.7890
  145SAPE   C3615996   0.613   5.962   9.767  0.4892 -1.0368 -0.7926
  145SAPE   H6X15997   0.654   6.059   9.802 -1.4556 -0.2941 -0.5006
  145SAPE   H6Y15998   0.519   5.948   9.824 -0.6282  1.4934 -1.8686
  145SAPE   C3715999   0.579   5.944   9.618  0.2656  0.0350  0.1698
  145SAPE   H7X16000   0.485   5.996   9.590 -0.0885 -2.2349 -3.4382
  145SAPE   H7Y16001   0.579   5.834   9.606  1.2153  0.0182  0.2192
  145SAPE   C3816002   0.681   5.981   9.510  0.1993 -0.4804 -0.3792
  145SAPE   H8X16003   0.749   5.892   9.507  0.2085 -0.4837 -0.0064
  145SAPE   H8Y16004   0.729   6.080   9.527  0.6534 -0.3906 -1.9625
  145SAPE   C3916005   0.617   6.002   9.369 -0.4949  0.0917  0.0591
  145SAPE   H9X16006   0.550   5.920   9.337  0.0431 -0.2865 -0.1033
  145SAPE   H9Y16007   0.691   6.005   9.287  0.0188  1.2282  0.5374
  145SAPE  C31016008   0.530   6.128   9.362 -0.1635 -0.0721 -0.5150
  145SAPE  H10X16009   0.570   6.217   9.415 -1.5447  0.8097 -0.9219
  145SAPE  H10Y16010   0.434   6.099   9.409 -0.7649 -0.2019 -1.8010
  145SAPE  C31116011   0.498   6.184   9.222 -0.0224  0.6246 -0.1589
  145SAPE  H11X16012   0.403   6.242   9.231 -1.0601 -1.1788  1.0568
  145SAPE  H11Y16013   0.476   6.103   9.149 -1.3557  1.3326 -0.5854
  145SAPE  C31216014   0.623   6.261   9.171  0.1665 -0.0624  0.1481
  145SAPE  H12X16015   0.671   6.186   9.105 -1.8842  0.4190 -2.0395
  145SAPE  H12Y16016   0.699   6.289   9.247  0.5800  1.0994 -0.6509
  145SAPE  C31316017   0.589   6.390   9.087 -0.3295  0.3433 -0.3813
  145SAPE  H13X16018   0.490   6.423   9.125 -0.1499 -0.4583  0.8661
  145SAPE  H13Y16019   0.578   6.361   8.981  0.4547  1.0028 -0.6503
  145SAPE  C31416020   0.707   6.482   9.101 -0.3078 -0.7983 -0.1756
  145SAPE  H14X16021   0.795   6.418   9.079 -1.2104 -2.6384  1.3566
  145SAPE  H14Y16022   0.725   6.516   9.205 -2.9699  2.2170 -0.5573
  145SAPE  C31516023   0.702   6.591   8.990  0.5937 -0.8500 -0.3668
  145SAPE  H15X16024   0.674   6.541   8.895  0.8248 -1.5417 -0.0741
  145SAPE  H15Y16025   0.791   6.655   8.974 -0.1698  0.1699 -0.6879
  145SAPE  C31616026   0.612   6.704   9.038 -0.1911  0.6869 -0.5744
  145SAPE  H16X16027   0.628   6.744   9.140 -0.0212 -2.1500  0.5921
  145SAPE  H16Y16028   0.505   6.674   9.032 -0.6554  2.1846 -0.0865
  145SAPE  C31716029   0.627   6.823   8.949  0.1855 -0.4339 -0.3856
  145SAPE  H17X16030   0.731   6.858   8.965 -0.9733  1.9891  2.6589
  145SAPE  H17Y16031   0.559   6.897   8.996  1.8502 -0.5993  2.5052
  145SAPE  C31816032   0.595   6.805   8.798 -1.2172 -0.4439 -0.3971
  145SAPE  H18X16033   0.495   6.763   8.774 -1.0937 -0.8189 -0.2486
  145SAPE  H18Y16034   0.674   6.736   8.763  1.2767  1.0896  1.7840
  145SAPE  H18Z16035   0.600   6.908   8.755 -0.0451 -0.2601  0.1535
  146SAPE     N16036   6.050   0.959  10.767 -0.0615  0.2265 -0.1838
  146SAPE   HN116037   5.977   1.032  10.757  0.3229  0.5718 -0.5449
  146SAPE   HN216038   6.146   0.997  10.779  0.0020  0.6395 -1.7797
  146SAPE   HN316039   6.058   0.922  10.670 -1.8171  0.2223 -0.3488
  146SAPE   C1216040   6.017   0.854  10.856 -0.1614  0.0237 -0.6660
  146SAPE  H12A16041   6.007   0.899  10.958  2.3134  2.2462 -1.2979
  146SAPE  H12B16042   6.105   0.786  10.847  0.9804  1.4408 -0.4449
  146SAPE   C1116043   5.883   0.793  10.826 -0.3339  1.6177  0.6590
  146SAPE  H11A16044   5.900   0.739  10.731 -1.3785  0.2402  1.2199
  146SAPE  H11B16045   5.817   0.883  10.824 -0.8486  1.2450 -1.2509
  146SAPE     P16046   5.903   0.543  10.909  0.6214 -0.3727 -0.1504
  146SAPE   O1316047   6.051   0.535  10.925 -0.8414 -0.5812  0.3245
  146SAPE   O1416048   5.841   0.456  11.015 -0.8857 -0.6282  0.1836
  146SAPE   O1216049   5.860   0.689  10.921 -0.0280 -0.4271 -0.3490
  146SAPE   O1116050   5.862   0.493  10.764  0.5537 -0.0732  0.4594
  146SAPE    C116051   5.797   0.365  10.759  0.3084 -0.0864  0.0833
  146SAPE    HA16052   5.843   0.290  10.826  1.1128  0.6686  0.3991
  146SAPE    HB16053   5.694   0.377  10.801  0.4085  2.4911 -0.2532
  146SAPE    C216054   5.774   0.314  10.616 -0.1961  0.4257 -0.0648
  146SAPE    HS16055   5.703   0.228  10.619 -3.3142  2.8407  0.1038
  146SAPE   O2116056   5.898   0.290  10.559 -0.3005 -0.1558 -0.1866
  146SAPE   C2116057   5.982   0.196  10.611 -0.8603 -0.7075  0.2762
  146SAPE   O2216058   5.956   0.121  10.700  0.0004 -0.5365  0.1038
  146SAPE   C2216059   6.115   0.201  10.536  0.4623  0.3197  0.5708
  146SAPE   H2R16060   6.132   0.294  10.478 -1.0005  0.6573  0.6569
  146SAPE   H2S16061   6.194   0.181  10.611  1.0125 -0.1465 -0.1156
  146SAPE    C316062   5.697   0.418  10.531 -0.2608  0.5715  0.0648
  146SAPE    HX16063   5.755   0.512  10.543  1.8175 -0.7098  0.7986
  146SAPE    HY16064   5.599   0.430  10.581  0.2132 -0.2282  1.2594
  146SAPE   O3116065   5.689   0.381  10.387  0.0370  0.0938  0.5374
  146SAPE   C3116066   5.780   0.440  10.304  0.2127  0.3082  0.9326
  146SAPE   O3216067   5.880   0.499  10.336  0.1435  0.6319 -0.4403
  146SAPE   C3216068   5.736   0.432  10.164 -0.3217 -0.0386  0.2925
  146SAPE   H2X16069   5.827   0.447  10.101  0.5650  1.6817  1.8737
  146SAPE   H2Y16070   5.657   0.507  10.141 -0.2029 -0.4531 -1.6454
  146SAPE   C2316071   6.131   0.084  10.429  0.2790  0.5538 -0.1478
  146SAPE   H3R16072   6.140  -0.013  10.483  1.4114  0.4406 -0.4970
  146SAPE   H3S16073   6.234   0.098  10.389  2.0271  1.9962  4.1783
  146SAPE   C2416074   6.021   0.076  10.329  0.3293 -0.3124  0.3160
  146SAPE   H4R16075   5.916   0.079  10.366  0.0849  2.6014 -0.3864
  146SAPE   H4S16076   6.030  -0.024  10.280  1.3404 -0.5948  1.0355
  146SAPE   C2516077   6.046   0.196  10.238 -0.5008  0.0054 -0.3258
  146SAPE   H5R16078   6.025   0.296  10.279 -1.4206 -0.6083  0.7421
  146SAPE   C2616079   6.094   0.194  10.116 -0.2310  0.0992 -0.0250
  146SAPE   H6R16080   6.101   0.287  10.057  0.3115 -0.8520 -1.5116
  146SAPE   C2716081   6.138   0.083  10.033 -0.2207  0.5597  0.7378
  146SAPE   H7R16082   6.062   0.043   9.962 -0.4167  0.2469  1.1155
  146SAPE   H7S16083   6.174  -0.006  10.089 -0.5730  0.7395  1.2579
  146SAPE   C2816084   6.266   0.111   9.958 -0.4797  0.1977  0.3662
  146SAPE   H8R16085   6.352   0.138  10.022 -1.6039  1.5746  1.3450
  146SAPE   C2916086   6.281   0.138   9.827 -0.6310  0.2229 -0.2095
  146SAPE   H9R16087   6.380   0.163   9.785 -0.0262 -0.8571  0.5282
  146SAPE  C21016088   6.180   0.132   9.715  0.4263  0.1193 -0.8733
  146SAPE  H10R16089   6.108   0.216   9.727  0.5701 -0.0459  1.9195
  146SAPE  H10S16090   6.113   0.048   9.740 -0.1695  0.4405 -1.3772
  146SAPE  C21116091   6.220   0.110   9.568  0.6960  0.0926 -0.5011
  146SAPE  H11R16092   6.173   0.020   9.525 -1.0877  0.6484  0.1899
  146SAPE  C21216093   6.299   0.181   9.487  1.3439  0.6936  0.4380
  146SAPE  H12R16094   6.307   0.134   9.388  3.3147  1.5443  0.1261
  146SAPE  C21316095   6.381   0.305   9.513 -0.5797  0.1015  0.2509
  146SAPE  H13R16096   6.357   0.370   9.600 -1.7264  2.3403 -1.6349
  146SAPE  H13S16097   6.360   0.363   9.421  0.9295 -2.3585 -1.7808
  146SAPE  C21416098   6.525   0.254   9.519 -0.1115 -0.3970  0.2410
  146SAPE  H14R16099   6.549   0.183   9.599 -1.0748 -1.5172 -0.4202
  146SAPE  C21516100   6.627   0.283   9.434  1.0981 -0.1273 -0.1343
  146SAPE  H15R16101   6.727   0.238   9.443  0.4291 -1.6959 -0.2191
  146SAPE  C21616102   6.611   0.377   9.309  0.6273 -0.4400  0.0911
  146SAPE  H16R16103   6.681   0.462   9.325 -0.6676  0.5428  0.6512
  146SAPE  H16S16104   6.513   0.430   9.305  1.0579  0.3090 -1.0501
  146SAPE  C21716105   6.633   0.299   9.177 -1.1060  0.3465  0.2125
  146SAPE  H17R16106   6.593   0.195   9.175 -0.9593  0.2898 -1.6971
  146SAPE  H17S16107   6.744   0.296   9.171 -1.1375  1.4800 -1.8734
  146SAPE  C21816108   6.582   0.377   9.051 -0.4205 -0.2396  0.5402
  146SAPE  H18R16109   6.474   0.402   9.062 -0.7150 -1.0221 -0.5174
  146SAPE  H18S16110   6.590   0.305   8.968 -1.8662  2.2200 -1.9066
  146SAPE  C21916111   6.667   0.498   9.023  0.0740 -0.5221 -0.1139
  146SAPE  H19R16112   6.773   0.467   9.013 -0.3034 -2.2137  0.8321
  146SAPE  H19S16113   6.665   0.561   9.114 -1.3299 -1.1652  0.3340
  146SAPE  C22016114   6.626   0.591   8.901  0.0405 -0.2914  0.0584
  146SAPE  H20R16115   6.711   0.654   8.870 -1.1359  2.1384  1.4807
  146SAPE  H20S16116   6.548   0.663   8.934  1.8125  1.4181  0.7105
  146SAPE  H20T16117   6.598   0.533   8.810 -1.8354 -0.9385  0.9813
  146SAPE   C3316118   5.677   0.291  10.126  0.0730  0.6969  0.4059
  146SAPE   H3X16119   5.592   0.254  10.186 -0.1111 -0.0904 -0.3194
  146SAPE   H3Y16120   5.752   0.209  10.138  1.2000  1.8265  1.3774
  146SAPE   C3416121   5.624   0.287   9.980  0.7120 -0.0635 -0.2802
  146SAPE   H4X16122   5.596   0.387   9.940  1.2598 -0.9282 -3.0096
  146SAPE   H4Y16123   5.532   0.226   9.988 -0.5159  1.6396 -0.8146
  146SAPE   C3516124   5.721   0.239   9.869 -0.0387  0.9138 -0.8012
  146SAPE   H5X16125   5.772   0.144   9.897  0.4420  0.8246 -1.9226
  146SAPE   H5Y16126   5.803   0.310   9.850  1.2746 -0.4727 -0.4882
  146SAPE   C3616127   5.651   0.204   9.737 -0.3203 -0.8904 -0.3297
  146SAPE   H6X16128   5.555   0.257   9.721  0.1535  1.5168  3.5190
  146SAPE   H6Y16129   5.613   0.100   9.748 -1.0822 -0.4939  0.9627
  146SAPE   C3716130   5.745   0.225   9.623 -0.3579  0.8039  0.2077
  146SAPE   H7X16131   5.843   0.177   9.645  1.2402  1.2975 -4.6605
  146SAPE   H7Y16132   5.761   0.335   9.619  1.1898  0.6066  0.4345
  146SAPE   C3816133   5.684   0.172   9.490 -0.5482 -0.3362 -0.3274
  146SAPE   H8X16134   5.593   0.233   9.474 -0.6528  0.0477  1.5201
  146SAPE   H8Y16135   5.661   0.064   9.497 -2.0722  0.0712  1.5087
  146SAPE   C3916136   5.781   0.174   9.379 -0.3124 -0.2241 -0.6809
  146SAPE   H9X16137   5.740   0.116   9.293 -0.1391 -1.4414  0.0383
  146SAPE   H9Y16138   5.872   0.126   9.420  0.8419  1.6932 -0.8604
  146SAPE  C31016139   5.819   0.317   9.333 -0.5913 -0.3679  0.1407
  146SAPE  H10X16140   5.840   0.383   9.420 -1.6290 -0.3138  0.3634
  146SAPE  H10Y16141   5.723   0.348   9.287 -1.4425 -0.9818  1.4469
  146SAPE  C31116142   5.916   0.326   9.220  0.2334 -0.1802  0.2087
  146SAPE  H11X16143   5.914   0.423   9.166  0.5329  0.2539  0.9468
  146SAPE  H11Y16144   5.890   0.256   9.138  1.1612 -1.1082  0.6810
  146SAPE  C31216145   6.061   0.293   9.254  0.6640  0.1619  0.4215
  146SAPE  H12X16146   6.055   0.185   9.282 -1.3137  0.2225  0.3386
  146SAPE  H12Y16147   6.090   0.353   9.343 -0.1342  1.2066 -0.0039
  146SAPE  C31316148   6.158   0.319   9.139  0.1155 -0.4412  0.0616
  146SAPE  H13X16149   6.260   0.284   9.167  1.0156  3.9320  3.2715
  146SAPE  H13Y16150   6.154   0.428   9.118 -1.0688 -0.6619 -0.9928
  146SAPE  C31416151   6.120   0.244   9.006 -0.3969  0.0518  0.7397
  146SAPE  H14X16152   6.032   0.298   8.967 -0.3987  0.0231  0.7044
  146SAPE  H14Y16153   6.086   0.139   9.017 -0.1150 -0.0116  1.0341
  146SAPE  C31516154   6.224   0.257   8.895  0.1939 -0.7328  0.4227
  146SAPE  H15X16155   6.309   0.189   8.915 -0.6024 -2.0558 -0.5198
  146SAPE  H15Y16156   6.259   0.362   8.891  0.4294 -0.7875  0.9369
  146SAPE  C31616157   6.154   0.224   8.762 -0.2633  0.2059  0.6101
  146SAPE  H16X16158   6.065   0.289   8.749 -0.3086 -0.2101 -1.6308
  146SAPE  H16Y16159   6.123   0.117   8.764 -0.7632  0.3607  1.6529
  146SAPE  C31716160   6.241   0.245   8.634 -0.3562  0.4564 -0.2129
  146SAPE  H17X16161   6.261   0.353   8.617 -1.7786  0.8618  0.4937
  146SAPE  H17Y16162   6.186   0.201   8.548  1.1675 -0.0880 -0.9378
  146SAPE  C31816163   6.374   0.175   8.644 -0.4769  0.5611  0.8345
  146SAPE  H18X16164   6.360   0.065   8.646 -0.9289  0.6183  0.7581
  146SAPE  H18Y16165   6.424   0.207   8.738  1.9192  3.0735 -1.1109
  146SAPE  H18Z16166   6.443   0.190   8.558 -0.1218  2.1329  1.3624
  147SAPE     N16167   6.417   4.128  10.957 -1.2012  0.6787  0.5966
  147SAPE   HN116168   6.316   4.128  10.932 -1.9857 -2.2619  3.0963
  147SAPE   HN216169   6.411   4.101  11.057 -0.6717  0.8746  0.6831
  147SAPE   HN316170   6.467   4.219  10.965 -0.9151  0.9527 -2.8052
  147SAPE   C1216171   6.493   4.040  10.863  0.4551  0.3384 -0.3616
  147SAPE  H12A16172   6.460   4.068  10.761 -0.6091 -0.1318 -0.1619
  147SAPE  H12B16173   6.471   3.933  10.883  1.3838 -0.0839 -1.4968
  147SAPE   C1116174   6.638   4.073  10.872 -0.3727  0.2923 -0.2797
  147SAPE  H11A16175   6.659   4.179  10.846 -3.3156  1.3133  1.0626
  147SAPE  H11B16176   6.697   4.006  10.806  0.3315  0.3666  0.2576
  147SAPE     P16177   6.844   4.047  11.040 -0.2737 -0.1219  0.1412
  147SAPE   O1316178   6.906   4.181  11.025 -0.2620  0.4011  0.1823
  147SAPE   O1416179   6.844   3.987  11.180  0.4239 -0.2890 -0.7447
  147SAPE   O1216180   6.691   4.059  11.000  0.0937 -0.4681 -0.6136
  147SAPE   O1116181   6.905   3.938  10.946 -0.0219 -0.9869  0.0071
  147SAPE    C116182   6.996   3.841  10.988 -0.1648 -0.0632 -0.4136
  147SAPE    HA16183   7.083   3.879  11.046  0.8572 -1.9308 -0.6072
  147SAPE    HB16184   6.957   3.749  11.038  0.8205  0.3887  1.2590
  147SAPE    C216185   7.072   3.773  10.866  0.0891 -0.6396  0.3172
  147SAPE    HS16186   7.134   3.690  10.907  0.0092 -0.1695  1.4386
  147SAPE   O2116187   7.140   3.871  10.785 -0.2570 -0.0010  0.5733
  147SAPE   C2116188   7.251   3.914  10.835  0.2445  0.1727 -0.3166
  147SAPE   O2216189   7.315   3.866  10.923 -0.7989 -0.6072 -0.4395
  147SAPE   C2216190   7.304   4.027  10.744 -0.3369  0.0825  0.3149
  147SAPE   H2R16191   7.370   3.978  10.668  0.5939  1.2517  0.3328
  147SAPE   H2S16192   7.219   4.077  10.692  0.2766  1.0464  0.2171
  147SAPE    C316193   6.973   3.713  10.767  0.0585 -0.4886  0.4120
  147SAPE    HX16194   6.893   3.788  10.750  0.4357  0.7797  3.5372
  147SAPE    HY16195   6.924   3.630  10.822  1.6452 -0.7933  1.4486
  147SAPE   O3116196   7.042   3.658  10.649 -0.4263 -0.4554  0.1476
  147SAPE   C3116197   7.038   3.738  10.547 -0.2762  0.2824  0.6905
  147SAPE   O3216198   6.979   3.843  10.537  0.1421 -0.4032  0.2140
  147SAPE   C3216199   7.121   3.677  10.426  0.1233  0.0156 -0.5945
  147SAPE   H2X16200   7.080   3.576  10.403 -1.9171  0.7296 -0.2690
  147SAPE   H2Y16201   7.229   3.660  10.447  0.0514 -4.0271 -2.4830
  147SAPE   C2316202   7.392   4.132  10.810  0.5640  0.1082  0.1209
  147SAPE   H3R16203   7.462   4.079  10.879 -0.1058  0.6018  1.2046
  147SAPE   H3S16204   7.326   4.206  10.859  1.4529  1.3783 -0.5351
  147SAPE   C2416205   7.485   4.204  10.713  0.1077  0.1732 -0.0970
  147SAPE   H4R16206   7.536   4.294  10.753  0.5705 -0.7522  1.4910
  147SAPE   H4S16207   7.417   4.262  10.647  0.6861 -0.1107 -0.9577
  147SAPE   C2516208   7.596   4.125  10.641  0.2277  0.0882 -0.2746
  147SAPE   H5R16209   7.680   4.096  10.706 -1.1805  3.1080  3.2325
  147SAPE   C2616210   7.584   4.087  10.510 -0.1686 -0.0662 -0.5475
  147SAPE   H6R16211   7.664   4.028  10.462  0.7347 -1.1659  2.1189
  147SAPE   C2716212   7.473   4.122  10.415 -0.9430 -0.6458 -0.7327
  147SAPE   H7R16213   7.514   4.189  10.337 -0.0233  0.4320  0.6139
  147SAPE   H7S16214   7.392   4.183  10.461 -0.9484 -0.7208 -0.6413
  147SAPE   C2816215   7.405   4.004  10.357  0.0744 -0.3427  0.1797
  147SAPE   H8R16216   7.355   3.932  10.423 -0.0028 -0.4961 -0.0434
  147SAPE   C2916217   7.413   3.956  10.228  0.4317 -0.5820  0.0140
  147SAPE   H9R16218   7.378   3.855  10.202 -1.3790  0.0949 -0.3869
  147SAPE  C21016219   7.480   4.026  10.113 -0.5220  0.3775  0.1937
  147SAPE  H10R16220   7.543   3.953  10.058 -0.6622 -1.1962  2.0158
  147SAPE  H10S16221   7.546   4.103  10.158 -0.5685  1.4352 -1.4708
  147SAPE  C21116222   7.390   4.099  10.023 -0.1006  0.9940 -0.2535
  147SAPE  H11R16223   7.312   4.146  10.085 -1.1197  0.0662 -0.8021
  147SAPE  C21216224   7.396   4.113   9.889 -0.4082  0.0703  0.1260
  147SAPE  H12R16225   7.312   4.154   9.832  1.0486  0.1515 -2.0731
  147SAPE  C21316226   7.509   4.058   9.804  0.0651  0.4411 -0.8056
  147SAPE  H13R16227   7.469   3.961   9.769  1.4331 -2.2976  4.2611
  147SAPE  H13S16228   7.585   4.017   9.874 -1.9526  0.2974  1.4432
  147SAPE  C21416229   7.568   4.169   9.719 -0.4457  0.3189 -0.4919
  147SAPE  H14R16230   7.503   4.187   9.631 -0.7893 -1.4361 -0.6493
  147SAPE  C21516231   7.684   4.235   9.726  0.6022 -0.4954  0.0088
  147SAPE  H15R16232   7.711   4.301   9.643 -1.0249 -0.6202 -0.6537
  147SAPE  C21616233   7.788   4.210   9.836 -0.0067  0.3015 -0.2930
  147SAPE  H16R16234   7.884   4.260   9.809 -0.4054  0.1343 -2.1285
  147SAPE  H16S16235   7.794   4.104   9.869 -0.5272  0.3794  0.0733
  147SAPE  C21716236   7.742   4.290   9.961  0.5592 -0.3696  0.0646
  147SAPE  H17R16237   7.641   4.262   9.999  0.6389  1.8102  2.1060
  147SAPE  H17S16238   7.739   4.399   9.941 -1.9819 -0.8248 -2.6012
  147SAPE  C21816239   7.848   4.274  10.064  0.5585  0.0072  0.2002
  147SAPE  H18R16240   7.940   4.328  10.032  0.8746 -0.6904 -0.0809
  147SAPE  H18S16241   7.871   4.166  10.067  1.0269  0.0449 -1.2934
  147SAPE  C21916242   7.810   4.324  10.201  0.1224  0.3043 -1.7097
  147SAPE  H19R16243   7.742   4.254  10.254 -0.0632  0.0169 -2.3083
  147SAPE  H19S16244   7.776   4.429  10.189  0.4770  0.5842 -0.3405
  147SAPE  C22016245   7.939   4.323  10.283  0.0465 -0.1709  0.0439
  147SAPE  H20R16246   7.923   4.351  10.389 -0.4547  0.5812 -0.2241
  147SAPE  H20S16247   8.015   4.392  10.240  1.4868  0.3504  3.1380
  147SAPE  H20T16248   7.990   4.224  10.277  1.1010  0.4504 -2.5132
  147SAPE   C3316249   7.111   3.754  10.297  0.0132 -0.3936 -0.0873
  147SAPE   H3X16250   7.172   3.847  10.298  0.7513 -0.8032 -1.9035
  147SAPE   H3Y16251   7.007   3.791  10.279 -0.0999 -0.8853 -0.4633
  147SAPE   C3416252   7.148   3.675  10.174  0.7988 -0.2939 -0.1259
  147SAPE   H4X16253   7.078   3.589  10.174 -0.9333  1.0518  0.1263
  147SAPE   H4Y16254   7.255   3.647  10.173  0.6806 -0.9344  1.8214
  147SAPE   C3516255   7.135   3.759  10.039 -0.0686  0.9466 -0.4836
  147SAPE   H5X16256   7.173   3.863  10.050 -1.6468  1.3722  1.3925
  147SAPE   H5Y16257   7.025   3.765  10.026 -0.2638 -2.5679 -1.3571
  147SAPE   C3616258   7.205   3.686   9.929  0.2291 -0.5903  1.5093
  147SAPE   H6X16259   7.142   3.595   9.914  0.5906 -0.8242  1.3840
  147SAPE   H6Y16260   7.309   3.662   9.962  0.4742 -2.5256 -0.4359
  147SAPE   C3716261   7.208   3.780   9.804  0.0015 -0.0398  0.5812
  147SAPE   H7X16262   7.267   3.872   9.823  1.1960 -0.2097 -1.8694
  147SAPE   H7Y16263   7.103   3.808   9.781 -0.0689 -0.5285  0.2946
  147SAPE   C3816264   7.273   3.706   9.688  0.1647  0.1692 -0.0158
  147SAPE   H8X16265   7.245   3.600   9.709 -0.2646  0.8227  3.1611
  147SAPE   H8Y16266   7.384   3.703   9.698  0.1045  0.5407  0.7807
  147SAPE   C3916267   7.222   3.747   9.551 -0.3897 -0.1687  0.4186
  147SAPE   H9X16268   7.274   3.685   9.474 -2.1490  0.1719 -1.1429
  147SAPE   H9Y16269   7.253   3.852   9.533  1.0792 -0.5949  0.3024
  147SAPE  C31016270   7.074   3.743   9.529  0.0047  0.0761  0.0482
  147SAPE  H10X16271   7.008   3.802   9.596 -0.8731 -0.0937 -0.6455
  147SAPE  H10Y16272   7.049   3.635   9.543  2.3950 -0.9081 -2.3574
  147SAPE  C31116273   7.038   3.798   9.390 -0.2060 -0.2075  0.3569
  147SAPE  H11X16274   7.070   3.904   9.385 -1.2250  0.0912  0.0005
  147SAPE  H11Y16275   6.929   3.793   9.371  0.1833 -0.8978 -1.9165
  147SAPE  C31216276   7.099   3.720   9.269 -0.4388  0.7435 -0.2809
  147SAPE  H12X16277   7.056   3.618   9.265  0.4506  0.3438  0.1829
  147SAPE  H12Y16278   7.209   3.706   9.283 -0.1380  3.8489  1.4007
  147SAPE  C31316279   7.075   3.785   9.132 -0.0867 -0.9424 -0.1249
  147SAPE  H13X16280   6.977   3.837   9.134  1.3993  2.0071  1.2057
  147SAPE  H13Y16281   7.081   3.700   9.060  1.9533 -0.5832 -0.4523
  147SAPE  C31416282   7.178   3.895   9.100  0.0087 -0.2945  0.1443
  147SAPE  H14X16283   7.271   3.858   9.148  1.4174  1.8928 -0.7363
  147SAPE  H14Y16284   7.144   3.992   9.142 -1.0041  0.4529 -2.2248
  147SAPE  C31516285   7.194   3.920   8.946 -0.0641 -0.0097 -0.5867
  147SAPE  H15X16286   7.217   3.825   8.894 -1.5248 -0.8078  0.1544
  147SAPE  H15Y16287   7.282   3.988   8.936 -0.9305  1.0505 -1.2501
  147SAPE  C31616288   7.067   3.989   8.895 -1.0872  0.1497  0.1613
  147SAPE  H16X16289   7.037   4.066   8.968  2.4216  2.9747 -1.0506
  147SAPE  H16Y16290   6.979   3.923   8.884 -0.8511 -0.0820 -0.4218
  147SAPE  C31716291   7.092   4.058   8.761  0.7022  0.0028  0.0968
  147SAPE  H17X16292   7.108   3.981   8.682  1.8455  0.2969  0.0278
  147SAPE  H17Y16293   7.181   4.125   8.762  0.0237  0.9125  0.6085
  147SAPE  C31816294   6.960   4.131   8.728  0.4287 -0.4400  0.0852
  147SAPE  H18X16295   6.940   4.204   8.809  1.1691  0.1383 -0.2430
  147SAPE  H18Y16296   6.873   4.062   8.719 -1.5930  2.2159 -3.2784
  147SAPE  H18Z16297   6.968   4.200   8.641  0.6929 -1.8038 -1.0071
  148SAPE     N16298   3.254   3.361  10.987  0.4876  0.1345 -0.4012
  148SAPE   HN116299   3.167   3.415  10.965 -0.0874 -0.5367  0.1580
  148SAPE   HN216300   3.222   3.262  11.001 -0.9222  0.4190 -1.3925
  148SAPE   HN316301   3.294   3.394  11.077  0.8479 -1.5989  0.1131
  148SAPE   C1216302   3.358   3.357  10.881 -0.5310 -0.2203 -0.0009
  148SAPE  H12A16303   3.318   3.308  10.789  0.1669 -3.6352  1.3370
  148SAPE  H12B16304   3.438   3.288  10.916  2.4604  1.9373 -2.1318
  148SAPE   C1116305   3.416   3.488  10.845  0.3174  0.5605 -0.4085
  148SAPE  H11A16306   3.486   3.476  10.759  0.8017  0.5202 -0.0115
  148SAPE  H11B16307   3.472   3.526  10.933 -0.4139  0.8482 -0.0582
  148SAPE     P16308   3.349   3.712  10.727  0.2211  0.4706 -0.0473
  148SAPE   O1316309   3.230   3.794  10.713  0.3950  0.1120 -0.0065
  148SAPE   O1416310   3.469   3.775  10.790 -0.2722  0.3286  0.8191
  148SAPE   O1216311   3.315   3.584  10.816  0.0824  0.5805  0.4827
  148SAPE   O1116312   3.387   3.641  10.592 -0.0382  0.3075 -0.4882
  148SAPE    C116313   3.283   3.600  10.511  0.4137  0.4696  0.8374
  148SAPE    HA16314   3.220   3.530  10.571  0.5881  0.2354  0.7483
  148SAPE    HB16315   3.222   3.685  10.474 -0.3352 -0.6453 -0.5908
  148SAPE    C216316   3.346   3.528  10.384 -0.4480  0.2897  0.5395
  148SAPE    HS16317   3.421   3.457  10.427  0.7072  1.4005  0.4129
  148SAPE   O2116318   3.404   3.623  10.290  0.1685  0.2728 -0.5476
  148SAPE   C2116319   3.470   3.572  10.183 -0.2577  0.0624 -0.1069
  148SAPE   O2216320   3.495   3.455  10.166  0.6010 -0.0584  0.3044
  148SAPE   C2216321   3.497   3.678  10.080  0.3126 -0.0949 -0.2347
  148SAPE   H2R16322   3.506   3.773  10.137  1.2584 -0.8684  0.9460
  148SAPE   H2S16323   3.591   3.655  10.026  0.5344 -2.4964  1.0723
  148SAPE    C316324   3.231   3.443  10.315  0.3428 -0.1006  0.2209
  148SAPE    HX16325   3.193   3.378  10.396  0.4121 -0.5885 -0.1379
  148SAPE    HY16326   3.280   3.383  10.235  1.2492  0.6183  0.2195
  148SAPE   O3116327   3.133   3.524  10.258  0.1905 -0.3365  0.3197
  148SAPE   C3116328   3.012   3.520  10.313  0.3193 -0.0882  0.4751
  148SAPE   O3216329   2.985   3.465  10.417  0.3523  0.4259 -0.1627
  148SAPE   C3216330   2.921   3.617  10.234 -0.0010  0.2384  0.9196
  148SAPE   H2X16331   2.930   3.595  10.125 -1.0089  0.0420  0.8684
  148SAPE   H2Y16332   2.955   3.723  10.242 -0.8526  0.5632  0.3522
  148SAPE   C2316333   3.404   3.673   9.952  0.1564  0.2388  0.2645
  148SAPE   H3R16334   3.424   3.574   9.905 -0.6438  0.0821  0.2423
  148SAPE   H3S16335   3.430   3.766   9.898  0.1493  1.3741  2.1241
  148SAPE   C2416336   3.256   3.681   9.992  0.0684 -0.1727  0.1109
  148SAPE   H4R16337   3.241   3.778  10.043  1.8777 -0.1584  0.6860
  148SAPE   H4S16338   3.230   3.602  10.065 -0.3478 -0.6673 -0.5604
  148SAPE   C2516339   3.178   3.661   9.863 -0.3687 -0.3488 -0.3168
  148SAPE   H5R16340   3.140   3.558   9.853 -1.1900 -0.0217 -0.6261
  148SAPE   C2616341   3.160   3.755   9.771  0.0724  0.0757 -0.6152
  148SAPE   H6R16342   3.106   3.731   9.678 -1.4157 -1.4581  0.5799
  148SAPE   C2716343   3.209   3.896   9.789  0.4330 -0.6191 -0.0390
  148SAPE   H7R16344   3.275   3.912   9.877  1.3640 -3.1801 -0.1883
  148SAPE   H7S16345   3.127   3.970   9.805  0.0607 -0.8490 -0.8244
  148SAPE   C2816346   3.291   3.940   9.666  0.4849  0.7091  0.0076
  148SAPE   H8R16347   3.398   3.925   9.682  0.4283 -0.5988 -0.6726
  148SAPE   C2916348   3.247   3.988   9.550  0.3578  0.1485  0.4409
  148SAPE   H9R16349   3.320   4.019   9.473  1.8606 -3.4392  0.2230
  148SAPE  C21016350   3.107   4.002   9.511 -0.1399 -0.4193  1.1045
  148SAPE  H10R16351   3.084   4.110   9.518 -0.2294 -0.2875 -0.7407
  148SAPE  H10S16352   3.038   3.948   9.580 -0.7406 -2.2027 -0.7603
  148SAPE  C21116353   3.072   3.958   9.369  0.0198 -0.8528 -1.0147
  148SAPE  H11R16354   3.061   3.849   9.358  0.8085 -0.9801 -0.6033
  148SAPE  C21216355   3.067   4.044   9.265  0.2412 -0.0249 -0.1845
  148SAPE  H12R16356   3.034   4.005   9.167  2.2671 -0.4692 -0.7434
  148SAPE  C21316357   3.094   4.191   9.269 -0.2033  0.5303  0.5069
  148SAPE  H13R16358   3.202   4.205   9.248 -0.2164  1.3149  0.9029
  148SAPE  H13S16359   3.074   4.237   9.369  1.4580  1.2294  0.5538
  148SAPE  C21416360   3.003   4.261   9.168 -0.3538 -0.4957  0.5444
  148SAPE  H14R16361   2.901   4.287   9.200  0.4812  1.6009  1.7011
  148SAPE  C21516362   3.045   4.312   9.046  0.4498 -0.2344  0.4045
  148SAPE  H15R16363   2.972   4.362   8.981  1.9924 -0.2700 -1.4195
  148SAPE  C21616364   3.191   4.313   9.001  0.3809 -0.0160  0.0102
  148SAPE  H16R16365   3.262   4.300   9.085 -0.7778  0.9146  1.1778
  148SAPE  H16S16366   3.227   4.405   8.951  0.0879  0.1816  0.1626
  148SAPE  C21716367   3.208   4.217   8.884  0.3638  0.8110  0.6529
  148SAPE  H17R16368   3.170   4.119   8.918 -1.1204  0.7505 -1.0328
  148SAPE  H17S16369   3.315   4.195   8.866  0.0017 -0.5076  0.0458
  148SAPE  C21816370   3.131   4.251   8.754  0.1526  0.0054  0.1957
  148SAPE  H18R16371   3.162   4.358   8.745  1.4157 -0.1689  2.0118
  148SAPE  H18S16372   3.022   4.235   8.767 -0.3026  1.0282 -1.9051
  148SAPE  C21916373   3.175   4.179   8.633 -0.4979 -0.4177 -0.4455
  148SAPE  H19R16374   3.146   4.072   8.624 -1.3624 -0.2703  0.4824
  148SAPE  H19S16375   3.285   4.193   8.638 -0.5227 -0.3160 -0.1959
  148SAPE  C22016376   3.121   4.242   8.502  0.0812  0.0556  0.1858
  148SAPE  H20R16377   3.158   4.187   8.413 -2.9621 -0.5861 -0.8107
  148SAPE  H20S16378   3.159   4.345   8.491 -1.6079  0.7857  0.8040
  148SAPE  H20T16379   3.011   4.240   8.486 -0.1325  1.1386  1.3903
  148SAPE   C3316380   2.777   3.599  10.287  0.2876 -0.0143  0.5809
  148SAPE   H3X16381   2.766   3.637  10.391 -1.7200 -0.7365  0.6894
  148SAPE   H3Y16382   2.749   3.491  10.290 -1.7000  0.4489  0.2278
  148SAPE   C3416383   2.680   3.685  10.198 -0.5839  0.2800  1.2099
  148SAPE   H4X16384   2.716   3.790  10.197 -1.2195  0.5016  1.2498
  148SAPE   H4Y16385   2.585   3.687  10.256  1.1548  2.5482  4.2878
  148SAPE   C3516386   2.648   3.635  10.056  0.9290  0.1170  0.0496
  148SAPE   H5X16387   2.542   3.663  10.037  0.2178 -3.0871 -1.4572
  148SAPE   H5Y16388   2.658   3.525  10.063 -2.1142 -0.2109  0.4219
  148SAPE   C3616389   2.732   3.706   9.948 -0.1741 -0.1248  0.0191
  148SAPE   H6X16390   2.840   3.693   9.968 -0.5223 -0.5057  1.7893
  148SAPE   H6Y16391   2.698   3.811   9.946 -0.3943 -0.1717  0.8341
  148SAPE   C3716392   2.691   3.638   9.812  0.0105  0.3996 -0.1938
  148SAPE   H7X16393   2.581   3.646   9.800 -0.2970  1.8651  2.6861
  148SAPE   H7Y16394   2.725   3.534   9.833 -0.1959  0.3825  0.0685
  148SAPE   C3816395   2.757   3.695   9.681 -0.6390  0.0991  0.0624
  148SAPE   H8X16396   2.866   3.683   9.699 -0.6363  1.3503  1.0278
  148SAPE   H8Y16397   2.743   3.805   9.674 -0.2605  0.1575  0.1938
  148SAPE   C3916398   2.704   3.642   9.554 -0.4498  0.2843  0.6957
  148SAPE   H9X16399   2.594   3.638   9.568 -0.7488 -3.0361 -1.3999
  148SAPE   H9Y16400   2.741   3.538   9.536  0.3811  0.8691 -1.3711
  148SAPE  C31016401   2.752   3.732   9.436 -0.2117  0.8515  0.1270
  148SAPE  H10X16402   2.780   3.665   9.352  1.2038  1.2769  0.2336
  148SAPE  H10Y16403   2.852   3.776   9.458 -0.2881  1.0262  0.1249
  148SAPE  C31116404   2.657   3.840   9.383 -0.2892  0.1890  0.2053
  148SAPE  H11X16405   2.666   3.936   9.438 -0.4313 -1.3979  3.1524
  148SAPE  H11Y16406   2.552   3.805   9.379  0.3792 -1.9241  0.0928
  148SAPE  C31216407   2.700   3.857   9.231 -0.0765 -0.1667 -0.2054
  148SAPE  H12X16408   2.670   3.761   9.186  0.7401 -1.3799  1.7022
  148SAPE  H12Y16409   2.809   3.873   9.223 -0.0880  0.5299  0.7182
  148SAPE  C31316410   2.627   3.971   9.158  0.4827  0.5435  0.6933
  148SAPE  H13X16411   2.633   4.065   9.217  2.9168  1.2269 -0.5187
  148SAPE  H13Y16412   2.519   3.946   9.146  0.6785  0.3748 -0.9362
  148SAPE  C31416413   2.689   3.998   9.021  0.0151 -0.0871  0.7090
  148SAPE  H14X16414   2.781   3.936   9.021  0.4158  0.4921 -0.1262
  148SAPE  H14Y16415   2.711   4.106   9.007  0.9821 -0.3687 -0.0468
  148SAPE  C31516416   2.591   3.949   8.911 -0.3408  0.3555 -0.3680
  148SAPE  H15X16417   2.508   4.023   8.920  0.4249  1.1005  0.9589
  148SAPE  H15Y16418   2.559   3.843   8.919  2.6442 -0.5325  1.5380
  148SAPE  C31616419   2.645   3.963   8.771 -0.6418 -0.1061 -0.4305
  148SAPE  H16X16420   2.720   3.882   8.761 -1.2449 -0.8839  1.1315
  148SAPE  H16Y16421   2.705   4.055   8.751  0.2315 -0.4495  0.5072
  148SAPE  C31716422   2.536   3.939   8.662 -0.5865 -0.4374  0.1938
  148SAPE  H17X16423   2.461   4.020   8.675 -0.2468 -0.4252  2.5699
  148SAPE  H17Y16424   2.483   3.846   8.693 -0.3832 -1.0288 -1.1805
  148SAPE  C31816425   2.593   3.947   8.518 -0.3200  0.1933 -0.1019
  148SAPE  H18X16426   2.654   4.039   8.507  0.4626 -0.2188  0.6343
  148SAPE  H18Y16427   2.512   3.942   8.443 -0.2133  1.4807 -0.3325
  148SAPE  H18Z16428   2.662   3.863   8.497 -1.3067 -1.9304  4.0025
  149SAPE     N16429   5.576   1.513  10.688  0.2042 -0.2083  0.7605
  149SAPE   HN116430   5.663   1.519  10.631  0.2498  1.0011  0.9286
  149SAPE   HN216431   5.530   1.606  10.679  0.7609  0.1277  1.2805
  149SAPE   HN316432   5.600   1.498  10.788 -0.8661 -1.2296  0.8843
  149SAPE   C1216433   5.481   1.398  10.664 -0.3808  0.1660  0.1199
  149SAPE  H12A16434   5.452   1.411  10.557  2.2934  0.1260 -0.6689
  149SAPE  H12B16435   5.401   1.408  10.741 -0.9861 -0.9421 -0.3400
  149SAPE   C1116436   5.554   1.269  10.684  0.0168  0.0837 -1.0264
  149SAPE  H11A16437   5.623   1.246  10.600  1.3817 -0.8680  0.3157
  149SAPE  H11B16438   5.486   1.182  10.678 -0.4511  0.4161 -0.6224
  149SAPE     P16439   5.726   1.163  10.856  0.2947  0.6891 -0.0788
  149SAPE   O1316440   5.803   1.118  10.737  0.2019  0.4204  0.6182
  149SAPE   O1416441   5.806   1.237  10.958 -0.0964  0.5113 -0.4112
  149SAPE   O1216442   5.609   1.258  10.811 -0.7733 -0.2650 -0.8073
  149SAPE   O1116443   5.654   1.044  10.925  0.4076  0.5182 -0.3026
  149SAPE    C116444   5.525   0.996  10.910  0.3908  0.2880 -0.1987
  149SAPE    HA16445   5.490   0.950  11.005  0.8001  0.5112  0.0629
  149SAPE    HB16446   5.449   1.074  10.889 -1.1862 -0.8574  1.0218
  149SAPE    C216447   5.506   0.896  10.787 -0.6805 -0.3831 -0.0910
  149SAPE    HS16448   5.553   0.798  10.809 -1.4201 -0.7811 -0.2521
  149SAPE   O2116449   5.572   0.945  10.663  0.2866 -0.2709  0.3239
  149SAPE   C2116450   5.637   0.854  10.599  0.7131  0.0420  0.3806
  149SAPE   O2216451   5.649   0.736  10.624  0.1147  0.8349  0.0746
  149SAPE   C2216452   5.677   0.911  10.464 -0.2615 -0.5566  0.0533
  149SAPE   H2R16453   5.622   1.005  10.438  1.0766 -0.0724 -1.1589
  149SAPE   H2S16454   5.781   0.945  10.480 -0.5230  0.9902 -1.1732
  149SAPE    C316455   5.353   0.873  10.763  0.2747 -0.7253  0.4271
  149SAPE    HX16456   5.298   0.966  10.736  0.5336 -0.8020 -0.3951
  149SAPE    HY16457   5.324   0.832  10.861  0.8549 -1.0879  0.4512
  149SAPE   O3116458   5.338   0.773  10.669  0.1947 -0.1441  0.5048
  149SAPE   C3116459   5.327   0.808  10.536  0.1342  0.5073 -0.2759
  149SAPE   O3216460   5.312   0.920  10.492 -0.1104  0.6718  0.1716
  149SAPE   C3216461   5.325   0.685  10.448 -0.0712  0.2106  0.4345
  149SAPE   H2X16462   5.233   0.633  10.480 -1.6909  1.9266 -1.1915
  149SAPE   H2Y16463   5.403   0.616  10.486 -0.7888 -0.4850  0.6519
  149SAPE   C2316464   5.682   0.819  10.343 -0.6964 -0.0755  0.0147
  149SAPE   H3R16465   5.600   0.833  10.269  2.2428  0.3703 -3.3953
  149SAPE   H3S16466   5.705   0.715  10.375 -0.5598  0.0263  0.2463
  149SAPE   C2416467   5.799   0.845  10.247  0.1139 -1.2039 -0.0114
  149SAPE   H4R16468   5.802   0.758  10.178  2.8950 -2.5984  1.6855
  149SAPE   H4S16469   5.897   0.832  10.298  0.8672  0.1590 -1.0307
  149SAPE   C2516470   5.789   0.969  10.155 -0.2770 -0.5698  0.7241
  149SAPE   H5R16471   5.818   1.060  10.209 -0.7593 -1.8001  3.2395
  149SAPE   C2616472   5.751   0.977  10.026  0.2909 -0.0319  0.4757
  149SAPE   H6R16473   5.771   1.077   9.984 -1.0097 -0.9710 -2.6236
  149SAPE   C2716474   5.707   0.870   9.941  0.5497 -0.3365  0.1616
  149SAPE   H7R16475   5.758   0.772   9.956  1.1864 -0.5802 -2.9428
  149SAPE   H7S16476   5.738   0.902   9.840 -0.0957  0.4851  0.2212
  149SAPE   C2816477   5.557   0.852   9.931  0.5605 -0.5975  0.0612
  149SAPE   H8R16478   5.509   0.849  10.030 -1.6491  1.2910 -0.8489
  149SAPE   C2916479   5.478   0.834   9.822  0.0222 -0.7822  0.2502
  149SAPE   H9R16480   5.369   0.834   9.836  0.0671  0.1998  0.6881
  149SAPE  C21016481   5.518   0.822   9.682 -0.1085 -0.6006 -0.2729
  149SAPE  H10R16482   5.577   0.909   9.645  0.1516 -0.2583  0.8986
  149SAPE  H10S16483   5.425   0.828   9.622 -0.3179  2.6435  0.1959
  149SAPE  C21116484   5.601   0.699   9.649  0.5506  0.1498  0.0713
  149SAPE  H11R16485   5.644   0.644   9.734  1.0255 -1.4468 -1.1581
  149SAPE  C21216486   5.622   0.652   9.526  0.0388  0.4367 -0.3449
  149SAPE  H12R16487   5.674   0.555   9.519 -3.1835 -1.5316  0.8044
  149SAPE  C21316488   5.569   0.710   9.398  0.9312 -0.4411  0.0906
  149SAPE  H13R16489   5.591   0.819   9.392 -0.8535  0.0416  1.4911
  149SAPE  H13S16490   5.461   0.687   9.411  1.2057 -1.5763  0.4194
  149SAPE  C21416491   5.605   0.628   9.281 -0.0373  1.1949  0.7730
  149SAPE  H14R16492   5.536   0.553   9.240 -0.0711  1.4683  0.3167
  149SAPE  C21516493   5.715   0.657   9.210  0.7923 -0.3083 -0.3068
  149SAPE  H15R16494   5.748   0.604   9.119  0.5556  1.0276 -1.2099
  149SAPE  C21616495   5.823   0.766   9.230 -0.1624  0.3573 -0.1119
  149SAPE  H16R16496   5.927   0.731   9.212 -0.1416  1.6298 -3.0877
  149SAPE  H16S16497   5.826   0.803   9.335  3.0029  1.5070 -0.5083
  149SAPE  C21716498   5.802   0.887   9.131 -0.7733  0.5575 -0.1651
  149SAPE  H17R16499   5.880   0.961   9.159 -0.4539 -0.2154  1.0596
  149SAPE  H17S16500   5.698   0.924   9.145 -0.8405  0.2874  0.0504
  149SAPE  C21816501   5.828   0.839   8.987  0.6175 -0.5837 -0.0615
  149SAPE  H18R16502   5.752   0.767   8.951 -0.7802  0.8392 -0.0790
  149SAPE  H18S16503   5.929   0.797   8.966 -0.0378 -1.2081 -2.1696
  149SAPE  C21916504   5.831   0.961   8.895 -0.0645  0.4651  0.3946
  149SAPE  H19R16505   5.922   1.024   8.898  0.7043 -0.6281  0.3258
  149SAPE  H19S16506   5.744   1.022   8.930 -0.4503  0.5208 -0.6194
  149SAPE  C22016507   5.816   0.926   8.742 -0.6718  0.2705  0.7169
  149SAPE  H20R16508   5.818   1.013   8.673  1.7984 -1.3555 -1.4408
  149SAPE  H20S16509   5.715   0.880   8.733 -1.2128  1.5662 -0.0268
  149SAPE  H20T16510   5.887   0.845   8.714  1.5636  1.5055  2.4095
  149SAPE   C3316511   5.328   0.702  10.299 -0.0278 -0.1002 -0.2392
  149SAPE   H3X16512   5.411   0.756  10.248 -1.2110  1.3155 -0.7096
  149SAPE   H3Y16513   5.234   0.759  10.284  0.9491  1.4820 -0.6382
  149SAPE   C3416514   5.329   0.566  10.223  0.0060 -0.7570 -0.7996
  149SAPE   H4X16515   5.241   0.506  10.257 -2.0816  2.0705 -0.8164
  149SAPE   H4Y16516   5.423   0.518  10.257  1.2941  1.0168 -1.7041
  149SAPE   C3516517   5.307   0.586  10.073 -0.0431  0.7879 -0.1960
  149SAPE   H5X16518   5.392   0.639  10.027  1.1968 -0.6818  0.2940
  149SAPE   H5Y16519   5.219   0.650  10.053  0.9202  1.8058 -1.3176
  149SAPE   C3616520   5.285   0.454   9.993  0.7558  0.2738  0.3699
  149SAPE   H6X16521   5.179   0.428  10.013  0.4160  1.6987  0.5022
  149SAPE   H6Y16522   5.348   0.376  10.041 -0.2668 -0.6147  0.2945
  149SAPE   C3716523   5.313   0.462   9.848 -0.0153  0.1312  1.0671
  149SAPE   H7X16524   5.417   0.494   9.829  0.0485 -1.1481 -1.1418
  149SAPE   H7Y16525   5.249   0.542   9.805  0.6807  0.3122  0.3437
  149SAPE   C3816526   5.284   0.320   9.786  0.9047 -0.0969  0.2549
  149SAPE   H8X16527   5.184   0.284   9.817  1.0925 -1.8876 -1.0837
  149SAPE   H8Y16528   5.364   0.247   9.813 -0.5822 -1.6916  0.5055
  149SAPE   C3916529   5.288   0.328   9.633  0.6977 -0.1473 -0.1836
  149SAPE   H9X16530   5.380   0.367   9.585 -0.0204 -1.1131 -2.4959
  149SAPE   H9Y16531   5.197   0.384   9.603  0.5428 -0.7558 -0.9130
  149SAPE  C31016532   5.268   0.182   9.584 -0.4824 -0.0662  0.8585
  149SAPE  H10X16533   5.206   0.126   9.656  0.4626 -2.2291  0.0770
  149SAPE  H10Y16534   5.367   0.133   9.592  0.1226  1.0411  0.5113
  149SAPE  C31116535   5.216   0.189   9.443 -0.5161 -0.1367 -0.1579
  149SAPE  H11X16536   5.109   0.216   9.458 -0.3864 -0.3257  1.2038
  149SAPE  H11Y16537   5.218   0.082   9.414 -0.8002 -0.4106  0.8178
  149SAPE  C31216538   5.278   0.289   9.342  0.1893 -0.6489 -0.4655
  149SAPE  H12X16539   5.387   0.266   9.334  0.7084  1.4881 -0.2177
  149SAPE  H12Y16540   5.269   0.398   9.358 -0.1065 -0.4651 -1.7729
  149SAPE  C31316541   5.222   0.274   9.194 -0.2701  0.1517  0.1752
  149SAPE  H13X16542   5.136   0.344   9.184  0.3165  0.7612 -0.8438
  149SAPE  H13Y16543   5.203   0.166   9.176 -1.4472  0.7154 -2.4207
  149SAPE  C31416544   5.320   0.323   9.090  0.3012  0.6116  0.2714
  149SAPE  H14X16545   5.350   0.429   9.108  0.3606  0.7581 -0.6374
  149SAPE  H14Y16546   5.264   0.329   8.994  2.1729 -0.1955 -0.9384
  149SAPE  C31516547   5.440   0.228   9.076 -0.7044  0.1989  0.5340
  149SAPE  H15X16548   5.413   0.121   9.091  0.6517 -0.0822  1.1873
  149SAPE  H15Y16549   5.509   0.245   9.162 -1.8680  0.4660  1.4518
  149SAPE  C31616550   5.519   0.231   8.945 -0.7635 -1.0055 -0.5682
  149SAPE  H16X16551   5.549   0.336   8.929 -1.2704 -0.7194  0.2691
  149SAPE  H16Y16552   5.451   0.204   8.861 -3.1702  1.4547  0.4311
  149SAPE  C31716553   5.644   0.141   8.930 -0.0360  0.3958  0.4231
  149SAPE  H17X16554   5.613   0.035   8.920  1.1131  0.0175  0.8031
  149SAPE  H17Y16555   5.701   0.153   9.025 -1.0243  0.0170  1.0906
  149SAPE  C31816556   5.739   0.191   8.815  0.3305  0.3576 -0.1779
  149SAPE  H18X16557   5.689   0.181   8.716 -1.0878  2.8252  0.1984
  149SAPE  H18Y16558   5.833   0.132   8.818 -0.5743 -1.2056 -1.3748
  149SAPE  H18Z16559   5.753   0.298   8.841  4.3785  0.0375 -0.4399
  150SAPE     N16560   5.769   0.316  11.226  0.2697 -0.2007  0.5638
  150SAPE   HN116561   5.750   0.371  11.312  0.6549 -0.1009  0.5884
  150SAPE   HN216562   5.790   0.380  11.146  0.4542  1.5116  1.9343
  150SAPE   HN316563   5.683   0.263  11.201 -1.4444  2.2606  0.8558
  150SAPE   C1216564   5.877   0.222  11.265  0.1211 -0.1655 -0.1259
  150SAPE  H12A16565   5.951   0.272  11.330 -0.5798  2.1786 -1.0311
  150SAPE  H12B16566   5.926   0.195  11.169 -0.4029  0.1855 -0.4975
  150SAPE   C1116567   5.815   0.102  11.343  0.1362  0.3786  0.4394
  150SAPE  H11A16568   5.773   0.156  11.431 -0.5307  1.2786 -0.4087
  150SAPE  H11B16569   5.899   0.035  11.370  2.2021  2.1183 -1.2829
  150SAPE     P16570   5.735  -0.082  11.166  0.2142 -0.5487  0.0423
  150SAPE   O1316571   5.880  -0.108  11.146 -0.3531  0.2222 -0.1370
  150SAPE   O1416572   5.642  -0.193  11.189 -0.4352  0.3357 -0.0481
  150SAPE   O1216573   5.713   0.025  11.286 -0.2098 -0.4993  0.8152
  150SAPE   O1116574   5.687   0.013  11.045 -0.0280 -0.8323  0.0211
  150SAPE    C116575   5.712  -0.028  10.909 -0.5378 -0.5177 -0.6941
  150SAPE    HA16576   5.787   0.033  10.853  0.0427 -1.5877 -1.1060
  150SAPE    HB16577   5.768  -0.123  10.898  1.3367  0.6578 -2.0770
  150SAPE    C216578   5.584  -0.028  10.825  0.2255  0.5120 -0.9025
  150SAPE    HS16579   5.531  -0.122  10.848  0.6599  0.0106 -1.9018
  150SAPE   O2116580   5.616  -0.011  10.685  0.6195  0.9523 -0.4193
  150SAPE   C2116581   5.666  -0.121  10.631  0.3067 -0.0916  0.1411
  150SAPE   O2216582   5.674  -0.228  10.692 -0.1705 -0.7830  0.2803
  150SAPE   C2216583   5.698  -0.098  10.484  0.4420 -0.0661 -0.1932
  150SAPE   H2R16584   5.617  -0.042  10.433  1.3700  1.1240 -0.3915
  150SAPE   H2S16585   5.791  -0.038  10.485 -0.0332  0.7507  2.2764
  150SAPE    C316586   5.484   0.083  10.857  0.1086 -0.2959 -0.9653
  150SAPE    HX16587   5.549   0.173  10.859  0.5179 -0.5964 -0.1835
  150SAPE    HY16588   5.455   0.073  10.964  2.2494  1.2240 -0.1731
  150SAPE   O3116589   5.370   0.086  10.775  0.1977  0.5529  0.3141
  150SAPE   C3116590   5.368   0.185  10.689  1.1769 -0.0945 -0.1429
  150SAPE   O3216591   5.452   0.274  10.680 -0.8537 -0.0526  0.0817
  150SAPE   C3216592   5.252   0.159  10.593  0.1954 -0.0736 -0.2928
  150SAPE   H2X16593   5.159   0.181  10.649  0.7151  1.4687  0.0191
  150SAPE   H2Y16594   5.251   0.056  10.551  0.4921 -0.0527 -0.3554
  150SAPE   C2316595   5.728  -0.229  10.405 -0.2263  0.1952  0.2326
  150SAPE   H3R16596   5.649  -0.302  10.433 -1.2441  1.1366 -0.1342
  150SAPE   H3S16597   5.821  -0.273  10.447 -0.9629 -0.9129  0.7859
  150SAPE   C2416598   5.717  -0.208  10.251  0.9022 -0.0238  0.0106
  150SAPE   H4R16599   5.776  -0.119  10.220 -1.1284  1.9109  1.3777
  150SAPE   H4S16600   5.613  -0.171  10.243  1.1907  1.1873  1.3683
  150SAPE   C2516601   5.741  -0.331  10.172 -0.5304 -0.1045  0.3683
  150SAPE   H5R16602   5.673  -0.416  10.181  1.6697 -1.9645  0.2272
  150SAPE   C2616603   5.837  -0.345  10.080 -0.8229 -0.4127 -0.0507
  150SAPE   H6R16604   5.847  -0.440  10.024 -0.9940 -1.1318  1.1193
  150SAPE   C2716605   5.939  -0.237  10.055  0.7831  0.4944 -0.0803
  150SAPE   H7R16606   5.981  -0.207  10.154 -2.5058 -2.0885  2.3350
  150SAPE   H7S16607   5.893  -0.149  10.006  1.5462  0.7874 -0.2816
  150SAPE   C2816608   6.058  -0.281   9.973  0.7800 -0.4879  0.5271
  150SAPE   H8R16609   6.146  -0.310  10.032  0.5679 -1.5326  0.3558
  150SAPE   C2916610   6.042  -0.306   9.840  0.4445 -0.4975  0.2527
  150SAPE   H9R16611   6.125  -0.343   9.779  0.2770  1.5794 -1.3500
  150SAPE  C21016612   5.917  -0.309   9.760  0.2296  0.4139  0.3762
  150SAPE  H10R16613   5.831  -0.326   9.828 -1.0228  1.3670 -0.8910
  150SAPE  H10S16614   5.929  -0.393   9.688  0.5063  0.0152  0.8813
  150SAPE  C21116615   5.894  -0.178   9.696 -0.2275 -0.3867 -0.5102
  150SAPE  H11R16616   5.893  -0.097   9.771 -0.8668  0.4261 -1.3711
  150SAPE  C21216617   5.865  -0.158   9.572  0.3379 -0.1440 -0.1535
  150SAPE  H12R16618   5.857  -0.057   9.528 -1.4653 -0.3613 -0.3989
  150SAPE  C21316619   5.875  -0.256   9.461  0.6948 -0.3206 -0.4346
  150SAPE  H13R16620   5.777  -0.248   9.409 -0.3325  0.0572  1.4799
  150SAPE  H13S16621   5.867  -0.359   9.502 -2.3563 -0.0250 -0.0668
  150SAPE  C21416622   6.008  -0.235   9.393 -1.0178  1.0871 -0.1533
  150SAPE  H14R16623   6.088  -0.279   9.454  0.3485 -0.0696 -2.6446
  150SAPE  C21516624   6.029  -0.176   9.274 -0.5890 -0.0757  0.6522
  150SAPE  H15R16625   6.133  -0.166   9.241 -1.3633  1.3898 -1.5663
  150SAPE  C21616626   5.917  -0.113   9.192 -0.5398  0.7063  0.2739
  150SAPE  H16R16627   5.949  -0.012   9.158  0.9888 -0.1064 -0.7879
  150SAPE  H16S16628   5.819  -0.108   9.244 -0.4013 -2.3867  0.9738
  150SAPE  C21716629   5.884  -0.190   9.053 -0.0453 -0.1156 -0.7090
  150SAPE  H17R16630   5.981  -0.211   9.002  0.2953 -2.4039  0.7242
  150SAPE  H17S16631   5.830  -0.120   8.986  1.0200  0.6073 -0.8392
  150SAPE  C21816632   5.815  -0.325   9.064 -0.0948  0.0624  0.1482
  150SAPE  H18R16633   5.711  -0.326   9.103 -0.3955 -3.4515 -0.3973
  150SAPE  H18S16634   5.873  -0.379   9.141 -0.8270  1.4814  1.7777
  150SAPE  C21916635   5.833  -0.404   8.934 -0.6298  0.1213  0.3572
  150SAPE  H19R16636   5.800  -0.508   8.951 -1.8326  0.3739 -0.3237
  150SAPE  H19S16637   5.935  -0.412   8.890 -0.6382  4.4587 -0.8915
  150SAPE  C22016638   5.737  -0.349   8.827  0.3891  0.7665  0.4046
  150SAPE  H20R16639   5.772  -0.249   8.793 -0.9418  0.7486 -1.2023
  150SAPE  H20S16640   5.634  -0.338   8.868  0.1750 -0.1436  0.1315
  150SAPE  H20T16641   5.727  -0.414   8.737 -1.1096 -0.1905  1.2222
  150SAPE   C3316642   5.252   0.251  10.463  0.5828  0.2130 -0.8021
  150SAPE   H3X16643   5.279   0.356  10.484 -1.2336  0.5834 -0.1883
  150SAPE   H3Y16644   5.149   0.267  10.423 -0.4567 -1.6840  0.9285
  150SAPE   C3416645   5.334   0.200  10.344 -0.1113  1.2634  0.2118
  150SAPE   H4X16646   5.437   0.188  10.383 -1.2442 -2.0484  2.6125
  150SAPE   H4Y16647   5.314   0.264  10.255 -0.5316  0.5145 -0.2392
  150SAPE   C3516648   5.297   0.051  10.295 -0.2799  0.4407 -0.3716
  150SAPE   H5X16649   5.187   0.040  10.307 -0.1950 -0.4887 -0.3951
  150SAPE   H5Y16650   5.343  -0.033  10.351  1.3031  1.5588  0.0574
  150SAPE   C3616651   5.336   0.036  10.151  0.0754 -0.2003  0.8930
  150SAPE   H6X16652   5.446   0.027  10.141  0.0673  0.4611  0.0416
  150SAPE   H6Y16653   5.298   0.130  10.104 -1.6973 -0.6429  1.3647
  150SAPE   C3716654   5.280  -0.095  10.098 -0.3406 -0.2568  0.4263
  150SAPE   H7X16655   5.170  -0.108  10.114 -0.4483 -2.3890 -1.4754
  150SAPE   H7Y16656   5.315  -0.176  10.165 -0.2303 -0.2314  0.3984
  150SAPE   C3816657   5.319  -0.141   9.955 -0.2501 -0.6348 -0.1454
  150SAPE   H8X16658   5.250  -0.086   9.887 -0.4467  1.3085  1.5375
  150SAPE   H8Y16659   5.291  -0.245   9.931  0.1435 -0.9063  0.5573
  150SAPE   C3916660   5.465  -0.115   9.924 -0.0448 -0.2777  0.1269
  150SAPE   H9X16661   5.526  -0.134  10.015  0.0802  1.6861  0.4905
  150SAPE   H9Y16662   5.465  -0.005   9.910 -1.6340 -0.3269 -0.5143
  150SAPE  C31016663   5.518  -0.200   9.802  0.1816  0.2567  0.1728
  150SAPE  H10X16664   5.523  -0.310   9.818 -0.4336 -0.0757 -1.6316
  150SAPE  H10Y16665   5.624  -0.169   9.791 -0.5311  2.7799 -0.2448
  150SAPE  C31116666   5.425  -0.190   9.676 -0.1673  0.4338 -0.4810
  150SAPE  H11X16667   5.396  -0.084   9.660  1.5950  1.1043  0.4070
  150SAPE  H11Y16668   5.328  -0.245   9.679 -0.1095  0.2742  3.3599
  150SAPE  C31216669   5.498  -0.228   9.550  0.0904 -0.3510  0.0940
  150SAPE  H12X16670   5.513  -0.338   9.541 -0.7893 -0.7963  3.0624
  150SAPE  H12Y16671   5.599  -0.182   9.551 -0.2201  0.4159 -1.2776
  150SAPE  C31316672   5.423  -0.194   9.421 -0.6227 -0.6166  0.5510
  150SAPE  H13X16673   5.377  -0.095   9.442 -0.6207 -0.6057  0.5043
  150SAPE  H13Y16674   5.342  -0.265   9.393 -0.0404 -0.3945 -1.9357
  150SAPE  C31416675   5.526  -0.194   9.305 -0.0907 -0.2470 -0.1779
  150SAPE  H14X16676   5.572  -0.295   9.313  2.5873  0.8911 -0.2184
  150SAPE  H14Y16677   5.608  -0.124   9.330 -0.9421  0.9603 -0.6601
  150SAPE  C31516678   5.472  -0.167   9.168  0.0990  0.2057 -0.1264
  150SAPE  H15X16679   5.550  -0.131   9.099  1.6993  0.3837  1.7009
  150SAPE  H15Y16680   5.398  -0.084   9.176  0.4074  0.3102  3.2513
  150SAPE  C31616681   5.404  -0.283   9.103  0.2142  0.5998  0.1860
  150SAPE  H16X16682   5.319  -0.333   9.155  1.4250  0.9313  2.5870
  150SAPE  H16Y16683   5.471  -0.368   9.081 -2.0259 -1.2560  0.1811
  150SAPE  C31716684   5.342  -0.230   8.964 -0.0346 -0.5691 -0.8070
  150SAPE  H17X16685   5.418  -0.177   8.903 -0.0387 -0.3144 -0.5902
  150SAPE  H17Y16686   5.271  -0.149   8.988  1.9162  1.7897 -2.5356
  150SAPE  C31816687   5.281  -0.350   8.898  0.4069  0.4439  0.1958
  150SAPE  H18X16688   5.185  -0.394   8.933  1.6663 -1.7687  1.0994
  150SAPE  H18Y16689   5.342  -0.441   8.915  0.3640  0.2639 -0.5613
  150SAPE  H18Z16690   5.266  -0.338   8.788 -1.1342 -0.0935  0.3134
  151SAPE     N16691   4.782   2.782  10.606  0.0029 -0.6838  0.1121
  151SAPE   HN116692   4.731   2.861  10.651  0.5033 -1.0730  1.3977
  151SAPE   HN216693   4.735   2.689  10.606 -1.9144  0.2307 -0.7797
  151SAPE   HN316694   4.877   2.775  10.648 -0.4552  1.5812  1.7572
  151SAPE   C1216695   4.788   2.820  10.460 -0.5946  0.2921 -0.4560
  151SAPE  H12A16696   4.690   2.856  10.422  0.4010  0.5998 -2.9047
  151SAPE  H12B16697   4.820   2.729  10.406 -0.6567  0.8224 -1.4174
  151SAPE   C1116698   4.892   2.926  10.437 -0.5800 -0.4429  0.6070
  151SAPE  H11A16699   4.871   3.025  10.483  0.7942  0.2983 -0.2654
  151SAPE  H11B16700   4.896   2.949  10.328  1.4675  0.2188  0.7701
  151SAPE     P16701   5.157   2.929  10.413  0.4919 -0.0436 -0.6737
  151SAPE   O1316702   5.168   3.076  10.400 -0.4192  0.2443 -0.0605
  151SAPE   O1416703   5.262   2.860  10.490 -0.0156  0.0843 -0.3867
  151SAPE   O1216704   5.025   2.890  10.486  0.6159 -0.6495 -0.6413
  151SAPE   O1116705   5.135   2.868  10.269  0.3475  0.0640  0.1772
  151SAPE    C116706   5.141   2.730  10.238 -0.0882  0.0484 -0.9406
  151SAPE    HA16707   5.113   2.666  10.324 -0.1770  0.0653 -0.9569
  151SAPE    HB16708   5.072   2.713  10.152  0.6797 -0.4295 -1.4758
  151SAPE    C216709   5.291   2.680  10.196 -0.2923 -0.5554 -0.0931
  151SAPE    HS16710   5.338   2.684  10.296 -0.9070  1.7357  0.1731
  151SAPE   O2116711   5.341   2.781  10.103  0.1481 -0.0139  0.1843
  151SAPE   C2116712   5.480   2.799  10.107  0.5314  0.2246 -0.3286
  151SAPE   O2216713   5.557   2.731  10.172  0.0163 -0.2614 -0.1272
  151SAPE   C2216714   5.529   2.916  10.027  0.0005  0.3449 -0.5066
  151SAPE   H2R16715   5.457   2.999  10.047 -0.7083 -0.6525  1.3432
  151SAPE   H2S16716   5.626   2.946  10.073  0.6494 -1.9672 -0.2795
  151SAPE    C316717   5.295   2.538  10.133 -0.0731  0.4177 -0.7717
  151SAPE    HX16718   5.247   2.481  10.216  0.6958  1.8184  0.7071
  151SAPE    HY16719   5.399   2.503  10.114  0.0330 -1.5138  2.5982
  151SAPE   O3116720   5.214   2.540  10.015  0.0134  0.7485 -0.8900
  151SAPE   C3116721   5.279   2.527   9.903 -0.0195 -0.7768  0.3189
  151SAPE   O3216722   5.398   2.537   9.884 -0.5692  0.0620 -0.0172
  151SAPE   C3216723   5.176   2.483   9.794  0.0497 -0.8233 -0.2247
  151SAPE   H2X16724   5.079   2.537   9.806 -0.2707 -1.3530 -0.4023
  151SAPE   H2Y16725   5.165   2.373   9.808 -0.0623 -0.8952 -0.8559
  151SAPE   C2316726   5.537   2.886   9.877 -0.3376 -0.3669 -0.1507
  151SAPE   H3R16727   5.583   2.784   9.872  0.4562 -0.0085 -0.3208
  151SAPE   H3S16728   5.609   2.955   9.829 -0.9498  1.1438  1.0253
  151SAPE   C2416729   5.403   2.889   9.801  0.3066  0.1543  0.0835
  151SAPE   H4R16730   5.336   2.859   9.884  0.4355  1.7785  0.8036
  151SAPE   H4S16731   5.398   2.813   9.720 -0.3119  1.0677 -0.7492
  151SAPE   C2516732   5.344   3.018   9.745 -0.4962  0.7199  0.2070
  151SAPE   H5R16733   5.305   3.084   9.824  2.0746  0.3633  1.8834
  151SAPE   C2616734   5.344   3.059   9.620  0.7602  0.0034  0.0836
  151SAPE   H6R16735   5.297   3.152   9.587  0.2652 -0.5727 -0.9012
  151SAPE   C2716736   5.397   2.981   9.499  0.3897  0.7683  0.6426
  151SAPE   H7R16737   5.335   2.889   9.493  0.2409  0.8967  0.1755
  151SAPE   H7S16738   5.497   2.941   9.523  0.4430  0.6763  0.2664
  151SAPE   C2816739   5.386   3.055   9.375  0.0132  0.3548 -0.1015
  151SAPE   H8R16740   5.322   3.144   9.376  0.0381  0.3716  0.0654
  151SAPE   C2916741   5.446   3.037   9.254  0.5852  0.1586  0.8040
  151SAPE   H9R16742   5.426   3.107   9.172 -3.1386 -0.3734  1.0626
  151SAPE  C21016743   5.540   2.929   9.211  0.1762  0.2992 -0.6896
  151SAPE  H10R16744   5.490   2.876   9.127  0.7687  2.3115 -2.4068
  151SAPE  H10S16745   5.558   2.861   9.297  2.4647  2.4618  0.6623
  151SAPE  C21116746   5.668   2.984   9.179 -0.8256 -1.1761 -0.3758
  151SAPE  H11R16747   5.742   2.988   9.260 -1.9398  0.9585  0.6242
  151SAPE  C21216748   5.712   3.020   9.058  0.0596  0.6715  0.6057
  151SAPE  H12R16749   5.816   3.055   9.055  0.9099 -1.6517 -2.3942
  151SAPE  C21316750   5.632   3.018   8.931 -0.8539  1.1758  0.0640
  151SAPE  H13R16751   5.522   3.016   8.946 -1.4869 -0.3628 -3.6984
  151SAPE  H13S16752   5.651   2.926   8.872 -0.3834  1.0381  0.4257
  151SAPE  C21416753   5.665   3.142   8.856  0.5717 -0.1254 -0.3050
  151SAPE  H14R16754   5.677   3.234   8.914 -0.6496 -0.0529 -0.1441
  151SAPE  C21516755   5.701   3.142   8.727 -0.2246  0.6082 -0.1531
  151SAPE  H15R16756   5.709   3.242   8.682 -0.9800  0.8904  0.3148
  151SAPE  C21616757   5.718   3.028   8.630  0.2432 -0.1795  0.0479
  151SAPE  H16R16758   5.657   2.940   8.660 -0.2388  0.1069 -0.0771
  151SAPE  H16S16759   5.821   2.988   8.632 -0.1613 -1.2682  1.5157
  151SAPE  C21716760   5.686   3.043   8.479  0.6707 -0.7508 -0.1576
  151SAPE  H17R16761   5.593   3.099   8.454  1.7060 -0.3638 -3.6019
  151SAPE  H17S16762   5.676   2.941   8.436 -0.0010 -0.1098 -1.5948
  151SAPE  C21816763   5.800   3.115   8.409  0.3258  0.6351  0.3246
  151SAPE  H18R16764   5.868   3.028   8.399  1.4504  1.2143  2.3200
  151SAPE  H18S16765   5.855   3.185   8.475 -0.1941  2.2954 -0.9169
  151SAPE  C21916766   5.772   3.164   8.270 -1.3789 -0.5960  0.1386
  151SAPE  H19R16767   5.872   3.202   8.240 -1.4594 -0.3927  0.1279
  151SAPE  H19S16768   5.714   3.258   8.275  0.8354  0.9034 -0.7093
  151SAPE  C22016769   5.723   3.066   8.161  0.5175 -0.5010  0.2025
  151SAPE  H20R16770   5.712   3.112   8.061 -1.9397  0.9214  1.0439
  151SAPE  H20S16771   5.623   3.031   8.193  0.2684  0.9495  1.1386
  151SAPE  H20T16772   5.796   2.983   8.163  2.2849  0.8505 -2.3324
  151SAPE   C3316773   5.240   2.493   9.653 -0.7675  0.0323 -0.4367
  151SAPE   H3X16774   5.308   2.406   9.642 -0.8328  0.0073 -0.6392
  151SAPE   H3Y16775   5.282   2.594   9.634 -0.2627  0.6420  3.2128
  151SAPE   C3416776   5.129   2.471   9.551  0.7386 -0.2322 -0.2704
  151SAPE   H4X16777   5.088   2.371   9.576  1.6030 -0.9683 -1.7025
  151SAPE   H4Y16778   5.174   2.451   9.451  0.7991 -3.9790  0.3749
  151SAPE   C3516779   5.015   2.583   9.539  0.5768 -0.1354  0.6706
  151SAPE   H5X16780   4.968   2.601   9.638  0.5826 -0.4504  0.7321
  151SAPE   H5Y16781   4.932   2.548   9.475 -1.0506  0.9110  2.1174
  151SAPE   C3616782   5.069   2.715   9.480 -0.0496 -0.3171 -1.0754
  151SAPE   H6X16783   5.174   2.741   9.505 -0.7870  0.0050  2.0423
  151SAPE   H6Y16784   5.011   2.799   9.524  1.1112  0.1303 -0.3618
  151SAPE   C3716785   5.049   2.735   9.332 -0.0385 -0.0319  0.9239
  151SAPE   H7X16786   5.047   2.842   9.301  1.8963  0.0081  0.8684
  151SAPE   H7Y16787   4.946   2.702   9.304  0.9857 -0.9936 -2.1033
  151SAPE   C3816788   5.146   2.658   9.246 -0.4786  0.0043 -1.1914
  151SAPE   H8X16789   5.142   2.548   9.260  1.7367  0.0374  0.1362
  151SAPE   H8Y16790   5.252   2.686   9.261  0.1240 -1.5441 -2.1803
  151SAPE   C3916791   5.101   2.684   9.107  0.1152  0.1368  0.4174
  151SAPE   H9X16792   5.070   2.791   9.097  0.6934  0.4356  1.6331
  151SAPE   H9Y16793   5.001   2.637   9.096  0.1992  0.1785 -0.5701
  151SAPE  C31016794   5.200   2.651   8.994 -0.4199  0.3663  0.3534
  151SAPE  H10X16795   5.256   2.557   9.014  1.1451  1.4167  1.0977
  151SAPE  H10Y16796   5.282   2.726   8.987  0.8312 -1.0025 -0.1844
  151SAPE  C31116797   5.129   2.645   8.864 -0.3326 -0.1974  1.2659
  151SAPE  H11X16798   5.198   2.662   8.779 -0.1876 -0.4200  1.3379
  151SAPE  H11Y16799   5.062   2.733   8.852  2.6495  1.9577 -0.9920
  151SAPE  C31216800   5.040   2.519   8.851 -0.6473 -0.1789  0.9423
  151SAPE  H12X16801   4.958   2.514   8.926 -2.1222 -2.2185 -0.6581
  151SAPE  H12Y16802   5.109   2.435   8.875 -1.1276 -0.4375  1.4650
  151SAPE  C31316803   4.986   2.504   8.705  0.2309 -0.2169 -0.4230
  151SAPE  H13X16804   4.952   2.399   8.692 -1.5732  0.0384  1.6967
  151SAPE  H13Y16805   5.074   2.518   8.639  0.5169 -0.3535 -0.0709
  151SAPE  C31416806   4.879   2.605   8.663  0.1219  0.6050 -0.8124
  151SAPE  H14X16807   4.913   2.711   8.663  1.0211  0.3275 -0.1596
  151SAPE  H14Y16808   4.801   2.604   8.742  0.3883 -2.1467 -0.4836
  151SAPE  C31516809   4.816   2.563   8.531 -0.2739  0.1233 -0.2603
  151SAPE  H15X16810   4.787   2.457   8.543  1.4550 -0.4792 -1.2313
  151SAPE  H15Y16811   4.894   2.571   8.453 -0.6746 -1.1855 -0.8109
  151SAPE  C31616812   4.694   2.642   8.491  0.3490  0.0423 -0.6749
  151SAPE  H16X16813   4.715   2.751   8.498 -1.8720  0.5099 -0.5939
  151SAPE  H16Y16814   4.624   2.634   8.577 -0.8542  2.2571 -1.3723
  151SAPE  C31716815   4.620   2.598   8.366  0.0624 -0.3822 -0.3327
  151SAPE  H17X16816   4.582   2.495   8.384 -1.0695  0.1615  0.5086
  151SAPE  H17Y16817   4.693   2.592   8.283 -0.4966 -0.9035 -0.7988
  151SAPE  C31816818   4.503   2.680   8.333  0.4234 -0.3487  0.6251
  151SAPE  H18X16819   4.415   2.662   8.398  0.1896 -1.6994 -0.0309
  151SAPE  H18Y16820   4.467   2.662   8.229 -1.4295 -0.7254  1.2936
  151SAPE  H18Z16821   4.528   2.788   8.333  1.8547 -0.5902 -2.0588
  152SAPE     N16822   0.284   0.866  10.903 -0.5101 -0.1698  0.1875
  152SAPE   HN116823   0.287   0.951  10.844 -1.2810 -0.0651  0.2881
  152SAPE   HN216824   0.379   0.825  10.918  0.1661  0.9829 -0.7820
  152SAPE   HN316825   0.234   0.786  10.860 -0.4674 -0.3867  0.5299
  152SAPE   C1216826   0.212   0.874  11.032 -0.1171  0.4156 -0.4298
  152SAPE  H12A16827   0.291   0.903  11.104  1.1727 -1.6373 -0.9234
  152SAPE  H12B16828   0.175   0.770  11.049 -0.4615  0.7675  1.1204
  152SAPE   C1116829   0.103   0.963  11.025 -0.1615  0.5024 -0.1761
  152SAPE  H11A16830   0.133   1.070  11.016 -0.0774  0.4145 -1.0143
  152SAPE  H11B16831   0.046   0.948  11.118  0.1091  1.3045  0.1284
  152SAPE     P16832  -0.090   1.015  10.838  0.2456  0.1784 -0.2150
  152SAPE   O1316833  -0.214   0.974  10.906 -0.6655  1.0425  0.2758
  152SAPE   O1416834  -0.062   1.159  10.846 -0.0913 -0.1098  0.5952
  152SAPE   O1216835   0.023   0.932  10.909  0.0486  0.5347  0.0564
  152SAPE   O1116836  -0.099   0.968  10.687 -0.3351 -0.0898  0.4694
  152SAPE    C116837   0.001   0.876  10.647  0.3684  0.3290  0.0922
  152SAPE    HA16838   0.102   0.891  10.691  1.2255  2.3053 -2.2973
  152SAPE    HB16839  -0.035   0.775  10.673 -0.3444  0.2230 -1.2668
  152SAPE    C216840   0.034   0.884  10.491  0.4701 -0.0791  0.2063
  152SAPE    HS16841   0.100   0.797  10.470 -1.1054 -1.0727 -0.8545
  152SAPE   O2116842   0.097   1.012  10.467 -0.1480 -0.5760  0.0399
  152SAPE   C2116843   0.190   1.006  10.379 -0.0732 -0.3820  0.2582
  152SAPE   O2216844   0.212   0.915  10.298  0.0707 -0.0611 -0.1470
  152SAPE   C2216845   0.264   1.136  10.382 -0.1348 -0.3976 -0.1357
  152SAPE   H2R16846   0.198   1.220  10.412 -0.7009 -1.4573  1.8007
  152SAPE   H2S16847   0.349   1.125  10.453  0.4695  0.2989 -0.7300
  152SAPE    C316848  -0.104   0.868  10.423  0.2849 -0.2335  0.0415
  152SAPE    HX16849  -0.186   0.929  10.466 -1.1771 -2.5350  0.7192
  152SAPE    HY16850  -0.146   0.767  10.441 -1.8391  0.1175 -2.3632
  152SAPE   O3116851  -0.096   0.895  10.282 -0.5103 -0.1924 -0.1469
  152SAPE   C3116852  -0.060   0.789  10.210  0.2449  0.0298 -0.2086
  152SAPE   O3216853  -0.043   0.673  10.256 -0.1325 -0.5364  0.1241
  152SAPE   C3216854  -0.039   0.832  10.073  0.8581 -0.3601  0.4547
  152SAPE   H2X16855   0.067   0.808  10.051  0.9114 -1.1949  1.5543
  152SAPE   H2Y16856  -0.048   0.942  10.060  2.0213 -0.2257  0.7350
  152SAPE   C2316857   0.307   1.184  10.242  0.6179 -0.1208  0.6003
  152SAPE   H3R16858   0.217   1.172  10.178  0.8052  2.1536 -0.1606
  152SAPE   H3S16859   0.385   1.113  10.206 -1.7960 -2.7787  0.2438
  152SAPE   C2416860   0.349   1.332  10.232  0.5118  0.1450  0.6166
  152SAPE   H4R16861   0.379   1.332  10.125  1.3478 -2.1623  0.7991
  152SAPE   H4S16862   0.443   1.353  10.289  1.3935  2.2115 -1.4392
  152SAPE   C2516863   0.243   1.439  10.239 -0.0942  0.4066  0.3983
  152SAPE   H5R16864   0.202   1.443  10.341  0.3977 -2.3008  0.7919
  152SAPE   C2616865   0.213   1.528  10.144  0.8451  0.1254 -0.9069
  152SAPE   H6R16866   0.130   1.599  10.158 -0.0352 -0.7919 -1.3214
  152SAPE   C2716867   0.274   1.531  10.007  0.4052  0.0169 -0.2966
  152SAPE   H7R16868   0.254   1.431   9.964 -3.2647 -0.2823  1.6372
  152SAPE   H7S16869   0.379   1.561  10.027  0.3763 -0.1081  0.0516
  152SAPE   C2816870   0.200   1.644   9.933 -0.1702  0.1420  1.3032
  152SAPE   H8R16871   0.225   1.743   9.975  1.6683  0.9996 -1.4923
  152SAPE   C2916872   0.154   1.651   9.808 -0.2255  0.1342  0.1073
  152SAPE   H9R16873   0.115   1.751   9.783 -1.6421  0.1709  2.2412
  152SAPE  C21016874   0.145   1.542   9.701 -0.4593 -0.1533 -0.3830
  152SAPE  H10R16875   0.041   1.502   9.700 -0.0559 -1.2233 -0.7837
  152SAPE  H10S16876   0.197   1.449   9.734  0.2920  0.6819  0.8819
  152SAPE  C21116877   0.204   1.582   9.573 -0.1683  0.2977  0.8109
  152SAPE  H11R16878   0.276   1.665   9.576  0.5001 -0.2774  0.8434
  152SAPE  C21216879   0.179   1.514   9.456 -0.7680 -0.1218  0.9530
  152SAPE  H12R16880   0.238   1.534   9.365 -1.4493 -0.1063  0.5098
  152SAPE  C21316881   0.085   1.396   9.444  0.1841  0.3937 -0.5008
  152SAPE  H13R16882   0.023   1.370   9.532 -0.6705  1.5840 -0.7367
  152SAPE  H13S16883   0.152   1.307   9.440 -0.1581  0.0137  1.4244
  152SAPE  C21416884  -0.011   1.402   9.324 -0.3572 -0.3679 -0.8139
  152SAPE  H14R16885  -0.116   1.422   9.351  0.1216 -0.9856  1.8050
  152SAPE  C21516886   0.010   1.378   9.197  0.2402 -0.0572  0.5460
  152SAPE  H15R16887  -0.073   1.380   9.125  0.6086 -0.5473  0.0924
  152SAPE  C21616888   0.136   1.343   9.130  0.1933  0.7819  0.6638
  152SAPE  H16R16889   0.142   1.233   9.117 -0.4028  0.5473  2.2474
  152SAPE  H16S16890   0.222   1.381   9.189  2.8482 -2.3726 -0.8143
  152SAPE  C21716891   0.166   1.394   8.984  0.7046 -1.0450  0.4262
  152SAPE  H17R16892   0.080   1.380   8.914  0.7266  0.1697  0.1198
  152SAPE  H17S16893   0.256   1.346   8.941 -0.4652 -2.2351 -0.8144
  152SAPE  C21816894   0.178   1.546   8.981  0.8501 -0.4500  0.7354
  152SAPE  H18R16895   0.241   1.584   9.063  0.5095 -0.2521  0.9108
  152SAPE  H18S16896   0.075   1.585   8.996 -0.6195 -3.1602 -1.3651
  152SAPE  C21916897   0.230   1.602   8.846  0.8693 -0.7689  0.4507
  152SAPE  H19R16898   0.148   1.576   8.776  2.5120 -2.8388 -0.8087
  152SAPE  H19S16899   0.327   1.555   8.820  1.3231  1.5752 -2.6877
  152SAPE  C22016900   0.263   1.756   8.838  0.1181  0.1096  0.2805
  152SAPE  H20R16901   0.180   1.816   8.883 -0.1584 -0.4023  0.4545
  152SAPE  H20S16902   0.290   1.791   8.736  2.6724  1.7250  1.4121
  152SAPE  H20T16903   0.342   1.775   8.914 -2.1937  2.9791  2.2200
  152SAPE   C3316904  -0.133   0.745   9.983 -1.4383  0.5743  0.0296
  152SAPE   H3X16905  -0.232   0.794   9.990 -0.6261  3.1567 -3.7483
  152SAPE   H3Y16906  -0.126   0.641  10.023  1.0797 -0.8710 -3.6587
  152SAPE   C3416907  -0.086   0.750   9.834  0.4205 -0.0875  0.0692
  152SAPE   H4X16908   0.013   0.700   9.835  0.2088 -0.5858 -1.5971
  152SAPE   H4Y16909  -0.081   0.858   9.809 -1.8772  0.1316  0.3098
  152SAPE   C3516910  -0.184   0.679   9.750  0.1288  0.6424  0.4240
  152SAPE   H5X16911  -0.285   0.727   9.742 -0.5975 -1.0099 -0.8523
  152SAPE   H5Y16912  -0.196   0.581   9.799  3.7308 -0.4844 -0.6916
  152SAPE   C3616913  -0.126   0.657   9.608  0.4579  0.6182 -0.5712
  152SAPE   H6X16914  -0.163   0.568   9.552  2.2968 -0.6095  0.0809
  152SAPE   H6Y16915  -0.017   0.636   9.620  0.4749  1.9038  2.4287
  152SAPE   C3716916  -0.129   0.784   9.524 -0.1804 -0.4290 -0.4302
  152SAPE   H7X16917  -0.061   0.859   9.569 -0.9463  1.3614 -2.1119
  152SAPE   H7Y16918  -0.226   0.837   9.521  0.5288  0.8649 -1.6404
  152SAPE   C3816919  -0.086   0.764   9.377 -1.0270  0.9692  0.0613
  152SAPE   H8X16920  -0.165   0.707   9.325 -0.6849 -0.5188  1.0980
  152SAPE   H8Y16921   0.005   0.699   9.381 -1.4403  0.4027  0.3767
  152SAPE   C3916922  -0.063   0.888   9.298  0.1016 -0.3171 -0.7127
  152SAPE   H9X16923   0.035   0.935   9.321 -1.1556  1.2278  1.9144
  152SAPE   H9Y16924  -0.136   0.968   9.321  0.1757 -0.0401 -1.4402
  152SAPE  C31016925  -0.059   0.859   9.148 -0.3340 -0.2879 -0.2470
  152SAPE  H10X16926  -0.163   0.829   9.124 -0.2603 -0.4199 -0.3985
  152SAPE  H10Y16927   0.004   0.772   9.122 -0.4944  0.1904 -2.4514
  152SAPE  C31116928  -0.020   0.980   9.064  0.0669  0.7136 -0.3283
  152SAPE  H11X16929   0.086   1.008   9.073 -0.5628  3.2759 -0.2605
  152SAPE  H11Y16930  -0.074   1.068   9.106  1.9199  0.9332  1.7756
  152SAPE  C31216931  -0.039   0.970   8.914  0.8121  0.1924 -0.4504
  152SAPE  H12X16932  -0.140   0.937   8.883  0.4469  1.2754 -0.4660
  152SAPE  H12Y16933   0.047   0.907   8.880  0.9442 -1.8461  3.1986
  152SAPE  C31316934  -0.010   1.104   8.852 -0.1348  0.0126  0.7328
  152SAPE  H13X16935   0.089   1.139   8.886 -0.4807  1.5583  0.2391
  152SAPE  H13Y16936  -0.080   1.179   8.895 -0.7370 -1.3580  2.2595
  152SAPE  C31416937  -0.012   1.108   8.695 -0.0775  0.0334  0.6801
  152SAPE  H14X16938  -0.113   1.128   8.653 -0.0394  0.4999  0.8080
  152SAPE  H14Y16939   0.025   1.017   8.642 -1.0905  0.7582 -1.3248
  152SAPE  C31516940   0.085   1.225   8.659 -0.5322  0.0474  0.3810
  152SAPE  H15X16941   0.184   1.222   8.710  0.4176  2.3496 -1.1631
  152SAPE  H15Y16942   0.037   1.317   8.700 -0.1801 -0.9065  3.1580
  152SAPE  C31616943   0.108   1.235   8.503  0.0035 -0.0766 -0.5476
  152SAPE  H16X16944   0.017   1.229   8.440  1.0286 -0.9899 -1.9841
  152SAPE  H16Y16945   0.179   1.155   8.471  1.2802  1.0310 -0.6075
  152SAPE  C31716946   0.171   1.369   8.473  0.1413  1.4914  0.2169
  152SAPE  H17X16947   0.263   1.364   8.536  0.5043  2.5393 -0.2133
  152SAPE  H17Y16948   0.109   1.454   8.506  0.1698  1.2614  0.8844
  152SAPE  C31816949   0.202   1.392   8.326  0.1810  0.4259  0.1308
  152SAPE  H18X16950   0.241   1.299   8.280  1.0895  1.3220 -0.9793
  152SAPE  H18Y16951   0.286   1.465   8.316  1.1457 -0.8684 -1.7127
  152SAPE  H18Z16952   0.115   1.423   8.264 -0.4628  0.2165  0.9001
  153SAPE     N16953   4.249   3.589  10.645  0.1584 -0.2007  0.1579
  153SAPE   HN116954   4.191   3.576  10.560  0.3194 -4.6126  0.5003
  153SAPE   HN216955   4.238   3.691  10.665 -2.4231 -0.0212 -1.6185
  153SAPE   HN316956   4.346   3.568  10.617 -0.1583 -0.2827 -0.9062
  153SAPE   C1216957   4.214   3.500  10.759 -0.9804  0.4036 -0.3195
  153SAPE  H12A16958   4.215   3.399  10.714 -0.9659  1.0431 -1.8156
  153SAPE  H12B16959   4.112   3.528  10.792 -1.1518 -0.1718 -0.3462
  153SAPE   C1116960   4.311   3.512  10.880  0.4114  0.5979 -0.2418
  153SAPE  H11A16961   4.269   3.457  10.966  1.5758  0.1943  0.0953
  153SAPE  H11B16962   4.318   3.618  10.912 -0.6464  1.0602 -1.4598
  153SAPE     P16963   4.571   3.559  10.820  0.3109 -0.0324  0.1990
  153SAPE   O1316964   4.584   3.663  10.925 -0.9933 -0.5531 -0.0777
  153SAPE   O1416965   4.690   3.482  10.784 -0.6135 -0.1682  0.6760
  153SAPE   O1216966   4.450   3.459  10.843  0.2939  0.1736  0.4970
  153SAPE   O1116967   4.528   3.620  10.678  0.2524 -1.1275 -0.1573
  153SAPE    C116968   4.570   3.759  10.658  0.7485 -0.1379  0.8698
  153SAPE    HA16969   4.540   3.831  10.738  0.9914 -0.2089  1.0267
  153SAPE    HB16970   4.681   3.758  10.653  0.7086 -1.7277 -0.4270
  153SAPE    C216971   4.529   3.814  10.519 -0.1820  0.4427  0.6747
  153SAPE    HS16972   4.419   3.826  10.508 -0.3868 -2.1078 -1.1279
  153SAPE   O2116973   4.588   3.734  10.408  0.4096 -0.2857  0.3240
  153SAPE   C2116974   4.494   3.660  10.352 -0.5255  0.7142  0.5330
  153SAPE   O2216975   4.383   3.637  10.394 -0.2235  0.3092  0.2570
  153SAPE   C2216976   4.557   3.568  10.244 -0.3965  0.0668  0.6692
  153SAPE   H2R16977   4.649   3.520  10.282  0.2064 -1.7686 -2.6726
  153SAPE   H2S16978   4.471   3.504  10.213  0.3096 -0.4217 -0.3451
  153SAPE    C316979   4.589   3.949  10.508  0.1521 -0.2839 -0.2376
  153SAPE    HX16980   4.699   3.938  10.502 -0.0891 -3.0997 -1.2168
  153SAPE    HY16981   4.573   4.007  10.601  1.9008  1.4571 -0.9696
  153SAPE   O3116982   4.533   4.015  10.398 -0.0256 -0.5467  0.4246
  153SAPE   C3116983   4.584   4.135  10.380  0.2484 -1.3032  0.4197
  153SAPE   O3216984   4.658   4.200  10.451  0.4419 -0.1105 -0.0001
  153SAPE   C3216985   4.526   4.186  10.246  0.0712  0.2497  0.3950
  153SAPE   H2X16986   4.519   4.297  10.257  1.4576  0.2861  1.0039
  153SAPE   H2Y16987   4.425   4.144  10.222  0.7785 -0.4812 -1.5310
  153SAPE   C2316988   4.601   3.644  10.110  0.1504 -0.2552  0.0264
  153SAPE   H3R16989   4.665   3.728  10.144  0.3821 -0.1993 -0.5301
  153SAPE   H3S16990   4.514   3.695  10.063  0.8723  0.4403 -0.5817
  153SAPE   C2416991   4.660   3.553   9.995 -0.7454 -0.0002  0.6434
  153SAPE   H4R16992   4.685   3.604   9.899  2.4838  1.4023  2.0784
  153SAPE   H4S16993   4.580   3.484   9.963 -1.5852  1.7802 -1.2936
  153SAPE   C2516994   4.790   3.492  10.040  0.1849  0.1299  0.4902
  153SAPE   H5R16995   4.808   3.496  10.148 -1.2290  0.0037  0.7469
  153SAPE   C2616996   4.891   3.445   9.965  0.3879 -0.5524  0.1067
  153SAPE   H6R16997   4.980   3.402  10.013  2.4804  2.1881 -1.0449
  153SAPE   C2716998   4.878   3.439   9.817 -0.4538 -0.2113  0.5331
  153SAPE   H7R16999   4.891   3.541   9.773 -2.1768 -0.1679  0.0722
  153SAPE   H7S17000   4.772   3.424   9.789 -0.2182  0.2786 -0.6708
  153SAPE   C2817001   4.964   3.330   9.753  0.7968 -0.5185 -0.4754
  153SAPE   H8R17002   5.010   3.251   9.814 -1.0122 -0.6025  0.8545
  153SAPE   C2917003   4.992   3.325   9.616 -0.5598 -0.2078 -0.0148
  153SAPE   H9R17004   5.061   3.247   9.581  1.6328  1.9239 -0.7474
  153SAPE  C21017005   4.940   3.420   9.518  0.0432 -0.3712  0.5804
  153SAPE  H10R17006   5.005   3.419   9.428 -1.5633 -2.5695 -0.6439
  153SAPE  H10S17007   4.947   3.523   9.559 -2.8292 -0.0864  0.5805
  153SAPE  C21117008   4.800   3.395   9.458 -0.1243 -0.0979  0.5004
  153SAPE  H11R17009   4.723   3.400   9.537 -0.8076 -1.1726 -0.0672
  153SAPE  C21217010   4.766   3.340   9.341 -0.6289  0.1693  0.2601
  153SAPE  H12R17011   4.657   3.329   9.328 -0.7837  0.1187  1.5190
  153SAPE  C21317012   4.854   3.289   9.233 -0.1788 -0.2654 -0.5817
  153SAPE  H13R17013   4.926   3.372   9.214 -2.1444  2.0776  1.4258
  153SAPE  H13S17014   4.808   3.266   9.135  0.7249 -0.7897 -0.8920
  153SAPE  C21417015   4.937   3.167   9.264  0.3111  0.3003 -0.0422
  153SAPE  H14R17016   4.917   3.128   9.365 -1.6666 -1.0600 -0.9127
  153SAPE  C21517017   5.044   3.122   9.190 -0.0464 -0.3483 -0.1471
  153SAPE  H15R17018   5.109   3.048   9.241 -2.3335 -1.1619  1.7704
  153SAPE  C21617019   5.112   3.162   9.062  0.3666  0.7936 -0.1954
  153SAPE  H16R17020   5.222   3.159   9.080  0.2051  1.0098  0.8934
  153SAPE  H16S17021   5.088   3.265   9.026  1.1170  1.0961  0.1426
  153SAPE  C21717022   5.076   3.063   8.945 -0.4201  0.2045 -0.2828
  153SAPE  H17R17023   4.966   3.054   8.938 -0.4645  0.4114  0.0931
  153SAPE  H17S17024   5.113   2.960   8.963 -1.4744 -0.4424 -1.6986
  153SAPE  C21817025   5.105   3.110   8.806 -0.2371  0.0390  0.0010
  153SAPE  H18R17026   5.059   3.210   8.793 -0.1322  0.3949  2.0583
  153SAPE  H18S17027   5.053   3.046   8.732 -1.8153 -1.4485  2.2687
  153SAPE  C21917028   5.259   3.129   8.771 -0.0276 -0.2249 -0.5855
  153SAPE  H19R17029   5.314   3.177   8.855 -2.1690  0.5462  0.4638
  153SAPE  H19S17030   5.264   3.207   8.692 -2.2491  0.4662 -0.1214
  153SAPE  C22017031   5.333   2.997   8.726 -0.1406  0.2514 -0.5885
  153SAPE  H20R17032   5.281   2.946   8.642 -0.1009  0.1399 -0.5449
  153SAPE  H20S17033   5.342   2.916   8.802  1.9900 -0.0304 -1.0755
  153SAPE  H20T17034   5.434   3.029   8.692 -0.3918  0.6414 -0.9718
  153SAPE   C3317035   4.616   4.141  10.130 -0.7998  1.1794 -0.1528
  153SAPE   H3X17036   4.628   4.031  10.133 -2.8165  0.9414  0.7222
  153SAPE   H3Y17037   4.716   4.185  10.148 -0.9705  1.3655  0.3558
  153SAPE   C3417038   4.548   4.176   9.991 -1.4375  0.2374  0.0246
  153SAPE   H4X17039   4.561   4.286   9.983 -1.8793  0.3060  0.2207
  153SAPE   H4Y17040   4.446   4.133   9.992 -2.3274  1.9151 -3.5348
  153SAPE   C3517041   4.624   4.111   9.873  0.1136  0.0369  0.5179
  153SAPE   H5X17042   4.732   4.137   9.862  0.1209 -0.8833 -2.6311
  153SAPE   H5Y17043   4.585   4.151   9.777 -0.6706 -3.0152 -0.5512
  153SAPE   C3617044   4.609   3.960   9.873  0.9015  0.4714 -0.5912
  153SAPE   H6X17045   4.508   3.937   9.913  2.0829 -0.9829  1.7872
  153SAPE   H6Y17046   4.677   3.905   9.941  1.1641 -2.2421 -2.8667
  153SAPE   C3717047   4.632   3.888   9.738  0.5954 -0.3955  0.2442
  153SAPE   H7X17048   4.639   3.779   9.760 -1.3723 -0.3492  1.3051
  153SAPE   H7Y17049   4.731   3.920   9.701  0.7317 -0.1751  0.7931
  153SAPE   C3817050   4.531   3.924   9.633  0.1764  0.2140 -0.0863
  153SAPE   H8X17051   4.508   4.032   9.642 -4.1862 -0.5795  0.4297
  153SAPE   H8Y17052   4.439   3.866   9.655 -0.4359  0.6288 -1.4082
  153SAPE   C3917053   4.588   3.876   9.500  0.7027  0.3353  0.3850
  153SAPE   H9X17054   4.569   3.767   9.491 -3.2934  0.8916  0.3307
  153SAPE   H9Y17055   4.693   3.908   9.488  0.4132  1.3818  0.5728
  153SAPE  C31017056   4.518   3.928   9.376 -0.0134 -0.3398  0.2899
  153SAPE  H10X17057   4.533   4.037   9.392  0.7016 -0.6088  1.5924
  153SAPE  H10Y17058   4.409   3.906   9.374 -0.3015  0.9823 -1.7620
  153SAPE  C31117059   4.573   3.890   9.239 -0.8777  0.4061 -0.1955
  153SAPE  H11X17060   4.579   3.781   9.220 -1.8574  0.4712 -0.9614
  153SAPE  H11Y17061   4.673   3.937   9.225 -0.2035 -1.3163 -1.4784
  153SAPE  C31217062   4.481   3.946   9.122 -0.4247 -0.2776  0.4935
  153SAPE  H12X17063   4.492   4.056   9.133  0.1967 -0.0750 -1.6687
  153SAPE  H12Y17064   4.380   3.906   9.147 -0.2653  0.3857  2.3568
  153SAPE  C31317065   4.531   3.885   8.989  0.5581  0.5209 -0.5268
  153SAPE  H13X17066   4.523   3.777   9.013 -0.3617  0.6457 -0.2306
  153SAPE  H13Y17067   4.637   3.903   8.959  1.1449 -0.4109  0.8531
  153SAPE  C31417068   4.457   3.952   8.876 -0.1196 -0.5134  0.0266
  153SAPE  H14X17069   4.448   4.063   8.876  0.7927 -0.3804 -2.6187
  153SAPE  H14Y17070   4.356   3.905   8.877 -0.1571 -0.4664 -0.8638
  153SAPE  C31517071   4.517   3.914   8.737 -0.0581 -0.2629  0.4965
  153SAPE  H15X17072   4.623   3.945   8.724 -0.1711  0.0270  0.2434
  153SAPE  H15Y17073   4.461   3.971   8.659 -1.1208  0.0144  1.4418
  153SAPE  C31617074   4.504   3.769   8.703  0.0720  0.1299 -1.2530
  153SAPE  H16X17075   4.398   3.738   8.711 -0.1852  1.3258  0.4528
  153SAPE  H16Y17076   4.568   3.710   8.772 -1.2841  0.5449  0.4396
  153SAPE  C31717077   4.537   3.740   8.555  0.0475  0.5075  0.0335
  153SAPE  H17X17078   4.475   3.807   8.492 -1.6843 -0.7406  0.3290
  153SAPE  H17Y17079   4.499   3.639   8.530  1.4992 -0.1270  0.3092
  153SAPE  C31817080   4.691   3.746   8.524  0.0934 -0.3758 -0.5581
  153SAPE  H18X17081   4.707   3.728   8.416  0.9669 -0.9601 -0.3497
  153SAPE  H18Y17082   4.763   3.675   8.571  3.3640  2.1380 -1.3411
  153SAPE  H18Z17083   4.728   3.847   8.554  0.3034 -0.6891  0.2874
  154SAPE     N17084   0.290   2.936  11.123  0.2934 -1.0482  0.1024
  154SAPE   HN117085   0.365   2.865  11.112  2.1020  0.9504 -1.4273
  154SAPE   HN217086   0.239   2.959  11.036  0.1075 -0.7073  0.3021
  154SAPE   HN317087   0.350   3.017  11.152  0.7502 -0.7070 -1.7028
  154SAPE   C1217088   0.194   2.917  11.226 -0.4441  0.0110  0.2646
  154SAPE  H12A17089   0.233   2.978  11.310 -1.6258  0.3305  0.5949
  154SAPE  H12B17090   0.200   2.807  11.235 -0.8201 -0.1801 -1.3802
  154SAPE   C1117091   0.054   2.955  11.169 -0.3901 -1.0977  0.4424
  154SAPE  H11A17092  -0.021   2.946  11.251 -2.0176  1.6193 -0.6089
  154SAPE  H11B17093   0.034   2.882  11.087  0.4727  0.6719 -1.4498
  154SAPE     P17094  -0.055   3.129  11.019 -0.4522  0.1999  0.1993
  154SAPE   O1317095  -0.169   3.038  11.029 -0.0466  0.3838 -0.8552
  154SAPE   O1417096  -0.088   3.273  11.031 -0.7072  0.6580  0.1225
  154SAPE   O1217097   0.052   3.090  11.128  0.4166 -0.5138  0.0084
  154SAPE   O1117098   0.025   3.112  10.882  0.0602  0.0547  0.1537
  154SAPE    C117099  -0.035   3.112  10.755  0.4797 -0.5780 -0.5591
  154SAPE    HA17100   0.037   3.069  10.682  0.9040 -0.7777 -0.0302
  154SAPE    HB17101  -0.124   3.044  10.755  0.0146 -0.0382  1.6605
  154SAPE    C217102  -0.078   3.251  10.708  0.4321 -0.1788 -0.6091
  154SAPE    HS17103  -0.148   3.277  10.790 -0.3568  0.0956 -1.3641
  154SAPE   O2117104  -0.133   3.237  10.575 -0.7327  0.8825  0.5829
  154SAPE   C2117105  -0.213   3.327  10.540  0.2032  0.3023  0.3233
  154SAPE   O2217106  -0.244   3.428  10.613 -0.3629  0.5780  0.4677
  154SAPE   C2217107  -0.263   3.308  10.401  0.6260 -0.8450 -0.5504
  154SAPE   H2R17108  -0.178   3.306  10.329  0.7599  2.2320 -0.5990
  154SAPE   H2S17109  -0.312   3.208  10.403 -0.3784 -0.3584  1.5177
  154SAPE    C317110   0.037   3.352  10.708  0.2385 -0.0487 -0.2602
  154SAPE    HX17111   0.040   3.375  10.817 -3.0532 -1.7801  0.3292
  154SAPE    HY17112   0.006   3.446  10.656 -0.3002 -0.0302  0.0813
  154SAPE   O3117113   0.146   3.289  10.643  0.3419 -0.2138  0.3461
  154SAPE   C3117114   0.261   3.301  10.710  0.6093 -0.6921 -0.1021
  154SAPE   O3217115   0.281   3.382  10.804 -0.5235  0.2790  0.1214
  154SAPE   C3217116   0.367   3.210  10.646  0.0571  0.1919  0.0920
  154SAPE   H2X17117   0.315   3.114  10.623  2.4346 -1.7304  2.1320
  154SAPE   H2Y17118   0.438   3.194  10.730 -0.5003 -1.5112  0.2697
  154SAPE   C2317119  -0.373   3.416  10.370  0.0577  0.8549  0.3851
  154SAPE   H3R17120  -0.334   3.519  10.391 -0.3089  1.1895 -0.5207
  154SAPE   H3S17121  -0.466   3.414  10.431  0.6512 -1.6516  1.3409
  154SAPE   C2417122  -0.415   3.396  10.221 -0.5120 -0.3637 -0.2298
  154SAPE   H4R17123  -0.323   3.411  10.161 -0.8810 -0.5266 -0.8426
  154SAPE   H4S17124  -0.480   3.478  10.185  0.6660  1.2693  1.1989
  154SAPE   C2517125  -0.468   3.258  10.199 -0.0158  0.0550 -0.2130
  154SAPE   H5R17126  -0.530   3.222  10.283  0.7898  0.6785  0.6679
  154SAPE   C2617127  -0.457   3.185  10.088 -0.8654 -0.0631  0.3657
  154SAPE   H6R17128  -0.502   3.085  10.079 -0.9065  0.1433 -2.9713
  154SAPE   C2717129  -0.387   3.219   9.957  0.4886 -0.0484  0.3203
  154SAPE   H7R17130  -0.375   3.124   9.901 -1.4425 -0.0649 -0.1274
  154SAPE   H7S17131  -0.285   3.255   9.982 -0.1139 -0.0712  3.1084
  154SAPE   C2817132  -0.462   3.325   9.877  0.1832  0.1386  0.3779
  154SAPE   H8R17133  -0.506   3.403   9.941  1.9401  0.9794  0.6142
  154SAPE   C2917134  -0.459   3.343   9.738  0.0642 -0.1674  0.7551
  154SAPE   H9R17135  -0.523   3.416   9.687  1.7157 -0.2641 -1.5668
  154SAPE  C21017136  -0.387   3.251   9.629  0.7599 -0.1225  0.2108
  154SAPE  H10R17137  -0.359   3.154   9.677  0.3538 -0.6992 -0.7033
  154SAPE  H10S17138  -0.290   3.290   9.593  0.9850 -1.2248 -0.4174
  154SAPE  C21117139  -0.485   3.221   9.524 -0.0991 -0.5311  0.5722
  154SAPE  H11R17140  -0.588   3.195   9.555 -1.0206  1.5018 -0.5379
  154SAPE  C21217141  -0.446   3.211   9.392 -0.1010  0.2505  0.3602
  154SAPE  H12R17142  -0.515   3.165   9.320  0.2046  0.4878 -0.0834
  154SAPE  C21317143  -0.311   3.232   9.340  0.0682 -0.4913 -0.0982
  154SAPE  H13R17144  -0.233   3.270   9.410 -0.4095  2.8050 -1.1998
  154SAPE  H13S17145  -0.323   3.320   9.274  0.2018 -1.0531 -0.8916
  154SAPE  C21417146  -0.252   3.104   9.263  0.1297  0.2830  0.3020
  154SAPE  H14R17147  -0.197   3.033   9.327  1.7489 -0.6750 -2.0031
  154SAPE  C21517148  -0.253   3.071   9.131 -0.0657 -0.5598 -0.1285
  154SAPE  H15R17149  -0.220   2.970   9.101 -0.9587 -1.7117  2.4335
  154SAPE  C21617150  -0.333   3.152   9.032  0.3462  0.3655  0.0652
  154SAPE  H16R17151  -0.265   3.212   8.969 -0.2233 -1.6192 -2.6363
  154SAPE  H16S17152  -0.412   3.220   9.070 -2.0746 -2.4914  0.5681
  154SAPE  C21717153  -0.400   3.066   8.922 -0.1999 -0.0839 -0.2424
  154SAPE  H17R17154  -0.473   2.992   8.961 -0.6747 -0.1899 -1.2834
  154SAPE  H17S17155  -0.323   3.003   8.872 -1.6748 -0.9051 -1.5499
  154SAPE  C21817156  -0.477   3.148   8.819  0.1594  0.5482 -0.3425
  154SAPE  H18R17157  -0.408   3.203   8.751 -1.8007  1.8799 -1.3384
  154SAPE  H18S17158  -0.540   3.232   8.855 -1.3224  0.7108 -3.0763
  154SAPE  C21917159  -0.574   3.060   8.742  0.4522 -0.0079 -0.7951
  154SAPE  H19R17160  -0.661   3.034   8.806 -1.1654  1.4937 -2.2411
  154SAPE  H19S17161  -0.516   2.971   8.711  0.1472  0.0753 -1.6600
  154SAPE  C22017162  -0.634   3.129   8.613 -0.0855  0.3056  0.8410
  154SAPE  H20R17163  -0.698   3.218   8.633  1.6995  2.0703 -0.8484
  154SAPE  H20S17164  -0.694   3.056   8.554  1.7692 -1.2480  0.7864
  154SAPE  H20T17165  -0.553   3.157   8.542  1.4732 -1.5306  1.7785
  154SAPE   C3317166   0.461   3.281  10.535  0.1814  0.2053  0.1561
  154SAPE   H3X17167   0.564   3.239  10.538 -0.6734 -2.3058 -2.0028
  154SAPE   H3Y17168   0.458   3.388  10.563 -1.4724 -0.1636  1.6421
  154SAPE   C3417169   0.399   3.262  10.398  0.0297 -0.0571 -0.2765
  154SAPE   H4X17170   0.299   3.310  10.395  1.2876  2.8367  0.0083
  154SAPE   H4Y17171   0.388   3.156  10.367 -0.1763 -0.0876 -0.1041
  154SAPE   C3517172   0.479   3.328  10.286  0.2244 -0.5714 -0.3680
  154SAPE   H5X17173   0.578   3.291  10.320  0.7562  2.5514  1.8477
  154SAPE   H5Y17174   0.473   3.438  10.294  0.8910 -0.6190  1.0223
  154SAPE   C3617175   0.425   3.281  10.149 -0.4228  0.1416 -0.7317
  154SAPE   H6X17176   0.320   3.307  10.127 -1.1429 -1.3924  0.7016
  154SAPE   H6Y17177   0.428   3.170  10.146  0.2872  0.1747 -1.6709
  154SAPE   C3717178   0.522   3.329  10.045 -0.2179  0.2228  0.0681
  154SAPE   H7X17179   0.626   3.301  10.072 -0.2584  0.0177  0.0111
  154SAPE   H7Y17180   0.505   3.438  10.028  2.6788  0.8223  0.5096
  154SAPE   C3817181   0.502   3.262   9.906 -0.6363 -0.0638 -0.0322
  154SAPE   H8X17182   0.393   3.254   9.888 -0.3404 -2.5133 -1.2209
  154SAPE   H8Y17183   0.555   3.166   9.922  1.2388  1.2212  1.8322
  154SAPE   C3917184   0.577   3.330   9.791  0.6948 -0.0239  0.1745
  154SAPE   H9X17185   0.668   3.274   9.760  0.9949  1.7712 -2.5304
  154SAPE   H9Y17186   0.606   3.434   9.817  1.4729 -0.2907  0.3958
  154SAPE  C31017187   0.492   3.329   9.667 -0.0212  0.1131  0.4169
  154SAPE  H10X17188   0.404   3.396   9.683 -1.4413 -1.8128  1.0400
  154SAPE  H10Y17189   0.451   3.226   9.654  0.8648 -0.3346  1.0729
  154SAPE  C31117190   0.563   3.357   9.536  0.1206 -0.3701 -0.1240
  154SAPE  H11X17191   0.630   3.271   9.516  3.6049  1.8094  1.1704
  154SAPE  H11Y17192   0.625   3.450   9.536  0.9555 -0.8776 -1.9340
  154SAPE  C31217193   0.455   3.379   9.431  0.3230  0.1609  0.0260
  154SAPE  H12X17194   0.393   3.466   9.462  1.8631  0.5667  2.2502
  154SAPE  H12Y17195   0.388   3.290   9.432  0.1489  0.2926  0.0924
  154SAPE  C31317196   0.512   3.418   9.295 -0.4296  0.4661 -0.0559
  154SAPE  H13X17197   0.576   3.508   9.304 -0.3927  0.4212  0.1265
  154SAPE  H13Y17198   0.432   3.447   9.224  0.5942 -1.5544 -2.1640
  154SAPE  C31417199   0.597   3.307   9.230  0.0366  0.1670 -0.6652
  154SAPE  H14X17200   0.539   3.213   9.244  0.2309  0.4161  2.4214
  154SAPE  H14Y17201   0.691   3.296   9.288 -1.1969 -0.1817  1.3317
  154SAPE  C31517202   0.621   3.339   9.080  0.4736 -0.3371 -0.0141
  154SAPE  H15X17203   0.527   3.328   9.022  0.7559  2.0218 -1.0591
  154SAPE  H15Y17204   0.696   3.264   9.045 -1.3641 -3.0751  1.5580
  154SAPE  C31617205   0.683   3.479   9.053 -0.3682  0.3914  0.7781
  154SAPE  H16X17206   0.774   3.498   9.112 -0.8082  1.0347  1.2647
  154SAPE  H16Y17207   0.610   3.560   9.077 -0.5400  0.0590  1.3870
  154SAPE  C31717208   0.713   3.502   8.909 -0.3540 -0.0495  0.2474
  154SAPE  H17X17209   0.620   3.494   8.850 -0.3732  0.6230  0.1783
  154SAPE  H17Y17210   0.777   3.420   8.871  0.3265  1.6805 -2.6235
  154SAPE  C31817211   0.785   3.637   8.889  0.7471  0.4992  0.2073
  154SAPE  H18X17212   0.732   3.718   8.943 -0.9924 -1.5868  1.7868
  154SAPE  H18Y17213   0.789   3.660   8.780  0.9382 -1.5947 -0.2786
  154SAPE  H18Z17214   0.887   3.627   8.933 -0.0338 -0.8454  1.8102
  155SAPE     N17215   0.783   4.776  11.235 -0.0619  0.3196 -0.3746
  155SAPE   HN117216   0.689   4.820  11.224  0.4996  1.6798 -0.0072
  155SAPE   HN217217   0.779   4.716  11.320  1.0906 -1.1540 -1.3341
  155SAPE   HN317218   0.853   4.852  11.247 -0.4518  0.9406 -1.8750
  155SAPE   C1217219   0.779   4.692  11.109  0.2057 -0.7883 -0.2889
  155SAPE  H12A17220   0.693   4.624  11.123  0.9312 -1.5174  0.7885
  155SAPE  H12B17221   0.862   4.624  11.080  1.2960  0.4661 -0.2210
  155SAPE   C1117222   0.771   4.790  10.991  0.2683  0.1058  0.2108
  155SAPE  H11A17223   0.698   4.871  11.011  0.3903  0.8222 -2.0321
  155SAPE  H11B17224   0.751   4.746  10.891  2.7034 -0.7750  0.0167
  155SAPE     P17225   1.020   4.791  10.895 -0.1161  0.0970 -0.5300
  155SAPE   O1317226   1.122   4.891  10.874 -0.2449 -0.4609 -0.5186
  155SAPE   O1417227   1.066   4.668  10.965 -0.3397  1.1087  0.3824
  155SAPE   O1217228   0.899   4.856  10.975  0.3061 -0.4042 -0.0461
  155SAPE   O1117229   0.957   4.753  10.748  0.5431 -0.2835 -0.5028
  155SAPE    C117230   1.020   4.649  10.680 -0.6070  0.1031  0.6723
  155SAPE    HA17231   1.129   4.668  10.668 -0.3532 -2.3721 -2.1965
  155SAPE    HB17232   1.026   4.558  10.743 -2.6937  0.2815  1.1792
  155SAPE    C217233   0.974   4.600  10.538 -0.2943 -0.1854  0.1618
  155SAPE    HS17234   1.040   4.521  10.497 -0.1274 -0.2572  0.5720
  155SAPE   O2117235   0.970   4.713  10.444  0.1087  0.3100 -0.3081
  155SAPE   C2117236   1.081   4.783  10.430 -0.3012 -0.1931  0.3365
  155SAPE   O2217237   1.195   4.756  10.457 -0.0157 -0.0822 -0.1896
  155SAPE   C2217238   1.043   4.920  10.379 -0.2720 -0.6841  0.0132
  155SAPE   H2R17239   0.934   4.932  10.358 -0.1527 -0.2740 -0.3874
  155SAPE   H2S17240   1.079   4.985  10.461  0.0018 -1.7549  0.7665
  155SAPE    C317241   0.824   4.536  10.539 -0.3759 -0.2806 -0.3013
  155SAPE    HX17242   0.750   4.612  10.571  0.2120 -0.2318  1.0244
  155SAPE    HY17243   0.831   4.465  10.624  1.8706  0.9782  0.6518
  155SAPE   O3117244   0.804   4.469  10.413  0.5586 -0.3880  0.4423
  155SAPE   C3117245   0.730   4.542  10.333 -0.3126 -1.1707  1.0070
  155SAPE   O3217246   0.664   4.642  10.364  0.1118  0.4956  0.2291
  155SAPE   C3217247   0.743   4.495  10.189  0.4668 -1.0885 -0.4596
  155SAPE   H2X17248   0.739   4.384  10.179 -0.3144 -0.9281 -2.1544
  155SAPE   H2Y17249   0.849   4.521  10.169  1.3613 -1.6595  2.9627
  155SAPE   C2317250   1.118   4.940  10.247  0.1938  0.7093  0.0558
  155SAPE   H3R17251   1.227   4.922  10.259 -0.0125  0.1701  1.3163
  155SAPE   H3S17252   1.098   5.042  10.208 -1.2624 -0.0925 -1.4294
  155SAPE   C2417253   1.063   4.833  10.144  0.3343 -0.2156 -1.0190
  155SAPE   H4R17254   1.082   4.730  10.179 -3.4569 -1.3310 -1.8450
  155SAPE   H4S17255   1.129   4.851  10.056  2.3702 -0.2626  0.4221
  155SAPE   C2517256   0.915   4.852  10.117 -0.2295  1.1274  0.1214
  155SAPE   H5R17257   0.848   4.810  10.193  1.3228  1.9785  2.0654
  155SAPE   C2617258   0.853   4.897  10.007 -0.0334 -0.0005 -0.2875
  155SAPE   H6R17259   0.743   4.904  10.006 -0.0885 -0.4337  1.0576
  155SAPE   C2717260   0.919   4.953   9.892 -0.2993  0.0814  0.5369
  155SAPE   H7R17261   0.994   5.029   9.924 -0.5683  0.7616 -0.3982
  155SAPE   H7S17262   0.839   5.003   9.833  1.4478  2.5607  0.1086
  155SAPE   C2817263   0.996   4.862   9.801 -0.1251 -0.1555  0.5141
  155SAPE   H8R17264   1.083   4.823   9.855 -0.2682 -1.3087 -0.0620
  155SAPE   C2917265   0.971   4.812   9.684 -0.0058  0.4047  0.2670
  155SAPE   H9R17266   1.046   4.747   9.636 -0.1311  2.0212 -2.3205
  155SAPE  C21017267   0.838   4.831   9.615  0.3207 -0.2976 -0.2824
  155SAPE  H10R17268   0.779   4.924   9.626 -0.7435 -0.7952 -1.5957
  155SAPE  H10S17269   0.779   4.746   9.656  2.7232 -3.3972 -2.6722
  155SAPE  C21117270   0.849   4.805   9.470  0.4920  0.1325  0.1770
  155SAPE  H11R17271   0.819   4.702   9.446 -0.2273 -0.1222  2.0152
  155SAPE  C21217272   0.881   4.899   9.376  0.3947  0.0535  0.5361
  155SAPE  H12R17273   0.886   4.870   9.270  2.1605  2.0342  0.0137
  155SAPE  C21317274   0.915   5.042   9.391  0.4482 -0.6571  0.3350
  155SAPE  H13R17275   0.890   5.068   9.496 -0.0210 -0.1957  0.1094
  155SAPE  H13S17276   0.845   5.108   9.337  0.6313  0.4254  1.3808
  155SAPE  C21417277   1.059   5.063   9.352 -0.5286  0.1822  0.1840
  155SAPE  H14R17278   1.127   5.029   9.431 -3.1702 -0.3622  2.3924
  155SAPE  C21517279   1.106   5.108   9.231  0.2633 -0.1446  0.1517
  155SAPE  H15R17280   1.214   5.107   9.214  0.1873  0.2898 -0.3797
  155SAPE  C21617281   1.026   5.144   9.110  0.8583  0.0930 -0.6942
  155SAPE  H16R17282   0.954   5.061   9.099  0.8057 -0.1838  1.3812
  155SAPE  H16S17283   1.093   5.141   9.021  0.9267 -1.8114 -0.6196
  155SAPE  C21717284   0.964   5.288   9.121  0.1857  0.2779 -0.2632
  155SAPE  H17R17285   1.045   5.362   9.100 -0.7268  1.5799  0.6374
  155SAPE  H17S17286   0.930   5.319   9.222 -2.1978 -0.7541 -0.6759
  155SAPE  C21817287   0.845   5.303   9.027  0.2227  0.3448 -0.0603
  155SAPE  H18R17288   0.802   5.405   9.041  0.3235  0.5999 -1.4528
  155SAPE  H18S17289   0.776   5.223   9.061  0.2463  0.9157  1.4279
  155SAPE  C21917290   0.865   5.295   8.871  0.2239 -0.2721  0.3181
  155SAPE  H19R17291   0.905   5.195   8.843 -0.7441  0.0179 -2.3804
  155SAPE  H19S17292   0.945   5.369   8.849  0.3216 -0.9414 -1.8189
  155SAPE  C22017293   0.737   5.325   8.792 -0.5643 -0.6066 -0.4661
  155SAPE  H20R17294   0.663   5.244   8.813 -0.9657 -0.9154 -2.8093
  155SAPE  H20S17295   0.756   5.317   8.683 -0.3429 -0.7463 -0.4190
  155SAPE  H20T17296   0.695   5.422   8.826 -0.2869 -0.0736 -1.6101
  155SAPE   C3317297   0.645   4.567  10.096 -0.4380 -0.0766  0.0162
  155SAPE   H3X17298   0.651   4.677  10.110 -0.4906  0.0548 -0.9612
  155SAPE   H3Y17299   0.538   4.550  10.119 -0.4550  0.7744  0.6040
  155SAPE   C3417300   0.663   4.529   9.947 -0.1209  0.5364 -0.4664
  155SAPE   H4X17301   0.703   4.426   9.935  0.6928  0.7605  0.2466
  155SAPE   H4Y17302   0.731   4.603   9.901 -1.5580  1.9572 -0.4165
  155SAPE   C3517303   0.545   4.547   9.853  0.4745  0.4558  1.2954
  155SAPE   H5X17304   0.520   4.655   9.844 -2.3124 -0.1392  0.9539
  155SAPE   H5Y17305   0.457   4.492   9.893 -0.3773 -0.5029 -1.6857
  155SAPE   C3617306   0.586   4.497   9.710  0.1449 -0.4112 -0.6020
  155SAPE   H6X17307   0.600   4.387   9.714  1.3521 -0.2535 -0.0709
  155SAPE   H6Y17308   0.681   4.538   9.670 -0.1417  3.4158  2.0710
  155SAPE   C3717309   0.473   4.516   9.606  0.1218 -0.0857 -0.1732
  155SAPE   H7X17310   0.456   4.626   9.610 -1.4459 -0.2456 -1.4537
  155SAPE   H7Y17311   0.385   4.458   9.640 -0.2453  0.0850 -0.8154
  155SAPE   C3817312   0.520   4.492   9.470  0.1948  0.5576  0.3945
  155SAPE   H8X17313   0.517   4.382   9.457 -2.0666  0.7434 -1.2662
  155SAPE   H8Y17314   0.625   4.525   9.455 -0.2949  1.7958 -0.5033
  155SAPE   C3917315   0.437   4.567   9.367  0.0145 -0.1744  0.2535
  155SAPE   H9X17316   0.416   4.669   9.406 -1.5284  0.1453 -1.2846
  155SAPE   H9Y17317   0.337   4.521   9.350  0.4973 -1.5189  0.9538
  155SAPE  C31017318   0.488   4.596   9.224 -0.0036 -0.2761 -0.3805
  155SAPE  H10X17319   0.568   4.667   9.256  0.2525 -1.7231  2.4382
  155SAPE  H10Y17320   0.413   4.653   9.164  0.0356  1.3292  1.0059
  155SAPE  C31117321   0.558   4.482   9.145 -0.8569 -0.6229 -0.2170
  155SAPE  H11X17322   0.620   4.426   9.218  0.6189  0.1910 -0.8036
  155SAPE  H11Y17323   0.617   4.529   9.063  1.6781 -1.4366  1.0344
  155SAPE  C31217324   0.457   4.387   9.078 -0.5437  0.0411 -0.3228
  155SAPE  H12X17325   0.384   4.362   9.159 -1.0869 -0.8881 -1.0775
  155SAPE  H12Y17326   0.509   4.293   9.047 -1.0442 -0.5680  0.6293
  155SAPE  C31317327   0.394   4.432   8.948  0.6578 -0.7761 -0.1537
  155SAPE  H13X17328   0.310   4.500   8.971  0.7012 -0.3586 -1.2100
  155SAPE  H13Y17329   0.353   4.338   8.906  2.4111 -2.2730  1.2884
  155SAPE  C31417330   0.473   4.522   8.844 -0.0084  0.1333 -0.2999
  155SAPE  H14X17331   0.543   4.451   8.796 -1.5614 -1.7591  0.1021
  155SAPE  H14Y17332   0.529   4.605   8.891 -0.3097 -0.3598  0.9771
  155SAPE  C31517333   0.392   4.597   8.729 -0.5067  0.1340  0.4888
  155SAPE  H15X17334   0.471   4.652   8.674  1.8514 -2.5515  0.9481
  155SAPE  H15Y17335   0.308   4.659   8.766 -0.7317  0.1058  0.0250
  155SAPE  C31617336   0.337   4.485   8.636  0.2741  0.1962 -0.0862
  155SAPE  H16X17337   0.268   4.410   8.681  2.5009 -1.9444 -0.0702
  155SAPE  H16Y17338   0.426   4.424   8.610  1.1877 -0.9041  4.6722
  155SAPE  C31717339   0.285   4.539   8.502 -0.7956 -0.4696  0.3612
  155SAPE  H17X17340   0.365   4.588   8.443 -1.5780  0.3586 -0.0429
  155SAPE  H17Y17341   0.211   4.620   8.519  0.8195  1.3449 -0.9137
  155SAPE  C31817342   0.227   4.431   8.419  0.3435 -0.4843 -0.5041
  155SAPE  H18X17343   0.130   4.391   8.456  0.1279  0.5388  0.0546
  155SAPE  H18Y17344   0.295   4.346   8.398  0.9598 -0.3675  0.9084
  155SAPE  H18Z17345   0.202   4.478   8.322 -2.5779  0.0776  0.4131
  156SAPE     N17346   5.576   5.422  11.033  0.0976 -0.6082 -0.4360
  156SAPE   HN117347   5.515   5.458  11.109  0.0422 -0.6527 -0.4594
  156SAPE   HN217348   5.648   5.495  11.018 -0.0813 -0.1222  0.9379
  156SAPE   HN317349   5.523   5.420  10.943 -1.7225 -0.4599  0.5947
  156SAPE   C1217350   5.634   5.291  11.066 -0.3927 -0.2147  0.3749
  156SAPE  H12A17351   5.690   5.305  11.161 -0.0188  2.4770 -0.1345
  156SAPE  H12B17352   5.708   5.263  10.988 -0.2086  0.3693  0.3343
  156SAPE   C1117353   5.529   5.181  11.064 -0.6796 -0.0645 -0.9218
  156SAPE  H11A17354   5.439   5.202  11.126 -1.4638 -0.3467 -1.9325
  156SAPE  H11B17355   5.575   5.091  11.110  0.4059 -0.1792 -2.1865
  156SAPE     P17356   5.379   5.045  10.922 -0.3995  0.4829 -0.4655
  156SAPE   O1317357   5.431   4.915  10.982  0.7824 -0.2206  0.6791
  156SAPE   O1417358   5.252   5.103  10.972 -0.3182  0.4583  0.1430
  156SAPE   O1217359   5.491   5.153  10.935  0.1669 -0.4230 -0.2480
  156SAPE   O1117360   5.371   5.019  10.769 -0.2418  0.0964  0.2063
  156SAPE    C117361   5.360   5.131  10.672  0.7052  0.3450 -0.7250
  156SAPE    HA17362   5.346   5.230  10.721  0.2447 -0.7244  1.4013
  156SAPE    HB17363   5.455   5.139  10.615  0.0477 -0.0443 -1.9142
  156SAPE    C217364   5.252   5.103  10.563 -0.6049  0.3971 -1.0353
  156SAPE    HS17365   5.160   5.088  10.622  0.7648 -3.1920  0.4588
  156SAPE   O2117366   5.285   4.992  10.488 -0.1894 -0.0222  1.0491
  156SAPE   C2117367   5.220   4.878  10.512  0.2707  0.3438 -0.4316
  156SAPE   O2217368   5.147   4.856  10.607  0.2782  0.1516 -0.6785
  156SAPE   C2217369   5.246   4.771  10.395  0.4348  0.1344 -0.2416
  156SAPE   H2R17370   5.344   4.803  10.356 -0.0669  1.2232 -0.6386
  156SAPE   H2S17371   5.264   4.677  10.452  0.7293 -1.1484 -2.3451
  156SAPE    C317372   5.214   5.217  10.475 -0.3977  0.3400  0.2898
  156SAPE    HX17373   5.206   5.305  10.543 -1.6757 -1.0865  2.0898
  156SAPE    HY17374   5.114   5.190  10.436 -0.9528  2.2858  0.2357
  156SAPE   O3117375   5.310   5.239  10.373  0.4832  0.2256 -0.2264
  156SAPE   C3117376   5.288   5.197  10.253  0.4968 -0.0617 -0.3306
  156SAPE   O3217377   5.184   5.156  10.207  0.3927  0.5267  0.3794
  156SAPE   C3217378   5.425   5.175  10.180 -0.1026 -0.4022 -0.3109
  156SAPE   H2X17379   5.444   5.067  10.193  3.6040 -0.3014 -3.2478
  156SAPE   H2Y17380   5.515   5.228  10.216  1.4756 -2.0184 -1.6943
  156SAPE   C2317381   5.141   4.763  10.280  0.4102 -0.3200  0.8143
  156SAPE   H3R17382   5.110   4.865  10.250 -1.6550 -1.0842  0.1726
  156SAPE   H3S17383   5.055   4.716  10.331  0.7911 -0.0427  1.7185
  156SAPE   C2417384   5.184   4.689  10.145 -1.0418  0.0427 -0.8662
  156SAPE   H4R17385   5.091   4.661  10.090 -0.6566 -1.4490 -0.8082
  156SAPE   H4S17386   5.222   4.586  10.161 -1.4731 -0.5695 -3.2328
  156SAPE   C2517387   5.286   4.768  10.067  0.0319  0.1792 -0.4469
  156SAPE   H5R17388   5.387   4.741  10.101 -0.7919 -4.5965 -1.0921
  156SAPE   C2617389   5.254   4.840   9.953  0.0723 -0.3004 -0.1741
  156SAPE   H6R17390   5.333   4.901   9.907  1.3627  0.6142  2.9434
  156SAPE   C2717391   5.120   4.849   9.887 -0.3871  0.1730 -0.4887
  156SAPE   H7R17392   5.046   4.812   9.962  0.6783  0.5698  0.8079
  156SAPE   H7S17393   5.125   4.777   9.803  2.7388  0.7375 -0.8850
  156SAPE   C2817394   5.095   4.993   9.835 -0.7538  0.6469  0.4649
  156SAPE   H8R17395   5.138   5.072   9.898  2.1395 -0.2256 -0.2909
  156SAPE   C2917396   5.021   5.033   9.732 -0.1963 -0.3493  0.3096
  156SAPE   H9R17397   5.013   5.141   9.717  0.7575 -0.1508  1.1341
  156SAPE  C21017398   4.951   4.951   9.636 -0.2407 -0.1179 -0.3518
  156SAPE  H10R17399   4.852   4.945   9.687  0.7280 -0.0885  1.6272
  156SAPE  H10S17400   4.992   4.849   9.634  1.4470  0.4940  0.8354
  156SAPE  C21117401   4.945   4.993   9.493  0.1777 -0.6156 -0.4343
  156SAPE  H11R17402   4.848   5.037   9.466 -0.0818  0.6700  2.3378
  156SAPE  C21217403   5.047   4.997   9.401 -0.2526 -0.6202 -0.5745
  156SAPE  H12R17404   5.022   5.032   9.300 -0.1371 -0.7095 -0.6352
  156SAPE  C21317405   5.197   4.972   9.429 -0.5753  0.2571  0.5351
  156SAPE  H13R17406   5.215   5.006   9.533 -1.0604  1.8717  0.1249
  156SAPE  H13S17407   5.254   5.034   9.356 -2.6299 -0.2284 -1.5998
  156SAPE  C21417408   5.223   4.826   9.410 -0.4339 -0.4157 -0.7948
  156SAPE  H14R17409   5.220   4.769   9.504 -2.1302  3.1162  1.4714
  156SAPE  C21517410   5.266   4.762   9.291  0.7585  0.3022 -0.4195
  156SAPE  H15R17411   5.267   4.652   9.285 -2.9660  0.1882 -0.8864
  156SAPE  C21617412   5.281   4.833   9.162  0.0337  0.7227  0.4405
  156SAPE  H16R17413   5.379   4.881   9.140 -1.1213  3.2155  0.3066
  156SAPE  H16S17414   5.219   4.925   9.161  0.2953  0.9806  2.6775
  156SAPE  C21717415   5.250   4.733   9.053 -0.2051  0.2851  0.3032
  156SAPE  H17R17416   5.233   4.791   8.961  1.2385  0.7845  0.3208
  156SAPE  H17S17417   5.156   4.683   9.083 -0.8438  2.5803  2.4667
  156SAPE  C21817418   5.368   4.641   9.029 -0.5052 -0.1202  0.3154
  156SAPE  H18R17419   5.395   4.580   9.117  0.7048  0.3856  0.3079
  156SAPE  H18S17420   5.452   4.710   9.006 -0.4076 -0.2672  0.2282
  156SAPE  C21917421   5.348   4.539   8.920 -0.5596  0.4780  0.3801
  156SAPE  H19R17422   5.245   4.499   8.931 -0.5057  0.4009  0.6125
  156SAPE  H19S17423   5.429   4.462   8.915  2.1575  3.1505  0.1008
  156SAPE  C22017424   5.349   4.613   8.783 -0.1654  0.3959 -0.4269
  156SAPE  H20R17425   5.292   4.556   8.707  0.8693  0.9925 -1.6717
  156SAPE  H20S17426   5.454   4.617   8.748  0.1338 -0.1029  0.3836
  156SAPE  H20T17427   5.307   4.716   8.781  1.6834  1.1576 -1.7975
  156SAPE   C3317428   5.415   5.208  10.022 -0.2209  0.6162 -1.2527
  156SAPE   H3X17429   5.404   5.318  10.013  0.0475  1.0795  2.4665
  156SAPE   H3Y17430   5.326   5.165   9.972 -0.2195 -0.1625 -0.6093
  156SAPE   C3417431   5.534   5.150   9.941  0.0557  0.2339  0.2554
  156SAPE   H4X17432   5.566   5.050   9.977 -2.3708  0.2258  2.6675
  156SAPE   H4Y17433   5.616   5.224   9.954  0.9493 -0.4685 -1.1028
  156SAPE   C3517434   5.489   5.134   9.791  0.1745 -0.1089 -0.5497
  156SAPE   H5X17435   5.471   5.230   9.739 -0.1813 -1.1210 -2.3947
  156SAPE   H5Y17436   5.392   5.079   9.789 -0.0945  0.3787 -1.8968
  156SAPE   C3617437   5.613   5.063   9.722  0.4231  0.4827  0.1901
  156SAPE   H6X17438   5.629   4.968   9.776 -1.7465 -1.6045 -2.5474
  156SAPE   H6Y17439   5.691   5.142   9.720 -0.9797  1.9166 -0.3997
  156SAPE   C3717440   5.572   5.026   9.581  0.3768 -0.3308  0.2028
  156SAPE   H7X17441   5.475   4.972   9.586  0.1850  0.0767  1.1680
  156SAPE   H7Y17442   5.653   4.963   9.541  2.0865  0.7470  1.7826
  156SAPE   C3817443   5.549   5.139   9.476 -0.0763  0.1337 -0.3150
  156SAPE   H8X17444   5.621   5.223   9.489 -1.7173  1.4493  0.6020
  156SAPE   H8Y17445   5.452   5.190   9.495  0.1581  1.2430 -1.8763
  156SAPE   C3917446   5.556   5.083   9.328  0.5625 -0.1085 -0.2228
  156SAPE   H9X17447   5.471   5.012   9.331 -1.0736  1.7972  0.5166
  156SAPE   H9Y17448   5.648   5.024   9.309 -1.0660 -1.8938 -3.3525
  156SAPE  C31017449   5.532   5.182   9.216 -0.8985  0.1112  0.1409
  156SAPE  H10X17450   5.626   5.239   9.199 -1.1793 -0.0068 -2.0483
  156SAPE  H10Y17451   5.446   5.247   9.245 -2.0932 -1.3830  0.0612
  156SAPE  C31117452   5.494   5.129   9.075 -0.2401 -0.0138 -0.7712
  156SAPE  H11X17453   5.477   5.219   9.013 -1.0557  1.4495  1.4594
  156SAPE  H11Y17454   5.393   5.086   9.088 -0.5481  0.6340 -0.9778
  156SAPE  C31217455   5.597   5.029   9.011  0.4481 -0.2170  0.5981
  156SAPE  H12X17456   5.614   4.937   9.071 -0.7304 -1.6041 -1.1083
  156SAPE  H12Y17457   5.696   5.079   8.997 -0.3067  1.1261 -0.1419
  156SAPE  C31317458   5.550   4.984   8.868  0.0017 -0.3607 -0.1174
  156SAPE  H13X17459   5.443   4.955   8.875  0.3838 -1.8636 -0.2804
  156SAPE  H13Y17460   5.612   4.897   8.841  0.5160 -0.2526  0.6836
  156SAPE  C31417461   5.550   5.095   8.765 -0.2996 -0.6129 -0.5431
  156SAPE  H14X17462   5.652   5.135   8.781 -1.4406  2.4597 -0.2584
  156SAPE  H14Y17463   5.474   5.169   8.797  1.2854  0.2508  1.4107
  156SAPE  C31517464   5.540   5.065   8.615  0.3777  1.3029 -0.4376
  156SAPE  H15X17465   5.637   5.021   8.583 -0.0434  1.0542 -1.4146
  156SAPE  H15Y17466   5.524   5.161   8.562  0.2023  1.3930 -0.2219
  156SAPE  C31617467   5.417   4.981   8.569  0.0140  0.6429 -0.6374
  156SAPE  H16X17468   5.332   5.020   8.630 -0.5278 -0.6542 -0.5371
  156SAPE  H16Y17469   5.441   4.875   8.588 -2.0416  0.4944  1.7631
  156SAPE  C31717470   5.364   4.999   8.432 -0.9280  0.0581 -0.5122
  156SAPE  H17X17471   5.444   4.975   8.359 -0.5536 -1.2949  0.3117
  156SAPE  H17Y17472   5.342   5.108   8.424 -1.1207 -0.0133 -1.0064
  156SAPE  C31817473   5.242   4.910   8.402 -0.0799  0.0847  0.3592
  156SAPE  H18X17474   5.273   4.803   8.402  1.6374  0.5149  1.9382
  156SAPE  H18Y17475   5.198   4.947   8.308  0.6537  2.1840  0.7942
  156SAPE  H18Z17476   5.171   4.919   8.487 -0.0031  0.1003  0.4227
  157SAPE     N17477   4.316   5.095  10.833  0.5555 -0.1342 -0.5738
  157SAPE   HN117478   4.295   5.016  10.897 -1.2236 -1.2808 -2.4617
  157SAPE   HN217479   4.415   5.090  10.800  0.7537  1.1006 -0.2118
  157SAPE   HN317480   4.307   5.181  10.890 -1.0271 -1.5120  1.3937
  157SAPE   C1217481   4.209   5.083  10.730 -0.2759  1.1991 -0.3343
  157SAPE  H12A17482   4.186   5.177  10.675 -2.8144  0.1767 -1.1402
  157SAPE  H12B17483   4.115   5.056  10.783  0.9482 -2.4601  0.2048
  157SAPE   C1117484   4.242   4.972  10.627 -0.1290 -0.3328 -0.9093
  157SAPE  H11A17485   4.340   4.997  10.582 -0.0031  0.8969  0.0088
  157SAPE  H11B17486   4.166   4.964  10.546 -1.7326 -0.0831  0.5009
  157SAPE     P17487   4.205   4.712  10.645  0.1795  0.1479  0.2905
  157SAPE   O1317488   4.254   4.606  10.738  1.0753 -0.5022 -0.2061
  157SAPE   O1417489   4.061   4.727  10.618 -0.6670  0.5645 -0.4729
  157SAPE   O1217490   4.253   4.854  10.694  0.2972 -0.0619 -0.2198
  157SAPE   O1117491   4.281   4.694  10.506  0.8117  0.1392 -0.2322
  157SAPE    C117492   4.421   4.714  10.517  0.5624  0.2973  0.4787
  157SAPE    HA17493   4.454   4.804  10.573 -1.1664  0.1411  1.8355
  157SAPE    HB17494   4.477   4.630  10.564  1.5490  0.8415  0.2889
  157SAPE    C217495   4.491   4.739  10.380  0.2409  0.1616 -1.3229
  157SAPE    HS17496   4.550   4.831  10.398 -1.0378  0.4183  2.8260
  157SAPE   O2117497   4.401   4.763  10.271  0.1151  0.2137  0.3301
  157SAPE   C2117498   4.330   4.874  10.273 -0.0372  0.0983  0.1272
  157SAPE   O2217499   4.364   4.973  10.335  0.2092  0.0872  0.8938
  157SAPE   C2217500   4.202   4.851  10.185  0.0598  0.2778 -0.4473
  157SAPE   H2R17501   4.236   4.815  10.086 -1.0343 -0.5295 -0.5472
  157SAPE   H2S17502   4.144   4.765  10.226  2.6693 -2.1480 -1.5010
  157SAPE    C317503   4.597   4.621  10.343  0.1168 -0.1950  0.7633
  157SAPE    HX17504   4.526   4.536  10.342 -0.0906 -0.0213 -0.1675
  157SAPE    HY17505   4.675   4.625  10.422 -0.9635  0.3932  1.8407
  157SAPE   O3117506   4.649   4.641  10.208  0.5250 -0.3437 -0.4542
  157SAPE   C3117507   4.735   4.547  10.175 -0.2898 -0.6147 -0.2834
  157SAPE   O3217508   4.758   4.448  10.242  0.7356  0.0739  0.6042
  157SAPE   C3217509   4.792   4.576  10.034  0.3615  0.2633 -0.1491
  157SAPE   H2X17510   4.849   4.671  10.037  0.7410  0.0136  1.0525
  157SAPE   H2Y17511   4.705   4.593   9.967 -0.6555 -0.2894  0.9923
  157SAPE   C2317512   4.124   4.980  10.181  0.0138  0.4803  0.1980
  157SAPE   H3R17513   4.191   5.058  10.140 -0.1989  0.2254 -0.6563
  157SAPE   H3S17514   4.091   4.996  10.286 -1.1523  0.5500 -0.1661
  157SAPE   C2417515   4.003   4.975  10.086 -0.3992  0.2843 -0.1317
  157SAPE   H4R17516   3.935   5.052  10.128 -0.7129  0.5802 -1.1589
  157SAPE   H4S17517   3.950   4.881  10.111 -1.2212  1.1604  1.5705
  157SAPE   C2517518   4.039   5.000   9.940  0.1648  0.1304  0.0044
  157SAPE   H5R17519   4.127   5.065   9.931  0.7309 -0.3895  1.4998
  157SAPE   C2617520   3.988   4.949   9.826  0.1111 -1.5253  0.4052
  157SAPE   H6R17521   4.039   4.955   9.729  0.8669 -1.5282  0.7994
  157SAPE   C2717522   3.866   4.854   9.829 -0.0136  0.3014 -0.6154
  157SAPE   H7R17523   3.781   4.889   9.768 -0.7265 -1.6482 -0.8044
  157SAPE   H7S17524   3.835   4.844   9.936  2.6297 -1.0181  0.1262
  157SAPE   C2817525   3.910   4.714   9.779 -0.4020 -0.4381 -0.8406
  157SAPE   H8R17526   3.969   4.713   9.686  0.9857  0.0870  0.0019
  157SAPE   C2917527   3.865   4.599   9.827  0.2460 -0.3368  0.2932
  157SAPE   H9R17528   3.919   4.508   9.801 -0.6926 -0.7637 -0.2075
  157SAPE  C21017529   3.762   4.577   9.936 -0.1087 -0.3196  0.2321
  157SAPE  H10R17530   3.696   4.666   9.944  0.1007 -0.1805  0.3907
  157SAPE  H10S17531   3.829   4.568  10.023  1.2493 -2.1856 -0.9347
  157SAPE  C21117532   3.672   4.452   9.917 -0.4987  0.6524 -0.1645
  157SAPE  H11R17533   3.652   4.408  10.016  2.0244  2.7075  1.4090
  157SAPE  C21217534   3.613   4.409   9.800 -0.4639 -0.8357  0.5651
  157SAPE  H12R17535   3.543   4.324   9.805 -0.7366 -0.5340  2.2096
  157SAPE  C21317536   3.624   4.476   9.663 -0.0709  0.4552  0.8455
  157SAPE  H13R17537   3.648   4.584   9.668  0.6469  0.5563 -2.4470
  157SAPE  H13S17538   3.531   4.460   9.604  0.7935 -0.9252 -0.2155
  157SAPE  C21417539   3.736   4.413   9.586  0.2390  0.2120  0.0323
  157SAPE  H14R17540   3.830   4.470   9.582 -0.5819  1.5603 -0.5950
  157SAPE  C21517541   3.725   4.300   9.511  0.3437 -0.0533  0.0125
  157SAPE  H15R17542   3.806   4.245   9.461 -0.0503 -0.7726  0.1590
  157SAPE  C21617543   3.594   4.229   9.481  0.4857  0.1885 -0.3758
  157SAPE  H16R17544   3.507   4.264   9.542  0.9582 -1.1764  1.1311
  157SAPE  H16S17545   3.609   4.126   9.519 -0.6803  0.1287 -0.0226
  157SAPE  C21717546   3.562   4.223   9.333 -0.1782  0.6415  0.2348
  157SAPE  H17R17547   3.556   4.325   9.289 -1.0160  0.7488  0.5790
  157SAPE  H17S17548   3.468   4.168   9.312  1.4469 -2.0729 -0.4130
  157SAPE  C21817549   3.662   4.143   9.247 -0.4523  0.2950 -0.7388
  157SAPE  H18R17550   3.684   4.049   9.301 -2.2786  0.6689  0.7839
  157SAPE  H18S17551   3.759   4.199   9.251 -0.9926  1.2215  0.2219
  157SAPE  C21917552   3.605   4.117   9.112 -0.3534 -0.5523  0.3336
  157SAPE  H19R17553   3.681   4.059   9.055  0.5720  1.1556 -0.2449
  157SAPE  H19S17554   3.586   4.210   9.055  0.6699 -0.9802 -0.7587
  157SAPE  C22017555   3.475   4.043   9.100  0.6883 -0.0136 -0.4302
  157SAPE  H20R17556   3.490   3.948   9.155 -0.1263  0.0070 -0.1635
  157SAPE  H20S17557   3.475   4.010   8.994 -1.4186 -2.3623  0.2077
  157SAPE  H20T17558   3.391   4.111   9.126 -0.9285 -1.8648 -0.5752
  157SAPE   C3317559   4.885   4.457   9.989 -0.5750 -0.2827  0.2072
  157SAPE   H3X17560   4.834   4.358   9.992 -1.3728  0.1206  0.2191
  157SAPE   H3Y17561   4.962   4.446  10.068 -0.3990  1.5437  0.3202
  157SAPE   C3417562   4.947   4.477   9.860 -0.2476  0.1275 -0.2575
  157SAPE   H4X17563   5.015   4.391   9.844  0.4464  0.5246  0.4497
  157SAPE   H4Y17564   5.014   4.566   9.858 -0.2288  0.1862  1.3758
  157SAPE   C3517565   4.855   4.478   9.734 -0.1050  0.3053  0.2159
  157SAPE   H5X17566   4.778   4.555   9.758  0.6687  0.9417  0.7020
  157SAPE   H5Y17567   4.815   4.376   9.719 -0.0971 -0.1575  2.9124
  157SAPE   C3617568   4.927   4.523   9.605  0.2076  0.2782  0.4368
  157SAPE   H6X17569   5.000   4.443   9.579  0.8240  0.1492  2.3800
  157SAPE   H6Y17570   4.984   4.615   9.630  0.7257  0.6026 -1.7971
  157SAPE   C3717571   4.823   4.543   9.489  0.2277  0.1647  0.1116
  157SAPE   H7X17572   4.748   4.616   9.525 -0.9042 -1.3237  0.9200
  157SAPE   H7Y17573   4.767   4.449   9.465  1.8165 -1.4036  2.1604
  157SAPE   C3817574   4.888   4.596   9.366  0.1132 -0.2256 -0.3632
  157SAPE   H8X17575   4.973   4.530   9.337  1.3196  2.1892 -2.7460
  157SAPE   H8Y17576   4.941   4.692   9.385  0.5433 -0.4209 -0.5593
  157SAPE   C3917577   4.791   4.608   9.250 -0.2517  0.3607 -0.1175
  157SAPE   H9X17578   4.712   4.678   9.284 -0.3792  0.7029 -1.0739
  157SAPE   H9Y17579   4.746   4.508   9.231  2.1092 -1.0061  1.1160
  157SAPE  C31017580   4.836   4.660   9.114 -0.6942 -0.2926 -0.2796
  157SAPE  H10X17581   4.758   4.644   9.037 -2.8302 -0.7874  1.8911
  157SAPE  H10Y17582   4.923   4.595   9.088 -0.2103  0.5773 -0.8983
  157SAPE  C31117583   4.866   4.812   9.128 -0.5200  0.3295 -0.0647
  157SAPE  H11X17584   4.938   4.823   9.211  0.1918  0.9632 -0.7535
  157SAPE  H11Y17585   4.776   4.872   9.154  0.6729  2.4151 -0.5743
  157SAPE  C31217586   4.922   4.866   8.991 -0.4061 -0.3926  0.0717
  157SAPE  H12X17587   4.973   4.792   8.927  0.4319  1.2933 -1.3048
  157SAPE  H12Y17588   5.002   4.940   9.014 -1.4904  1.6743 -2.2498
  157SAPE  C31317589   4.821   4.939   8.903 -0.2714  0.5036  0.4318
  157SAPE  H13X17590   4.858   5.037   8.867  0.9495 -0.2429 -0.4165
  157SAPE  H13Y17591   4.741   4.953   8.979  0.3552 -0.8794  1.3814
  157SAPE  C31417592   4.750   4.867   8.790  0.7862  0.8908  0.4806
  157SAPE  H14X17593   4.652   4.917   8.773 -0.0777 -1.1441 -0.9027
  157SAPE  H14Y17594   4.730   4.767   8.833 -1.2731  0.4210 -1.3647
  157SAPE  C31517595   4.832   4.841   8.656 -0.5294  0.6438 -0.4654
  157SAPE  H15X17596   4.909   4.770   8.694 -0.1070  2.1604  1.6955
  157SAPE  H15Y17597   4.870   4.943   8.633 -1.3436  1.4033  1.3604
  157SAPE  C31617598   4.758   4.786   8.542 -0.5924 -0.5428 -0.1115
  157SAPE  H16X17599   4.668   4.851   8.540  1.1999  2.0430 -0.9872
  157SAPE  H16Y17600   4.732   4.679   8.554  0.3495 -0.8133 -0.4083
  157SAPE  C31717601   4.841   4.798   8.414  0.3990 -0.4001 -0.1666
  157SAPE  H17X17602   4.881   4.901   8.401 -0.9158  0.1653  0.0793
  157SAPE  H17Y17603   4.776   4.790   8.324 -0.9488  0.3408  0.6928
  157SAPE  C31817604   4.945   4.687   8.406 -0.4272  0.4623  0.0251
  157SAPE  H18X17605   4.988   4.682   8.508 -3.1026 -0.1484  1.2032
  157SAPE  H18Y17606   5.023   4.698   8.328 -1.1108 -1.5164 -1.0227
  157SAPE  H18Z17607   4.883   4.595   8.393  1.0634 -0.8899  1.9347
  158SAPE     N17608   4.451   2.699  11.043 -0.4159  0.0948  0.5480
  158SAPE   HN117609   4.362   2.689  10.989  0.9807  0.6396 -1.9845
  158SAPE   HN217610   4.439   2.748  11.133  0.3142  3.2238 -0.9314
  158SAPE   HN317611   4.517   2.757  10.988 -1.4164 -0.6239 -1.5406
  158SAPE   C1217612   4.512   2.566  11.074  0.0435  0.2031  0.1643
  158SAPE  H12A17613   4.435   2.518  11.139 -1.9658  0.5044 -1.8906
  158SAPE  H12B17614   4.600   2.585  11.139  0.7928 -0.2720 -0.6932
  158SAPE   C1117615   4.542   2.474  10.952  0.1292  0.7821 -0.2886
  158SAPE  H11A17616   4.451   2.452  10.892  1.1884 -1.7238 -1.0872
  158SAPE  H11B17617   4.575   2.377  10.994 -1.4146  0.5480  0.4796
  158SAPE     P17618   4.756   2.462  10.812  0.1131  0.2300 -0.0315
  158SAPE   O1317619   4.855   2.548  10.748 -0.2831  0.2508 -0.2691
  158SAPE   O1417620   4.810   2.383  10.926  0.0609  0.2657 -0.4324
  158SAPE   O1217621   4.636   2.540  10.863  0.0366 -0.6328 -0.1771
  158SAPE   O1117622   4.695   2.358  10.715 -0.1937 -0.1876  0.3300
  158SAPE    C117623   4.685   2.217  10.712  0.3456 -0.0337  1.0630
  158SAPE    HA17624   4.788   2.178  10.693 -0.4309 -1.0145 -1.6777
  158SAPE    HB17625   4.659   2.178  10.812  3.3117 -0.7252  1.6732
  158SAPE    C217626   4.585   2.163  10.603  0.7317 -0.3792 -0.2843
  158SAPE    HS17627   4.570   2.054  10.620 -0.9817  0.1904  2.5473
  158SAPE   O2117628   4.617   2.211  10.476  0.4695 -0.0996  0.2891
  158SAPE   C2117629   4.639   2.122  10.376 -0.4830  0.0356  0.0622
  158SAPE   O2217630   4.682   2.010  10.382  0.0865 -0.2489 -0.4223
  158SAPE   C2217631   4.595   2.188  10.246  0.0009 -0.0054  0.0230
  158SAPE   H2R17632   4.497   2.232  10.275  0.6203  1.1570  0.4319
  158SAPE   H2S17633   4.659   2.277  10.228  0.4915  0.0005  1.6306
  158SAPE    C317634   4.444   2.227  10.640  0.7114 -0.0119  0.0876
  158SAPE    HX17635   4.458   2.337  10.638 -2.6244  0.4933 -2.2345
  158SAPE    HY17636   4.415   2.191  10.741  0.7634 -3.1327 -0.9256
  158SAPE   O3117637   4.344   2.182  10.545 -0.0245 -0.1899 -0.2816
  158SAPE   C3117638   4.240   2.253  10.553 -0.3150 -0.1849 -0.1507
  158SAPE   O3217639   4.216   2.351  10.626 -0.6112  0.1257 -0.4894
  158SAPE   C3217640   4.140   2.197  10.447 -0.3156  1.1765 -0.5956
  158SAPE   H2X17641   4.120   2.092  10.474 -0.9433  1.8202  1.6907
  158SAPE   H2Y17642   4.198   2.204  10.352  1.9588  1.7266  0.7417
  158SAPE   C2317643   4.603   2.105  10.119 -0.4486  0.4129  0.1184
  158SAPE   H3R17644   4.708   2.074  10.099 -0.3720  2.0803 -2.5881
  158SAPE   H3S17645   4.584   2.175  10.034  2.3735 -1.5609 -2.3693
  158SAPE   C2417646   4.496   1.990  10.106 -0.1737  0.0930 -0.3443
  158SAPE   H4R17647   4.485   1.933  10.201  0.1913  2.1839  1.0194
  158SAPE   H4S17648   4.527   1.898  10.051 -1.0998 -3.5224  4.4342
  158SAPE   C2517649   4.359   2.033  10.059 -0.0194 -0.0180 -0.0354
  158SAPE   H5R17650   4.294   2.042  10.147  0.8035 -0.2113  0.6080
  158SAPE   C2617651   4.321   2.068   9.930 -0.2349 -0.6014  0.3871
  158SAPE   H6R17652   4.216   2.097   9.917 -0.1678 -0.2217  0.6913
  158SAPE   C2717653   4.408   2.083   9.806 -0.6060  0.3793  0.2860
  158SAPE   H7R17654   4.512   2.109   9.833 -0.8055  0.9475  0.5198
  158SAPE   H7S17655   4.368   2.168   9.747  0.8168  0.1718 -1.0511
  158SAPE   C2817656   4.388   1.959   9.720 -0.4289 -0.5842 -0.5261
  158SAPE   H8R17657   4.458   1.879   9.747 -0.0370 -0.5829 -1.4994
  158SAPE   C2917658   4.309   1.952   9.605  0.1930  0.4306  0.1525
  158SAPE   H9R17659   4.294   1.851   9.564  2.7754  0.4212 -0.9861
  158SAPE  C21017660   4.212   2.055   9.563  0.0753 -0.0356  1.3417
  158SAPE  H10R17661   4.280   2.135   9.525 -0.5219  0.3078  0.9755
  158SAPE  H10S17662   4.166   2.100   9.654 -0.5714 -0.6668  1.3334
  158SAPE  C21117663   4.096   2.013   9.466 -0.0768 -1.2679  0.5485
  158SAPE  H11R17664   4.004   1.987   9.520  0.1921 -1.5706  0.8724
  158SAPE  C21217665   4.095   2.009   9.334 -0.3291  0.0347 -0.9476
  158SAPE  H12R17666   3.996   1.993   9.291 -1.3911  2.3607  0.4303
  158SAPE  C21317667   4.214   2.048   9.247 -0.2372  0.2683  1.1981
  158SAPE  H13R17668   4.280   2.122   9.297  1.2289  1.1477 -1.7960
  158SAPE  H13S17669   4.182   2.094   9.151 -0.1867 -1.9244  0.0706
  158SAPE  C21417670   4.306   1.929   9.230  0.7302  0.2813 -1.2939
  158SAPE  H14R17671   4.323   1.870   9.321  0.8032  0.0001 -1.4897
  158SAPE  C21517672   4.335   1.878   9.106  0.3198  0.0785  0.4637
  158SAPE  H15R17673   4.396   1.787   9.102  1.1325  0.6173  0.1126
  158SAPE  C21617674   4.287   1.934   8.976 -0.0579  0.2026 -0.0612
  158SAPE  H16R17675   4.267   2.043   8.981  2.1055  0.7191 -1.4059
  158SAPE  H16S17676   4.201   1.879   8.933  0.8016  0.5628 -2.3590
  158SAPE  C21717677   4.387   1.914   8.863 -0.2727  1.1371  1.0566
  158SAPE  H17R17678   4.356   1.960   8.766  2.0980  0.2834 -0.2163
  158SAPE  H17S17679   4.402   1.806   8.843 -0.0892  1.6479 -2.2356
  158SAPE  C21817680   4.522   1.972   8.894  0.1211  1.1701  0.5078
  158SAPE  H18R17681   4.570   1.940   8.989 -0.8301  3.1497  1.7360
  158SAPE  H18S17682   4.510   2.082   8.909 -0.5794  1.4077 -1.4640
  158SAPE  C21917683   4.626   1.970   8.782 -1.1539 -0.0066 -0.0300
  158SAPE  H19R17684   4.689   1.881   8.805 -0.7104 -0.4784 -2.7066
  158SAPE  H19S17685   4.696   2.057   8.781 -1.7235  0.4585 -1.2892
  158SAPE  C22017686   4.590   1.981   8.634  0.9419  0.1884  0.3089
  158SAPE  H20R17687   4.525   1.900   8.596  0.6844  1.1519 -1.4217
  158SAPE  H20S17688   4.684   1.959   8.579  1.6106  0.4898  1.2952
  158SAPE  H20T17689   4.561   2.083   8.601  0.6383 -0.2788 -0.8995
  158SAPE   C3317690   4.018   2.294  10.438 -1.1939  0.1943 -0.0612
  158SAPE   H3X17691   4.051   2.396  10.411 -1.2955  0.5301  1.0739
  158SAPE   H3Y17692   3.952   2.295  10.527 -1.2977 -0.7268 -0.1140
  158SAPE   C3417693   3.931   2.248  10.320 -0.1033 -0.5326 -0.2750
  158SAPE   H4X17694   3.844   2.317  10.316  1.1369  1.0560 -0.7226
  158SAPE   H4Y17695   3.895   2.144  10.335  0.4727 -1.0588 -2.1728
  158SAPE   C3517696   4.005   2.258  10.184  0.4552  0.1032  0.0450
  158SAPE   H5X17697   4.080   2.177  10.172 -0.3724 -0.5634 -0.7291
  158SAPE   H5Y17698   4.061   2.354  10.180 -0.0295  0.3581 -1.4079
  158SAPE   C3617699   3.914   2.245  10.063 -0.1212  0.1751 -0.8464
  158SAPE   H6X17700   3.810   2.283  10.075 -0.1686  0.7217 -2.6496
  158SAPE   H6Y17701   3.904   2.136  10.044 -0.9674  0.3309 -1.3833
  158SAPE   C3717702   3.973   2.306   9.932  0.6580 -0.2382 -0.7598
  158SAPE   H7X17703   4.069   2.254   9.913  1.8397  0.7291  2.0640
  158SAPE   H7Y17704   3.986   2.413   9.956  1.6078 -0.9374  2.3412
  158SAPE   C3817705   3.883   2.308   9.810 -0.2736  0.5357 -0.3800
  158SAPE   H8X17706   3.786   2.354   9.836 -0.9067 -1.3239  0.7534
  158SAPE   H8Y17707   3.860   2.203   9.784 -0.0726 -0.0493  1.6543
  158SAPE   C3917708   3.942   2.366   9.681  0.4223  0.1323 -0.4333
  158SAPE   H9X17709   4.034   2.309   9.654 -0.6395 -1.4484 -0.8374
  158SAPE   H9Y17710   3.992   2.462   9.706  2.7760 -1.2147  0.3959
  158SAPE  C31017711   3.850   2.376   9.553  0.2244  0.0362  0.0235
  158SAPE  H10X17712   3.775   2.458   9.555 -0.8210 -0.8936  2.2571
  158SAPE  H10Y17713   3.785   2.286   9.547 -0.4384  0.4626  0.5864
  158SAPE  C31117714   3.937   2.400   9.422 -1.0241 -0.3547 -0.2771
  158SAPE  H11X17715   4.016   2.324   9.406 -0.3775  0.1347  0.5048
  158SAPE  H11Y17716   3.985   2.500   9.423 -2.8256  0.5499 -0.1945
  158SAPE  C31217717   3.842   2.406   9.302 -0.4708 -0.2140 -0.4549
  158SAPE  H12X17718   3.739   2.426   9.339 -0.2073 -1.5301  1.1183
  158SAPE  H12Y17719   3.829   2.308   9.252 -0.6131 -0.8796  0.8419
  158SAPE  C31317720   3.877   2.520   9.206 -0.7255 -0.3606  0.1262
  158SAPE  H13X17721   3.981   2.515   9.165 -0.6705 -0.5795  0.2932
  158SAPE  H13Y17722   3.858   2.618   9.254 -0.7389 -0.2987 -0.0046
  158SAPE  C31417723   3.778   2.529   9.079 -0.3451  0.6078  0.3309
  158SAPE  H14X17724   3.741   2.632   9.063 -1.9109  0.0288  0.1230
  158SAPE  H14Y17725   3.688   2.474   9.113  1.1284 -2.2389 -0.1121
  158SAPE  C31517726   3.847   2.471   8.959 -0.0037  0.0933  0.0015
  158SAPE  H15X17727   3.881   2.370   8.989 -1.9350 -0.1757  1.5136
  158SAPE  H15Y17728   3.927   2.547   8.951  2.0887 -1.8505  1.4399
  158SAPE  C31617729   3.764   2.469   8.830 -0.2865 -0.5421  0.0983
  158SAPE  H16X17730   3.680   2.540   8.839  0.8071  1.2970 -2.6546
  158SAPE  H16Y17731   3.711   2.372   8.814 -1.1461  0.3642 -3.6463
  158SAPE  C31717732   3.851   2.497   8.709  0.4352  0.0422  0.0047
  158SAPE  H17X17733   3.949   2.451   8.735  0.1101 -0.0609  1.1067
  158SAPE  H17Y17734   3.875   2.605   8.713  1.3852 -0.1723  0.6034
  158SAPE  C31817735   3.785   2.457   8.577  0.3058  0.5385 -0.6069
  158SAPE  H18X17736   3.675   2.448   8.587  0.6808 -2.5985  2.8390
  158SAPE  H18Y17737   3.838   2.365   8.546  2.5039  1.6792 -0.4891
  158SAPE  H18Z17738   3.815   2.533   8.502  2.1283 -0.1643 -0.6337
  159SAPE     N17739   3.245   0.968   6.358 -0.1013  0.3579 -0.4232
  159SAPE   HN117740   3.342   0.953   6.326 -0.6663 -1.6778 -1.3050
  159SAPE   HN217741   3.240   1.001   6.457 -1.0001 -0.5258 -0.1566
  159SAPE   HN317742   3.200   0.875   6.367 -1.7143  1.1911  0.7996
  159SAPE   C1217743   3.168   1.056   6.271  0.1017 -1.1289  0.6106
  159SAPE  H12A17744   3.154   1.003   6.174 -0.4210  1.5469 -0.8764
  159SAPE  H12B17745   3.226   1.145   6.238 -2.4269  0.1056 -0.7876
  159SAPE   C1117746   3.035   1.098   6.319  0.8642 -0.6836 -0.8076
  159SAPE  H11A17747   2.973   1.006   6.321 -0.5785  0.2249 -2.0284
  159SAPE  H11B17748   2.994   1.177   6.253  0.2107 -1.0119 -0.7948
  159SAPE     P17749   3.070   1.292   6.483 -0.0165  0.0412 -0.3931
  159SAPE   O1317750   3.199   1.330   6.429 -0.5682  0.3810  0.1047
  159SAPE   O1417751   2.955   1.375   6.454  0.7889 -0.1162 -0.6932
  159SAPE   O1217752   3.036   1.139   6.449 -0.8402 -0.7104 -0.8764
  159SAPE   O1117753   3.090   1.278   6.640  0.0785 -0.0921 -0.1939
  159SAPE    C117754   3.193   1.200   6.700  0.7608  0.0713  0.0005
  159SAPE    HA17755   3.181   1.092   6.676 -0.6559  0.0954  0.5063
  159SAPE    HB17756   3.292   1.224   6.656  1.2730 -1.7303  0.0961
  159SAPE    C217757   3.214   1.227   6.853 -0.4137 -0.1098  0.1125
  159SAPE    HS17758   3.313   1.192   6.890  0.4138  1.1308 -0.8630
  159SAPE   O2117759   3.100   1.169   6.930 -0.1249  0.3767  0.9795
  159SAPE   C2117760   3.101   1.033   6.952 -0.4701  0.1617 -0.1123
  159SAPE   O2217761   3.196   0.969   6.919  0.3698  0.4632 -0.0948
  159SAPE   C2217762   2.974   0.997   7.022 -0.1569 -0.4854  0.0745
  159SAPE   H2R17763   2.959   1.080   7.095  1.8271 -1.1174  1.2812
  159SAPE   H2S17764   2.894   1.000   6.945  1.3029 -0.1323 -1.4700
  159SAPE    C317765   3.211   1.372   6.872  0.2369 -0.2758 -0.3599
  159SAPE    HX17766   3.114   1.414   6.837  0.3681  0.4712  0.1378
  159SAPE    HY17767   3.285   1.416   6.801  0.1760 -1.2840 -1.0694
  159SAPE   O3117768   3.238   1.401   7.013  0.1059  0.2491  0.5452
  159SAPE   C3117769   3.137   1.399   7.097  0.0249 -0.1221 -0.4358
  159SAPE   O3217770   3.019   1.392   7.063 -0.3617 -0.1181  0.2841
  159SAPE   C3217771   3.183   1.403   7.245 -0.2098  0.0901  0.6505
  159SAPE   H2X17772   3.124   1.486   7.290 -0.7209 -1.2803  2.6484
  159SAPE   H2Y17773   3.292   1.423   7.248  0.3071 -2.3324  0.4757
  159SAPE   C2317774   2.992   0.867   7.096 -0.3786 -0.0686  0.1802
  159SAPE   H3R17775   3.072   0.879   7.172  1.2757  3.7106 -1.8966
  159SAPE   H3S17776   3.036   0.788   7.031 -1.1651 -0.2715 -0.1146
  159SAPE   C2417777   2.860   0.803   7.158 -0.0185 -0.0324  0.2839
  159SAPE   H4R17778   2.771   0.799   7.091 -0.2648  0.7493  0.5581
  159SAPE   H4S17779   2.818   0.871   7.235  0.4094  1.2527 -0.5855
  159SAPE   C2517780   2.889   0.667   7.227  0.0004 -0.0804 -0.0930
  159SAPE   H5R17781   2.866   0.579   7.165 -0.3788  0.5974 -0.9295
  159SAPE   C2617782   2.938   0.646   7.350  0.5089 -0.1368  0.8908
  159SAPE   H6R17783   2.942   0.543   7.388 -1.8012 -2.3793 -4.0116
  159SAPE   C2717784   2.982   0.747   7.452  0.2793  0.0286  0.5139
  159SAPE   H7R17785   2.990   0.844   7.399  1.8359  1.4097  3.0647
  159SAPE   H7S17786   3.075   0.704   7.494 -1.2359 -2.5776  1.4246
  159SAPE   C2817787   2.882   0.757   7.567 -0.2289  0.0254 -0.8782
  159SAPE   H8R17788   2.796   0.826   7.563 -0.0043  0.2672 -3.0009
  159SAPE   C2917789   2.881   0.689   7.684 -0.8908 -0.1677 -0.9647
  159SAPE   H9R17790   2.803   0.713   7.758  1.2107  1.5511  0.8440
  159SAPE  C21017791   2.981   0.583   7.728 -0.5770  0.1388  0.5512
  159SAPE  H10R17792   3.075   0.591   7.669 -0.4376 -1.6536  0.4853
  159SAPE  H10S17793   2.931   0.490   7.694  1.3051 -0.3650 -1.0313
  159SAPE  C21117794   3.023   0.589   7.870 -0.0026 -0.0285 -0.1984
  159SAPE  H11R17795   3.129   0.569   7.891 -0.4907 -0.3611  2.3433
  159SAPE  C21217796   2.946   0.603   7.979  0.1563  0.4613 -0.2544
  159SAPE  H12R17797   2.999   0.592   8.074 -2.0013 -2.5142  0.7934
  159SAPE  C21317798   2.799   0.618   7.987  0.5207 -0.2905 -0.1339
  159SAPE  H13R17799   2.736   0.561   7.916  0.7864 -0.8800  0.0979
  159SAPE  H13S17800   2.766   0.722   7.963  1.5723 -0.3870 -2.2445
  159SAPE  C21417801   2.731   0.588   8.123 -0.3535  0.0467 -0.1872
  159SAPE  H14R17802   2.675   0.494   8.134 -1.9067  0.9808  0.2206
  159SAPE  C21517803   2.728   0.679   8.222  0.4552  0.0392 -0.0478
  159SAPE  H15R17804   2.684   0.659   8.320  1.1493 -1.4368 -0.0206
  159SAPE  C21617805   2.788   0.815   8.216  0.5452 -1.1115  0.1020
  159SAPE  H16R17806   2.712   0.891   8.242  1.5660 -0.2267  0.5797
  159SAPE  H16S17807   2.821   0.840   8.112 -0.9597 -3.3377 -1.0010
  159SAPE  C21717808   2.911   0.831   8.311  0.0342  0.3019 -0.9864
  159SAPE  H17R17809   2.970   0.920   8.282  1.8489 -1.2052 -2.1429
  159SAPE  H17S17810   2.978   0.743   8.303  1.4295  0.9472  2.2535
  159SAPE  C21817811   2.876   0.843   8.459  0.0583  0.2467 -0.1595
  159SAPE  H18R17812   2.843   0.743   8.493 -1.6369  1.0005  0.5085
  159SAPE  H18S17813   2.783   0.903   8.467 -0.8187 -0.7578 -2.2508
  159SAPE  C21917814   2.992   0.878   8.551 -0.0246 -0.7609 -0.1643
  159SAPE  H19R17815   3.031   0.978   8.525 -0.7258 -0.5669 -0.4885
  159SAPE  H19S17816   3.070   0.803   8.523  1.2926  0.9863 -1.4113
  159SAPE  C22017817   2.956   0.865   8.693  0.4396  0.0789 -0.1680
  159SAPE  H20R17818   2.985   0.766   8.733  0.6525  1.1316  2.5231
  159SAPE  H20S17819   2.845   0.871   8.699  0.5644  2.0257  2.4871
  159SAPE  H20T17820   3.005   0.945   8.754 -2.3709  0.9569  1.0989
  159SAPE   C3317821   3.157   1.281   7.325  0.3402  0.0310  0.4884
  159SAPE   H3X17822   3.059   1.236   7.297 -0.6289  3.0472 -1.3490
  159SAPE   H3Y17823   3.144   1.317   7.430 -0.5417  1.9670 -0.2389
  159SAPE   C3417824   3.271   1.177   7.319  0.3699 -0.5756 -0.1600
  159SAPE   H4X17825   3.363   1.237   7.337  0.4465 -0.7421  0.0064
  159SAPE   H4Y17826   3.287   1.142   7.215  2.2492  2.3699 -0.9911
  159SAPE   C3517827   3.238   1.067   7.418  0.3141 -0.3282 -0.7684
  159SAPE   H5X17828   3.310   0.984   7.400  2.7279  1.5887 -0.4691
  159SAPE   H5Y17829   3.133   1.033   7.415  0.5867 -1.5490  1.5222
  159SAPE   C3617830   3.265   1.103   7.564 -0.3707 -0.0871 -0.6295
  159SAPE   H6X17831   3.190   1.179   7.593  0.3816  0.7678 -0.8793
  159SAPE   H6Y17832   3.365   1.147   7.581 -1.0644  0.9868  0.8518
  159SAPE   C3717833   3.250   0.984   7.664  0.7113 -0.9044 -0.0202
  159SAPE   H7X17834   3.332   0.913   7.641  3.2763  1.1730  2.0392
  159SAPE   H7Y17835   3.151   0.935   7.657  0.6457 -0.6050 -1.6635
  159SAPE   C3817836   3.282   1.023   7.814  0.7275  0.5304 -0.0289
  159SAPE   H8X17837   3.230   1.117   7.841 -0.9512 -0.5973  0.8900
  159SAPE   H8Y17838   3.391   1.044   7.811  0.4016  2.3099 -0.5568
  159SAPE   C3917839   3.242   0.915   7.920 -0.4138  0.0983  0.0663
  159SAPE   H9X17840   3.304   0.825   7.906  1.0378  0.9863  0.5616
  159SAPE   H9Y17841   3.138   0.896   7.886 -0.1947  0.4312 -0.8060
  159SAPE  C31017842   3.241   0.968   8.061  0.6185  0.1337 -0.7740
  159SAPE  H10X17843   3.187   0.896   8.125  1.5168 -0.3436 -0.5270
  159SAPE  H10Y17844   3.181   1.060   8.079 -0.8062 -1.5054  4.7446
  159SAPE  C31117845   3.387   0.989   8.103 -0.0587  0.0486  0.4687
  159SAPE  H11X17846   3.438   1.046   8.023 -0.9277 -0.9996 -0.8821
  159SAPE  H11Y17847   3.428   0.886   8.105 -0.2044 -0.0467 -0.6693
  159SAPE  C31217848   3.404   1.073   8.230 -0.2981 -0.1352 -0.2920
  159SAPE  H12X17849   3.352   1.171   8.217  1.4825  0.8334 -0.4107
  159SAPE  H12Y17850   3.514   1.086   8.241 -0.4473  0.4651  0.6333
  159SAPE  C31317851   3.345   1.006   8.355  0.2146 -0.8761 -0.8293
  159SAPE  H13X17852   3.377   0.900   8.357 -0.0177 -0.9563 -1.1988
  159SAPE  H13Y17853   3.234   1.013   8.357  0.2148  2.3354 -3.4178
  159SAPE  C31417854   3.388   1.077   8.478  0.2095 -0.0150 -0.3139
  159SAPE  H14X17855   3.368   1.185   8.463  0.2709  0.0706  0.1948
  159SAPE  H14Y17856   3.494   1.063   8.511 -0.9323 -0.7082  3.5981
  159SAPE  C31517857   3.323   1.033   8.609  0.7250 -0.0646 -0.0803
  159SAPE  H15X17858   3.345   0.926   8.628 -2.5339 -0.6178  1.4483
  159SAPE  H15Y17859   3.212   1.030   8.602  0.6658 -0.6828  0.9231
  159SAPE  C31617860   3.342   1.124   8.736 -0.2136 -0.2377  0.6261
  159SAPE  H16X17861   3.293   1.220   8.709 -1.7574 -1.5540 -1.5649
  159SAPE  H16Y17862   3.452   1.137   8.746 -0.0761 -1.6421  1.1926
  159SAPE  C31717863   3.273   1.069   8.861  0.4449 -0.0172  0.0139
  159SAPE  H17X17864   3.298   0.960   8.862 -0.2377 -0.1897 -0.4986
  159SAPE  H17Y17865   3.165   1.088   8.842  0.1254 -0.6453  1.1353
  159SAPE  C31817866   3.319   1.134   8.987 -0.0972 -0.2739  0.3124
  159SAPE  H18X17867   3.289   1.079   9.078 -2.2433 -0.0402 -0.1985
  159SAPE  H18Y17868   3.279   1.237   8.996  0.5176 -0.0292  0.3341
  159SAPE  H18Z17869   3.428   1.153   8.997 -0.4180  1.9935  0.1845
  160SAPE     N17870   1.774   3.897   6.406 -0.0783 -0.2615 -0.0712
  160SAPE   HN117871   1.747   3.817   6.345 -0.3057 -2.3852  2.5786
  160SAPE   HN217872   1.829   3.872   6.492 -0.5329  1.1358  0.6434
  160SAPE   HN317873   1.678   3.916   6.441 -1.3421 -3.0048 -1.7253
  160SAPE   C1217874   1.836   4.014   6.338  0.2258  0.2275 -0.6765
  160SAPE  H12A17875   1.765   4.045   6.259 -0.6827  3.7414  1.3057
  160SAPE  H12B17876   1.921   3.970   6.281  0.5024  0.2668 -0.2999
  160SAPE   C1117877   1.881   4.128   6.436  0.0310  0.4510 -0.8633
  160SAPE  H11A17878   1.793   4.168   6.491 -0.9722 -0.6546 -1.6051
  160SAPE  H11B17879   1.909   4.205   6.361 -0.8935  0.9584 -0.7005
  160SAPE     P17880   2.120   4.180   6.545 -0.2472  0.0195 -0.3471
  160SAPE   O1317881   2.170   4.240   6.416  0.0731  0.6982  0.7718
  160SAPE   O1417882   2.079   4.282   6.645  0.4088  0.3108 -0.5081
  160SAPE   O1217883   1.993   4.092   6.516  0.2819 -0.0231  0.5078
  160SAPE   O1117884   2.219   4.082   6.597  0.0270 -0.2709 -0.0378
  160SAPE    C117885   2.167   3.985   6.694 -0.1118  0.1691  0.4865
  160SAPE    HA17886   2.071   4.015   6.740 -0.9600 -0.4146 -0.8324
  160SAPE    HB17887   2.137   3.888   6.648 -0.6967  1.2992 -1.6196
  160SAPE    C217888   2.274   3.958   6.802  0.4540 -0.2979  0.3196
  160SAPE    HS17889   2.226   3.894   6.879 -0.1745  1.3200  1.3094
  160SAPE   O2117890   2.319   4.081   6.857 -0.1592 -0.3920 -0.1280
  160SAPE   C2117891   2.233   4.145   6.924  0.0386 -0.7932  0.8131
  160SAPE   O2217892   2.119   4.107   6.950  0.3058  0.3525 -0.2679
  160SAPE   C2217893   2.300   4.277   6.977 -0.4155  0.0355  0.0063
  160SAPE   H2R17894   2.409   4.279   6.954 -0.0990  0.1222  1.4149
  160SAPE   H2S17895   2.260   4.356   6.910  1.1671  0.5839 -0.3383
  160SAPE    C317896   2.392   3.881   6.742 -0.8345 -0.2250  0.2429
  160SAPE    HX17897   2.446   3.959   6.684 -2.9138 -0.2418 -1.8596
  160SAPE    HY17898   2.347   3.805   6.674 -0.8253 -1.4492  1.5792
  160SAPE   O3117899   2.488   3.834   6.833  0.4558 -0.0257 -0.5609
  160SAPE   C3117900   2.461   3.713   6.874  0.2936  0.6455  0.6726
  160SAPE   O3217901   2.359   3.650   6.844 -0.7428 -0.2947 -0.2812
  160SAPE   C3217902   2.573   3.663   6.961  0.0773 -0.6444  0.6119
  160SAPE   H2X17903   2.668   3.680   6.905 -0.0875  0.1309  0.5551
  160SAPE   H2Y17904   2.556   3.554   6.973 -0.5289 -0.3774  2.3719
  160SAPE   C2317905   2.260   4.298   7.130 -0.3170  0.0741 -0.6248
  160SAPE   H3R17906   2.151   4.275   7.129 -0.5922  1.2903 -0.0972
  160SAPE   H3S17907   2.271   4.404   7.161  1.8033 -0.3739  0.3409
  160SAPE   C2417908   2.325   4.202   7.226 -0.8363  0.1567  0.1370
  160SAPE   H4R17909   2.291   4.100   7.200  2.1417 -0.6734 -0.9280
  160SAPE   H4S17910   2.290   4.217   7.330  1.3380 -0.1835  0.9821
  160SAPE   C2517911   2.479   4.206   7.236 -0.5903 -0.4998  0.1624
  160SAPE   H5R17912   2.540   4.197   7.146  0.9937  1.0645  1.0157
  160SAPE   C2617913   2.546   4.223   7.348  0.0939  0.2479  0.0964
  160SAPE   H6R17914   2.655   4.228   7.333  0.3901  1.3028  2.2835
  160SAPE   C2717915   2.500   4.236   7.488  0.0651  0.3009 -0.0032
  160SAPE   H7R17916   2.393   4.264   7.494 -0.2149 -0.6245 -0.4513
  160SAPE   H7S17917   2.557   4.312   7.546  1.5481  0.1603 -1.1962
  160SAPE   C2817918   2.525   4.114   7.571  0.7075  0.7784  0.4193
  160SAPE   H8R17919   2.570   4.028   7.518 -1.3877  1.0780 -2.0198
  160SAPE   C2917920   2.491   4.105   7.699  0.0328  0.3472 -0.7393
  160SAPE   H9R17921   2.515   4.017   7.761 -0.5856  0.1698 -0.7516
  160SAPE  C21017922   2.424   4.206   7.784 -1.1669 -0.2309  0.9121
  160SAPE  H10R17923   2.389   4.292   7.724  0.2811 -0.5940 -0.5326
  160SAPE  H10S17924   2.505   4.245   7.849  1.3283  0.5525 -2.4463
  160SAPE  C21117925   2.301   4.152   7.845 -0.0786  0.4192  0.0302
  160SAPE  H11R17926   2.213   4.150   7.779 -0.4981 -2.1337  0.5708
  160SAPE  C21217927   2.297   4.092   7.967  0.4279  0.5763  0.0731
  160SAPE  H12R17928   2.198   4.057   7.999  0.9181 -0.3032  0.6482
  160SAPE  C21317929   2.390   4.088   8.079 -0.4259 -0.4201 -0.5999
  160SAPE  H13R17930   2.348   4.157   8.155 -1.1999 -0.6723 -0.7898
  160SAPE  H13S17931   2.486   4.139   8.055 -0.5074 -0.4750 -1.0415
  160SAPE  C21417932   2.403   3.953   8.143 -0.2374 -0.1881  0.3296
  160SAPE  H14R17933   2.466   3.888   8.080 -1.4157 -0.2328 -0.8441
  160SAPE  C21517934   2.318   3.898   8.232  0.2582  0.2121  0.1089
  160SAPE  H15R17935   2.329   3.794   8.268 -1.7252  0.6588  2.2399
  160SAPE  C21617936   2.192   3.968   8.289  0.0788 -0.9633 -0.0687
  160SAPE  H16R17937   2.104   3.900   8.284  0.6553 -1.6667 -1.0393
  160SAPE  H16S17938   2.163   4.052   8.222  0.4774  0.0116  0.9451
  160SAPE  C21717939   2.220   4.025   8.427 -0.4366  0.5940 -0.1582
  160SAPE  H17R17940   2.305   4.096   8.429  0.5420 -0.1816  5.9118
  160SAPE  H17S17941   2.265   3.942   8.487 -3.6731  0.5643  2.5438
  160SAPE  C21817942   2.109   4.072   8.510 -0.0403  0.2531 -0.0502
  160SAPE  H18R17943   2.140   4.129   8.601 -0.4068  3.4067 -1.7510
  160SAPE  H18S17944   2.048   3.988   8.549 -0.0989  0.4378  0.2643
  160SAPE  C21917945   2.016   4.166   8.426  0.2600 -1.0206 -0.1150
  160SAPE  H19R17946   1.987   4.099   8.343  0.8651 -0.2651 -0.9452
  160SAPE  H19S17947   2.085   4.246   8.391  1.8474 -1.7441  1.1976
  160SAPE  C22017948   1.894   4.228   8.496 -0.6595 -0.3647  0.0592
  160SAPE  H20R17949   1.862   4.164   8.581  0.4899 -0.6945  0.2691
  160SAPE  H20S17950   1.815   4.240   8.419  0.9787 -0.0558 -1.6685
  160SAPE  H20T17951   1.934   4.327   8.527  1.2362 -1.5561  1.6307
  160SAPE   C3317952   2.588   3.725   7.097 -0.2733 -0.1005  0.2924
  160SAPE   H3X17953   2.569   3.834   7.088 -3.3318 -0.7214 -3.1427
  160SAPE   H3Y17954   2.689   3.702   7.137 -0.0077 -3.3885 -1.8157
  160SAPE   C3417955   2.499   3.660   7.204 -0.2754 -0.3667 -0.0071
  160SAPE   H4X17956   2.522   3.552   7.219  1.0927  0.0843  1.4531
  160SAPE   H4Y17957   2.393   3.680   7.180 -0.7430 -0.3061  1.9840
  160SAPE   C3517958   2.533   3.711   7.346  0.3466  0.5242 -0.5940
  160SAPE   H5X17959   2.508   3.818   7.360 -3.2852 -0.0859 -1.3935
  160SAPE   H5Y17960   2.643   3.702   7.361  0.1748 -1.5345 -0.2691
  160SAPE   C3617961   2.471   3.631   7.458 -0.2199 -0.0630  0.4469
  160SAPE   H6X17962   2.463   3.523   7.433  2.7497 -0.2371 -0.1384
  160SAPE   H6Y17963   2.364   3.662   7.462  0.0365  1.3661 -1.7500
  160SAPE   C3717964   2.546   3.642   7.594  0.2193 -0.6026 -0.1704
  160SAPE   H7X17965   2.566   3.748   7.622 -0.4300 -0.2092 -1.1347
  160SAPE   H7Y17966   2.649   3.600   7.589  0.2988 -0.6719  1.5261
  160SAPE   C3817967   2.481   3.554   7.700  0.3893  0.3412 -0.4915
  160SAPE   H8X17968   2.503   3.448   7.678  0.2779  0.1083  0.4611
  160SAPE   H8Y17969   2.370   3.563   7.695  0.3670  1.7059  1.2967
  160SAPE   C3917970   2.539   3.580   7.842 -0.3250 -0.0322  0.3803
  160SAPE   H9X17971   2.511   3.688   7.852 -0.3894 -0.0491  0.3849
  160SAPE   H9Y17972   2.649   3.572   7.847  0.0614  1.2972 -3.0981
  160SAPE  C31017973   2.464   3.511   7.958  0.4990 -0.3804 -0.3302
  160SAPE  H10X17974   2.479   3.401   7.958 -1.7795 -0.7396 -0.0434
  160SAPE  H10Y17975   2.356   3.532   7.944  0.1618 -0.4552  1.7301
  160SAPE  C31117976   2.514   3.553   8.100 -0.2009  0.2648  0.0271
  160SAPE  H11X17977   2.532   3.663   8.107  0.2237  0.1211  1.8282
  160SAPE  H11Y17978   2.611   3.505   8.125 -0.3685  0.3496  0.8910
  160SAPE  C31217979   2.421   3.499   8.206 -0.0425  0.5774 -0.3210
  160SAPE  H12X17980   2.417   3.388   8.201 -0.4234  0.6259 -4.8346
  160SAPE  H12Y17981   2.318   3.527   8.176  1.2748  2.4022 -3.6289
  160SAPE  C31317982   2.465   3.561   8.344  0.0031 -0.1426 -0.3568
  160SAPE  H13X17983   2.480   3.670   8.324 -0.0304  0.0885  0.7799
  160SAPE  H13Y17984   2.558   3.519   8.387  1.8595  3.7919 -0.0936
  160SAPE  C31417985   2.348   3.566   8.448 -0.2018  0.4816  0.6464
  160SAPE  H14X17986   2.258   3.608   8.398 -0.9142  0.7340  2.0826
  160SAPE  H14Y17987   2.368   3.636   8.533 -1.6256  1.8600 -0.1057
  160SAPE  C31517988   2.319   3.421   8.494 -0.5874 -0.1637 -0.6122
  160SAPE  H15X17989   2.296   3.361   8.404 -2.8716  1.2077 -1.0243
  160SAPE  H15Y17990   2.223   3.407   8.549  0.0139 -0.3874  0.3988
  160SAPE  C31617991   2.424   3.358   8.590  0.1541  0.4237 -0.0375
  160SAPE  H16X17992   2.409   3.412   8.687 -1.1000  0.8583 -0.4515
  160SAPE  H16Y17993   2.526   3.370   8.549 -0.0969 -1.6123 -1.3901
  160SAPE  C31717994   2.390   3.208   8.593 -0.5133 -0.9496 -0.0580
  160SAPE  H17X17995   2.373   3.185   8.486  2.1547 -0.4208 -0.6683
  160SAPE  H17Y17996   2.298   3.198   8.655 -0.2616  1.7064  0.8999
  160SAPE  C31817997   2.496   3.122   8.644  0.0939  0.5275  0.4861
  160SAPE  H18X17998   2.579   3.099   8.573 -0.4480  1.4510 -0.4648
  160SAPE  H18Y17999   2.447   3.023   8.654 -1.4009  0.5702 -4.1942
  160SAPE  H18Z18000   2.533   3.141   8.747  0.8134 -0.7664  0.4935
  161SAPE     N18001   3.647   0.011   6.540  0.1421  0.0425 -0.3455
  161SAPE   HN118002   3.687   0.107   6.543  0.9080 -0.2821  1.2115
  161SAPE   HN218003   3.653  -0.028   6.444 -1.1971 -2.7842  0.6028
  161SAPE   HN318004   3.547   0.024   6.564 -0.3402 -1.9052 -1.1364
  161SAPE   C1218005   3.717  -0.075   6.639  0.3382  0.2311 -0.3022
  161SAPE  H12A18006   3.696  -0.036   6.741  1.5870  1.5781 -0.5308
  161SAPE  H12B18007   3.826  -0.061   6.624  0.9080  1.7378  3.9192
  161SAPE   C1118008   3.684  -0.223   6.628  0.8885 -0.3932  0.2923
  161SAPE  H11A18009   3.582  -0.239   6.667  0.5185  2.3212  0.6409
  161SAPE  H11B18010   3.742  -0.281   6.704 -3.5433 -1.8498  2.9635
  161SAPE     P18011   3.837  -0.335   6.444  0.0318 -0.0882  0.1873
  161SAPE   O1318012   3.818  -0.422   6.327 -0.0749 -0.1415  0.3614
  161SAPE   O1418013   3.934  -0.226   6.422 -0.0560 -0.3884  0.2270
  161SAPE   O1218014   3.702  -0.271   6.492 -0.2772  1.0881  0.0100
  161SAPE   O1118015   3.876  -0.420   6.567  0.2350  0.1387  0.5851
  161SAPE    C118016   3.806  -0.548   6.578 -0.5322 -0.6924 -0.1051
  161SAPE    HA18017   3.697  -0.528   6.584 -0.2315  0.7020  1.7279
  161SAPE    HB18018   3.818  -0.613   6.489 -1.0177 -0.6491 -0.2062
  161SAPE    C218019   3.846  -0.621   6.711  0.9580  0.3221  0.0293
  161SAPE    HS18020   3.772  -0.703   6.724  1.0867  0.0088 -1.1506
  161SAPE   O2118021   3.838  -0.532   6.825 -0.1013  0.2520  0.1195
  161SAPE   C2118022   3.716  -0.516   6.883 -0.6879 -0.9905 -0.0967
  161SAPE   O2218023   3.614  -0.551   6.831 -0.2479 -0.6920  0.2624
  161SAPE   C2218024   3.731  -0.446   7.018  0.5937  0.4816  0.0391
  161SAPE   H2R18025   3.784  -0.351   6.993  1.0895 -0.3087 -2.1673
  161SAPE   H2S18026   3.629  -0.414   7.046  1.1908  1.9342  0.6858
  161SAPE    C318027   3.985  -0.692   6.710 -0.2293 -0.4063  0.3761
  161SAPE    HX18028   4.059  -0.612   6.691 -2.2455  1.5205  0.2374
  161SAPE    HY18029   3.966  -0.753   6.619 -1.9956  0.5928  0.0190
  161SAPE   O3118030   4.005  -0.770   6.830 -0.2712  0.0964  0.4982
  161SAPE   C3118031   4.122  -0.753   6.895 -0.3858 -0.1020 -0.3143
  161SAPE   O3218032   4.212  -0.693   6.850  0.3807  0.1680  0.5189
  161SAPE   C3218033   4.121  -0.834   7.019  0.7378  0.3794 -0.0950
  161SAPE   H2X18034   4.124  -0.939   6.985  3.1740  0.0366  0.9560
  161SAPE   H2Y18035   4.025  -0.814   7.072  0.5122  2.4093 -1.1851
  161SAPE   C2318036   3.777  -0.540   7.120 -0.3118  0.8095 -0.7599
  161SAPE   H3R18037   3.743  -0.644   7.100  1.8682  0.2738 -2.1000
  161SAPE   H3S18038   3.741  -0.516   7.222 -2.3133 -1.3348 -0.8835
  161SAPE   C2418039   3.929  -0.542   7.125  0.4185  0.7147 -0.2549
  161SAPE   H4R18040   3.976  -0.571   7.028  0.9056  0.1098  0.1538
  161SAPE   H4S18041   3.955  -0.619   7.200 -1.5760  0.2892  0.0519
  161SAPE   C2518042   3.988  -0.406   7.158  0.6105  0.6720 -0.1382
  161SAPE   H5R18043   4.004  -0.331   7.079  0.7984  2.8158  1.8159
  161SAPE   C2618044   4.031  -0.370   7.277 -0.1993  0.0401 -0.2900
  161SAPE   H6R18045   4.073  -0.268   7.284  1.3821 -0.6011 -0.1482
  161SAPE   C2718046   4.030  -0.453   7.406  0.3929 -0.5297  0.4457
  161SAPE   H7R18047   4.099  -0.539   7.392  2.5614  1.0533  0.7666
  161SAPE   H7S18048   3.928  -0.493   7.426 -0.3918 -0.0190 -2.1879
  161SAPE   C2818049   4.083  -0.378   7.526  0.0103 -0.9684 -0.6822
  161SAPE   H8R18050   4.177  -0.322   7.513  0.2103 -1.3625 -0.9388
  161SAPE   C2918051   4.021  -0.375   7.646 -0.7501 -0.0646 -0.0244
  161SAPE   H9R18052   4.060  -0.326   7.737 -4.1172 -0.0814  1.5934
  161SAPE  C21018053   3.883  -0.445   7.670 -0.2844  0.3916 -0.0072
  161SAPE  H10R18054   3.908  -0.553   7.676  1.1488  0.7239  0.3057
  161SAPE  H10S18055   3.817  -0.431   7.581 -0.2876  1.3293  0.1321
  161SAPE  C21118056   3.806  -0.401   7.787  0.7396  0.1117 -0.2275
  161SAPE  H11R18057   3.709  -0.365   7.749 -0.4933 -0.7464  1.9343
  161SAPE  C21218058   3.834  -0.398   7.920 -0.2181  0.1595  0.0776
  161SAPE  H12R18059   3.761  -0.347   7.984 -1.8597 -1.9243 -0.0134
  161SAPE  C21318060   3.965  -0.425   7.982 -0.2612 -0.9415 -0.1738
  161SAPE  H13R18061   4.005  -0.329   8.020 -3.8880  1.0825 -0.9433
  161SAPE  H13S18062   4.033  -0.468   7.905  0.3829 -0.9919  0.4120
  161SAPE  C21418063   3.957  -0.523   8.094 -0.0716  0.2040 -0.0761
  161SAPE  H14R18064   3.867  -0.587   8.093 -0.2460  0.4452  0.1717
  161SAPE  C21518065   4.050  -0.538   8.198 -0.8099 -0.7404 -0.1536
  161SAPE  H15R18066   4.032  -0.592   8.291 -2.0227  1.9319  1.2855
  161SAPE  C21618067   4.173  -0.457   8.208 -0.1104 -0.2588  0.0832
  161SAPE  H16R18068   4.151  -0.360   8.159 -0.3824 -1.5720 -2.5508
  161SAPE  H16S18069   4.253  -0.511   8.153 -1.6995 -2.2340 -0.4008
  161SAPE  C21718070   4.224  -0.424   8.353  0.5639 -0.3405  0.4377
  161SAPE  H17R18071   4.145  -0.393   8.425 -0.1741 -2.8534  0.7950
  161SAPE  H17S18072   4.300  -0.343   8.359  0.2127 -0.0633  1.3076
  161SAPE  C21818073   4.285  -0.549   8.421  0.7316  0.0451 -0.3488
  161SAPE  H18R18074   4.377  -0.577   8.365  0.7105  0.7669 -0.7567
  161SAPE  H18S18075   4.219  -0.636   8.398 -1.1177  1.5637 -1.0970
  161SAPE  C21918076   4.290  -0.536   8.576  0.5532 -0.0514  0.3697
  161SAPE  H19R18077   4.183  -0.523   8.606  0.0387 -0.1106 -1.3565
  161SAPE  H19S18078   4.355  -0.450   8.603  0.7076  0.2465 -0.8882
  161SAPE  C22018079   4.342  -0.663   8.644 -0.9552  0.2410  0.0633
  161SAPE  H20R18080   4.295  -0.756   8.605 -0.8953 -0.0792  0.7251
  161SAPE  H20S18081   4.353  -0.657   8.755  0.8214  1.0779 -0.1366
  161SAPE  H20T18082   4.447  -0.676   8.611 -1.1357  0.7871 -0.7506
  161SAPE   C3318083   4.227  -0.806   7.126  0.5843  0.6122  0.5221
  161SAPE   H3X18084   4.203  -0.700   7.146  0.1148  1.1829 -2.6245
  161SAPE   H3Y18085   4.328  -0.831   7.086 -0.3567  0.6176 -2.0157
  161SAPE   C3418086   4.205  -0.889   7.253 -0.6386 -0.3303 -0.9743
  161SAPE   H4X18087   4.252  -0.989   7.237 -0.3120 -0.5088  0.8823
  161SAPE   H4Y18088   4.097  -0.911   7.265 -0.4252 -0.7783  0.3560
  161SAPE   C3518089   4.271  -0.807   7.367  0.3307  0.0905  0.9266
  161SAPE   H5X18090   4.233  -0.703   7.368 -1.7327 -0.5955 -0.5291
  161SAPE   H5Y18091   4.381  -0.808   7.349  0.3621 -3.8973  0.4355
  161SAPE   C3618092   4.250  -0.878   7.503 -0.0674 -0.4147  0.1630
  161SAPE   H6X18093   4.341  -0.941   7.511 -0.9958 -2.1045 -1.5931
  161SAPE   H6Y18094   4.160  -0.943   7.491 -0.6456  0.3605  0.2008
  161SAPE   C3718095   4.225  -0.792   7.618 -0.2607 -0.2401 -0.5850
  161SAPE   H7X18096   4.126  -0.742   7.613  0.2703  1.1898  1.7709
  161SAPE   H7Y18097   4.300  -0.710   7.623  0.6474 -1.1107  0.9707
  161SAPE   C3818098   4.239  -0.874   7.743  0.6028 -0.2435  0.3012
  161SAPE   H8X18099   4.339  -0.922   7.742  0.6572 -0.1372 -1.0931
  161SAPE   H8Y18100   4.162  -0.954   7.749 -0.6870  0.9602  0.3394
  161SAPE   C3918101   4.219  -0.791   7.873  0.0863 -0.2364 -0.4044
  161SAPE   H9X18102   4.153  -0.705   7.849  0.5083  1.1492  2.8538
  161SAPE   H9Y18103   4.315  -0.747   7.909 -1.5674  1.8925  1.7473
  161SAPE  C31018104   4.167  -0.859   7.994  0.2476  0.2279 -0.2524
  161SAPE  H10X18105   4.079  -0.925   7.979 -0.0231  0.4556  0.3176
  161SAPE  H10Y18106   4.133  -0.785   8.069 -2.2700  2.6891 -3.4671
  161SAPE  C31118107   4.280  -0.954   8.049  0.5348 -0.3993  0.0392
  161SAPE  H11X18108   4.368  -0.888   8.058  0.2460  0.7005 -3.6327
  161SAPE  H11Y18109   4.282  -1.041   7.981 -2.1998 -1.5985  1.3274
  161SAPE  C31218110   4.239  -0.996   8.193 -0.0030  0.3695  0.2038
  161SAPE  H12X18111   4.169  -1.082   8.198 -0.4028  0.7049  0.4932
  161SAPE  H12Y18112   4.171  -0.918   8.232  0.2609  0.8507 -0.2885
  161SAPE  C31318113   4.363  -1.001   8.288  0.3341 -0.2219  0.3845
  161SAPE  H13X18114   4.407  -0.899   8.300  0.9890 -0.2819 -1.1659
  161SAPE  H13Y18115   4.450  -1.052   8.240  0.8555  2.3788 -1.6889
  161SAPE  C31418116   4.335  -1.061   8.423 -0.0170 -0.3918 -0.2428
  161SAPE  H14X18117   4.242  -1.017   8.465 -0.1608  0.5887 -1.5347
  161SAPE  H14Y18118   4.416  -1.030   8.492  0.8893 -0.6608 -1.1622
  161SAPE  C31518119   4.348  -1.217   8.436  0.0671 -0.3273  0.1327
  161SAPE  H15X18120   4.445  -1.249   8.478  1.0586  0.6314 -1.3543
  161SAPE  H15Y18121   4.348  -1.270   8.339 -0.2696 -1.1549  0.5678
  161SAPE  C31618122   4.230  -1.282   8.515  0.2084  0.0016 -0.7625
  161SAPE  H16X18123   4.229  -1.392   8.495 -1.1559  0.1307 -1.5765
  161SAPE  H16Y18124   4.137  -1.242   8.468  0.8587  0.4588 -1.6912
  161SAPE  C31718125   4.233  -1.246   8.669 -0.4855  0.4919  1.2140
  161SAPE  H17X18126   4.228  -1.136   8.678  0.7193  1.4455 -4.9702
  161SAPE  H17Y18127   4.328  -1.280   8.715 -0.3037 -0.3277  0.2806
  161SAPE  C31818128   4.117  -1.318   8.741  0.9336  0.1006  0.0685
  161SAPE  H18X18129   4.023  -1.303   8.683  0.1237 -1.3320  0.9681
  161SAPE  H18Y18130   4.110  -1.278   8.845  1.9227  2.5894 -0.7372
  161SAPE  H18Z18131   4.128  -1.427   8.754 -1.1536 -0.1519 -0.0417
  162SAPE     N18132   2.071   3.271   5.905 -0.0024 -0.5379  0.5852
  162SAPE   HN118133   2.107   3.323   5.988  1.6110 -3.0267  1.5579
  162SAPE   HN218134   2.137   3.286   5.826 -0.2060 -0.6034  0.4028
  162SAPE   HN318135   1.975   3.299   5.878  0.4941 -1.8813 -3.1096
  162SAPE   C1218136   2.080   3.123   5.943  0.2859  0.3038 -0.5425
  162SAPE  H12A18137   2.039   3.054   5.867 -0.5443 -2.2123  2.0236
  162SAPE  H12B18138   2.017   3.111   6.034  0.4540  0.5919 -0.3867
  162SAPE   C1118139   2.225   3.078   5.978 -0.7840 -0.4053 -0.2520
  162SAPE  H11A18140   2.304   3.106   5.905 -1.1485 -1.8529 -1.2627
  162SAPE  H11B18141   2.221   2.967   5.975  0.0258 -0.4576  0.2324
  162SAPE     P18142   2.252   3.053   6.236 -0.3884  0.1076 -0.2854
  162SAPE   O1318143   2.110   3.016   6.263 -0.0462 -0.0178 -0.2764
  162SAPE   O1418144   2.339   2.935   6.226  0.4265 -0.0399  0.3436
  162SAPE   O1218145   2.259   3.145   6.105 -0.0466 -0.0942  0.0471
  162SAPE   O1118146   2.301   3.147   6.356 -0.3331 -0.4174  0.3229
  162SAPE    C118147   2.265   3.286   6.363 -0.1240  0.4916 -0.0628
  162SAPE    HA18148   2.350   3.350   6.332 -1.8899  1.9858 -2.1018
  162SAPE    HB18149   2.180   3.312   6.297 -1.6914 -0.2465  1.5644
  162SAPE    C218150   2.210   3.321   6.502  0.0748  0.1243 -0.2575
  162SAPE    HS18151   2.189   3.430   6.500  1.9613  0.6923  2.9416
  162SAPE   O2118152   2.292   3.282   6.613 -0.2988  0.7557  0.1985
  162SAPE   C2118153   2.405   3.351   6.618 -0.7983 -0.5540 -0.2026
  162SAPE   O2218154   2.445   3.435   6.540  0.1678  0.2083 -0.4431
  162SAPE   C2218155   2.470   3.311   6.755  0.2357  0.0475  0.2190
  162SAPE   H2R18156   2.421   3.359   6.842  2.1911  0.0077  1.4293
  162SAPE   H2S18157   2.462   3.200   6.768 -0.5465  0.1043  0.2396
  162SAPE    C318158   2.070   3.250   6.523  0.0344  0.0884  0.0482
  162SAPE    HX18159   2.083   3.143   6.498  1.2362  0.5215 -1.3228
  162SAPE    HY18160   2.001   3.293   6.446  0.9953 -0.1270 -0.9549
  162SAPE   O3118161   2.013   3.276   6.655  0.0821 -0.2832  0.0513
  162SAPE   C3118162   1.921   3.380   6.673  0.5564  0.1889  0.6219
  162SAPE   O3218163   1.871   3.451   6.584  0.0992 -0.0724 -0.0979
  162SAPE   C3218164   1.880   3.386   6.820 -0.0113  0.5403  0.0412
  162SAPE   H2X18165   1.848   3.284   6.851  2.0361 -0.2409 -0.2729
  162SAPE   H2Y18166   1.790   3.451   6.823 -2.2555 -2.3466 -0.2935
  162SAPE   C2318167   2.622   3.350   6.752  0.9236 -0.0479  0.2557
  162SAPE   H3R18168   2.620   3.461   6.750 -2.0067  0.0173  1.0328
  162SAPE   H3S18169   2.669   3.313   6.659  1.6687  1.0931  0.1630
  162SAPE   C2418170   2.699   3.286   6.878 -0.0090 -0.8364  0.5685
  162SAPE   H4R18171   2.673   3.345   6.969  1.7541  3.8344 -1.6212
  162SAPE   H4S18172   2.806   3.309   6.858 -0.4824  0.5826 -0.5358
  162SAPE   C2518173   2.687   3.136   6.903 -0.8467  0.2973 -0.5037
  162SAPE   H5R18174   2.662   3.073   6.816  1.2935 -0.9018 -0.3143
  162SAPE   C2618175   2.700   3.076   7.027 -0.9177 -0.3223 -0.1975
  162SAPE   H6R18176   2.679   2.968   7.028  3.7203 -1.4319  0.5819
  162SAPE   C2718177   2.715   3.151   7.159  0.1254  0.1170 -0.2477
  162SAPE   H7R18178   2.635   3.125   7.231 -0.4509 -0.4072 -1.0639
  162SAPE   H7S18179   2.711   3.262   7.151  1.3138  0.0705 -2.2116
  162SAPE   C2818180   2.830   3.121   7.247 -0.9918 -0.0306  0.6456
  162SAPE   H8R18181   2.883   3.027   7.225 -0.3167  0.3402  0.6343
  162SAPE   C2918182   2.900   3.203   7.334  0.2932  0.4492 -0.3082
  162SAPE   H9R18183   2.985   3.158   7.388 -1.4373 -3.1231 -0.2758
  162SAPE  C21018184   2.849   3.342   7.362 -0.3069 -0.0872  0.3562
  162SAPE  H10R18185   2.744   3.330   7.396 -0.5911 -0.2844 -0.5553
  162SAPE  H10S18186   2.843   3.388   7.260 -1.9624 -1.6988 -0.3199
  162SAPE  C21118187   2.922   3.437   7.452 -0.2024  0.9711 -0.5197
  162SAPE  H11R18188   2.957   3.535   7.417 -1.1198  1.1947 -0.8465
  162SAPE  C21218189   2.937   3.408   7.585 -0.8205  0.3887  0.3139
  162SAPE  H12R18190   3.002   3.469   7.650  1.8031 -0.2490 -1.5213
  162SAPE  C21318191   2.890   3.295   7.673 -0.1116  0.1998 -0.0295
  162SAPE  H13R18192   2.854   3.206   7.617 -0.0060  0.9536 -1.3550
  162SAPE  H13S18193   2.805   3.337   7.731  1.8289  1.8812  1.7701
  162SAPE  C21418194   3.000   3.243   7.756  0.0508  0.4418 -0.1273
  162SAPE  H14R18195   3.061   3.177   7.694 -0.4919  0.5910 -0.8308
  162SAPE  C21518196   3.036   3.267   7.885  0.4821  0.5082  0.1220
  162SAPE  H15R18197   3.117   3.220   7.942  0.0286  2.0532  2.1613
  162SAPE  C21618198   2.965   3.362   7.978  0.1884  0.6108 -0.8058
  162SAPE  H16R18199   2.945   3.457   7.924 -0.7099 -0.9135 -3.2976
  162SAPE  H16S18200   3.029   3.369   8.069 -1.1213 -1.1158  0.3130
  162SAPE  C21718201   2.840   3.294   8.037  0.5746 -0.0369 -0.5641
  162SAPE  H17R18202   2.757   3.268   7.967 -1.3689 -1.3892  2.0717
  162SAPE  H17S18203   2.794   3.367   8.107 -1.2816 -2.4339  0.8934
  162SAPE  C21818204   2.880   3.168   8.117  0.1285 -1.2350 -0.6419
  162SAPE  H18R18205   2.970   3.184   8.179 -0.7697 -2.6211  1.1167
  162SAPE  H18S18206   2.918   3.088   8.050  3.2972 -1.0994  0.8089
  162SAPE  C21918207   2.771   3.129   8.219  0.0040  0.0945  0.3965
  162SAPE  H19R18208   2.735   3.207   8.289 -0.4712 -1.7526  2.3441
  162SAPE  H19S18209   2.818   3.063   8.296  0.7271  0.2018  0.0506
  162SAPE  C22018210   2.655   3.061   8.155 -0.0387  0.3103 -0.1871
  162SAPE  H20R18211   2.696   2.978   8.094 -0.7935  0.0743 -0.3778
  162SAPE  H20S18212   2.609   3.130   8.081  2.1823  1.9750 -0.1484
  162SAPE  H20T18213   2.581   3.031   8.232 -1.0582  0.8007 -0.9490
  162SAPE   C3318214   1.979   3.434   6.928  0.3085 -0.1646 -0.1689
  162SAPE   H3X18215   1.929   3.468   7.021 -1.7644  0.1583 -1.3367
  162SAPE   H3Y18216   2.034   3.517   6.878 -2.4395  1.9557  0.0754
  162SAPE   C3418217   2.090   3.333   6.968 -0.2935 -0.0194  0.3665
  162SAPE   H4X18218   2.145   3.300   6.877  0.6614  0.9086  0.5951
  162SAPE   H4Y18219   2.035   3.244   7.005 -1.2658  0.1572 -0.5835
  162SAPE   C3518220   2.190   3.377   7.078  0.3391 -0.1944  0.6210
  162SAPE   H5X18221   2.130   3.385   7.171  0.1497 -0.7711  0.5511
  162SAPE   H5Y18222   2.243   3.471   7.051  0.0752 -0.1756  0.1685
  162SAPE   C3618223   2.293   3.267   7.111 -0.2178 -0.5239  0.0821
  162SAPE   H6X18224   2.368   3.262   7.029  0.4250  0.6458  0.5842
  162SAPE   H6Y18225   2.238   3.170   7.105 -0.9772 -0.1551  0.9269
  162SAPE   C3718226   2.366   3.266   7.239 -0.5032 -0.2481 -0.2495
  162SAPE   H7X18227   2.431   3.355   7.256 -0.3665 -0.5548  0.9085
  162SAPE   H7Y18228   2.432   3.178   7.248 -0.3820 -0.3280 -1.7568
  162SAPE   C3818229   2.272   3.245   7.356  0.1475  0.1114  0.5404
  162SAPE   H8X18230   2.189   3.176   7.328  0.2764  0.8908 -1.9764
  162SAPE   H8Y18231   2.212   3.333   7.389 -1.1956 -1.4837  2.6269
  162SAPE   C3918232   2.338   3.187   7.482 -0.3766  0.4928  0.4294
  162SAPE   H9X18233   2.408   3.265   7.518 -0.5207  0.6618  0.3490
  162SAPE   H9Y18234   2.387   3.089   7.469 -0.9826  0.1393  0.7540
  162SAPE  C31018235   2.239   3.161   7.599 -0.1629  0.2259 -0.7291
  162SAPE  H10X18236   2.156   3.095   7.566 -0.0381  0.4740 -1.5419
  162SAPE  H10Y18237   2.174   3.249   7.617 -1.0042 -0.1732 -1.6943
  162SAPE  C31118238   2.320   3.112   7.726  0.5288  0.6647  0.3699
  162SAPE  H11X18239   2.405   3.182   7.743  0.5393  0.2114  2.4908
  162SAPE  H11Y18240   2.359   3.009   7.738  0.9480  0.9332  1.3460
  162SAPE  C31218241   2.224   3.123   7.849 -0.1381  0.2465  0.8418
  162SAPE  H12X18242   2.156   3.035   7.837  2.0400 -1.4839  0.6491
  162SAPE  H12Y18243   2.154   3.209   7.855 -1.3492 -0.5923 -0.3386
  162SAPE  C31318244   2.304   3.116   7.977 -0.7458  0.1115  0.5629
  162SAPE  H13X18245   2.348   3.212   8.012 -0.8573  0.5166 -0.3755
  162SAPE  H13Y18246   2.388   3.046   7.957 -1.2468  0.0561 -1.5105
  162SAPE  C31418247   2.218   3.060   8.088 -0.0031 -0.0855  0.4435
  162SAPE  H14X18248   2.166   2.963   8.071  0.9344 -0.7637  1.2608
  162SAPE  H14Y18249   2.131   3.128   8.096  0.0688 -0.0223  0.7311
  162SAPE  C31518250   2.277   3.056   8.234 -0.5224 -0.2017 -0.0558
  162SAPE  H15X18251   2.301   3.160   8.263  0.8395 -0.8466  1.2449
  162SAPE  H15Y18252   2.370   2.996   8.230 -1.2680 -1.4719  1.1025
  162SAPE  C31618253   2.191   2.972   8.334  0.1768  0.3675  0.2168
  162SAPE  H16X18254   2.241   2.958   8.432  1.1923  2.1454 -0.0047
  162SAPE  H16Y18255   2.180   2.871   8.289  1.4751  0.1513  0.3659
  162SAPE  C31718256   2.049   3.018   8.364  0.4946  0.3097 -0.5481
  162SAPE  H17X18257   2.008   2.948   8.439  0.6378 -0.8560 -1.5198
  162SAPE  H17Y18258   1.987   2.993   8.276 -0.6365  0.0678  0.3025
  162SAPE  C31818259   2.034   3.161   8.412  0.8001 -0.0072  0.1251
  162SAPE  H18X18260   2.070   3.240   8.342 -1.3787  1.4486  0.5236
  162SAPE  H18Y18261   2.098   3.174   8.502  0.9871 -0.9112  0.1287
  162SAPE  H18Z18262   1.928   3.176   8.443  0.8323 -0.0351  0.2470
  163SAPE     N18263   1.868   1.792   6.566  0.0726 -0.3605 -0.1410
  163SAPE   HN118264   1.871   1.887   6.525 -0.7541 -0.7500 -1.1324
  163SAPE   HN218265   1.965   1.759   6.585 -0.3610 -1.1543  0.7489
  163SAPE   HN318266   1.833   1.722   6.498  0.6952 -1.8550  1.0265
  163SAPE   C1218267   1.755   1.807   6.668  0.1523  0.5168  0.2761
  163SAPE  H12A18268   1.680   1.877   6.626 -0.8315 -0.9909 -0.5704
  163SAPE  H12B18269   1.791   1.855   6.762 -1.7347  0.8143  0.8861
  163SAPE   C1118270   1.702   1.671   6.712  0.3715  0.2489  0.4103
  163SAPE  H11A18271   1.592   1.673   6.723  0.0444  0.6714 -2.2757
  163SAPE  H11B18272   1.738   1.647   6.814 -0.6394  2.0726  1.2448
  163SAPE     P18273   1.648   1.431   6.619  0.3140  0.1963  0.4498
  163SAPE   O1318274   1.530   1.445   6.535 -0.0636 -0.5034 -0.4660
  163SAPE   O1418275   1.744   1.325   6.590  0.0296  0.5942 -0.7463
  163SAPE   O1218276   1.733   1.572   6.611  0.7445  0.9325 -0.3040
  163SAPE   O1118277   1.606   1.415   6.771  0.1763  0.0025 -0.2302
  163SAPE    C118278   1.721   1.387   6.862  0.0310 -0.2477  0.2158
  163SAPE    HA18279   1.818   1.422   6.820 -0.2845 -0.6913 -0.9205
  163SAPE    HB18280   1.704   1.446   6.955 -0.2540  1.7054 -1.0208
  163SAPE    C218281   1.737   1.234   6.905  0.9104 -0.7968  0.0096
  163SAPE    HS18282   1.708   1.186   6.809 -0.9902  0.0712  0.0883
  163SAPE   O2118283   1.641   1.203   7.006 -0.5825  0.0362 -0.4650
  163SAPE   C2118284   1.604   1.075   7.011  1.0283 -0.2808  0.0059
  163SAPE   O2218285   1.664   0.985   6.948  0.2540 -0.0574 -0.1082
  163SAPE   C2218286   1.487   1.050   7.104 -0.6942 -0.5240 -1.0164
  163SAPE   H2R18287   1.507   1.114   7.192 -2.7311 -3.1192  1.4845
  163SAPE   H2S18288   1.396   1.082   7.048 -2.5358 -0.9065  1.5929
  163SAPE    C318289   1.882   1.204   6.943 -0.0981  0.1068 -0.2274
  163SAPE    HX18290   1.948   1.209   6.854  1.1623  1.9786  0.7483
  163SAPE    HY18291   1.875   1.103   6.989  0.1911  0.8250  1.4683
  163SAPE   O3118292   1.925   1.303   7.034  0.2012  0.2550 -0.2882
  163SAPE   C3118293   1.928   1.258   7.165 -0.2876 -0.1050 -0.5722
  163SAPE   O3218294   1.903   1.147   7.205  0.4864  0.3994  0.5466
  163SAPE   C3218295   1.963   1.379   7.261  0.0527  0.5357 -0.1544
  163SAPE   H2X18296   1.887   1.456   7.239  0.1104  0.3755 -0.9400
  163SAPE   H2Y18297   2.066   1.408   7.232  0.7468 -2.5247 -1.2253
  163SAPE   C2318298   1.458   0.904   7.143 -0.6143 -0.6706 -0.1997
  163SAPE   H3R18299   1.549   0.867   7.195  0.3474  1.1642 -0.4757
  163SAPE   H3S18300   1.437   0.834   7.060  2.3466 -1.7599 -0.1522
  163SAPE   C2418301   1.335   0.897   7.238 -0.1686  0.2497  0.4995
  163SAPE   H4R18302   1.254   0.968   7.208  0.6019  0.8848 -0.1478
  163SAPE   H4S18303   1.365   0.932   7.339 -1.6407 -2.0698  1.8260
  163SAPE   C2518304   1.265   0.758   7.241 -0.2475 -0.4810  0.4581
  163SAPE   H5R18305   1.212   0.727   7.150  1.3947  2.0109 -1.4660
  163SAPE   C2618306   1.267   0.678   7.347 -0.2815  0.4496  1.1121
  163SAPE   H6R18307   1.205   0.587   7.348 -1.7143  1.3820  2.7888
  163SAPE   C2718308   1.330   0.701   7.477 -0.1731 -0.3279 -0.2632
  163SAPE   H7R18309   1.243   0.690   7.545  0.1523 -3.1713 -0.2113
  163SAPE   H7S18310   1.370   0.805   7.487  0.6160 -0.5993 -0.5375
  163SAPE   C2818311   1.433   0.593   7.493 -1.0253 -0.1585  0.0001
  163SAPE   H8R18312   1.444   0.529   7.405 -1.1845 -1.2978  0.7962
  163SAPE   C2918313   1.477   0.546   7.615  0.5103 -0.7432 -0.0722
  163SAPE   H9R18314   1.563   0.478   7.615 -1.0308 -2.7900  0.8338
  163SAPE  C21018315   1.448   0.603   7.753  0.1606 -0.0934 -0.0871
  163SAPE  H10R18316   1.434   0.519   7.825  2.4093  0.3503  0.9404
  163SAPE  H10S18317   1.366   0.677   7.757  0.4882  0.2006  2.0582
  163SAPE  C21118318   1.570   0.681   7.796 -0.7659  0.2247  0.2973
  163SAPE  H11R18319   1.608   0.754   7.723  0.9571 -0.8536  0.0797
  163SAPE  C21218320   1.626   0.681   7.917  0.3147 -0.0488 -0.2358
  163SAPE  H12R18321   1.708   0.753   7.934  0.5541 -0.1773 -0.8348
  163SAPE  C21318322   1.582   0.598   8.042  0.4428 -0.3386 -0.3135
  163SAPE  H13R18323   1.672   0.599   8.107  0.8057  0.3229 -0.8175
  163SAPE  H13S18324   1.575   0.492   8.010  1.8846 -0.8952  1.0733
  163SAPE  C21418325   1.465   0.651   8.118 -0.1425 -0.7922 -0.3248
  163SAPE  H14R18326   1.440   0.756   8.096  0.8890 -0.8101 -1.7600
  163SAPE  C21518327   1.391   0.582   8.203 -0.6855 -0.0881  0.3466
  163SAPE  H15R18328   1.309   0.634   8.253 -0.7925 -0.3710  0.4690
  163SAPE  C21618329   1.399   0.444   8.257 -0.5074 -0.0231 -0.0147
  163SAPE  H16R18330   1.354   0.452   8.358 -0.2108 -0.0991  0.1235
  163SAPE  H16S18331   1.502   0.404   8.264 -0.4265  0.4647  2.7807
  163SAPE  C21718332   1.312   0.339   8.189 -0.3988 -0.6193  0.1184
  163SAPE  H17R18333   1.359   0.239   8.204  2.3230  0.2856 -1.5194
  163SAPE  H17S18334   1.319   0.355   8.080 -1.5013  1.0513  0.2580
  163SAPE  C21818335   1.167   0.340   8.240  0.3914  0.1032  0.4289
  163SAPE  H18R18336   1.135   0.446   8.247  1.8800  0.5526  0.7364
  163SAPE  H18S18337   1.171   0.312   8.348  1.0424  2.1737  0.9721
  163SAPE  C21918338   1.084   0.245   8.158  0.5327  0.6356 -0.6336
  163SAPE  H19R18339   1.146   0.154   8.144 -0.2020 -0.1128  0.6789
  163SAPE  H19S18340   1.061   0.302   8.066 -0.4657  1.7770  0.2726
  163SAPE  C22018341   0.955   0.208   8.238  0.6988 -0.5328  0.0752
  163SAPE  H20R18342   0.902   0.291   8.288 -2.1441 -0.5412 -2.6004
  163SAPE  H20S18343   0.991   0.133   8.311 -2.8481 -1.5355  0.9482
  163SAPE  H20T18344   0.882   0.153   8.175  1.5874 -3.2388  1.2288
  163SAPE   C3318345   1.954   1.332   7.413 -0.2284 -1.2218 -0.6450
  163SAPE   H3X18346   2.019   1.244   7.431  0.5720 -0.5390 -0.1772
  163SAPE   H3Y18347   1.849   1.305   7.439 -0.6381  0.3033 -0.6485
  163SAPE   C3418348   1.997   1.431   7.517  0.5908  0.5578 -0.1560
  163SAPE   H4X18349   1.946   1.525   7.485  0.7880  1.6235  2.3973
  163SAPE   H4Y18350   2.107   1.448   7.513  0.7238 -0.0562  0.6777
  163SAPE   C3518351   1.975   1.391   7.661 -0.2493  0.1204  0.7533
  163SAPE   H5X18352   2.008   1.287   7.684 -0.8068 -0.5196 -1.1540
  163SAPE   H5Y18353   1.865   1.388   7.672 -0.0802 -1.4428  2.3909
  163SAPE   C3618354   2.036   1.484   7.762 -0.0397  0.2392 -0.5076
  163SAPE   H6X18355   1.984   1.577   7.732 -1.6068 -0.0536  1.1452
  163SAPE   H6Y18356   2.147   1.486   7.753 -0.0244 -0.2406 -0.4745
  163SAPE   C3718357   2.004   1.441   7.908  0.5067  0.5152 -0.0511
  163SAPE   H7X18358   2.043   1.338   7.923  1.3633  0.5125 -1.9519
  163SAPE   H7Y18359   1.897   1.436   7.938  0.3914  0.6307 -0.4402
  163SAPE   C3818360   2.062   1.532   8.016  0.5637 -0.1818 -0.4275
  163SAPE   H8X18361   1.992   1.616   8.035  0.0028 -0.4067 -1.4256
  163SAPE   H8Y18362   2.162   1.571   7.988  1.0586  0.6423  2.2160
  163SAPE   C3918363   2.084   1.456   8.150  0.3973 -0.4170 -1.0575
  163SAPE   H9X18364   2.133   1.365   8.109 -0.7406 -0.6684 -1.8971
  163SAPE   H9Y18365   1.986   1.429   8.196 -0.9539  0.4038 -3.2761
  163SAPE  C31018366   2.195   1.519   8.233  0.1586 -0.0743  0.1454
  163SAPE  H10X18367   2.169   1.621   8.272 -1.2144 -0.2890 -0.1554
  163SAPE  H10Y18368   2.289   1.543   8.179  0.3049 -2.2966 -0.6445
  163SAPE  C31118369   2.234   1.424   8.352 -0.4485  0.4875 -0.2287
  163SAPE  H11X18370   2.264   1.323   8.316  2.2590  0.5025  1.6697
  163SAPE  H11Y18371   2.143   1.416   8.414 -0.4550  0.5577 -0.2289
  163SAPE  C31218372   2.362   1.467   8.422  0.2015  0.7949 -0.2561
  163SAPE  H12X18373   2.443   1.491   8.350 -1.4333  0.6227 -2.2672
  163SAPE  H12Y18374   2.399   1.390   8.493  1.0534  0.4870 -1.0233
  163SAPE  C31318375   2.354   1.607   8.492 -0.5275 -0.4189 -0.2837
  163SAPE  H13X18376   2.336   1.679   8.409  0.1419 -0.1359 -0.1875
  163SAPE  H13Y18377   2.449   1.641   8.539 -0.3579  0.6180 -1.3414
  163SAPE  C31418378   2.246   1.620   8.609 -0.2181  0.2689  0.0972
  163SAPE  H14X18379   2.293   1.553   8.684 -0.1377 -0.1976 -0.3602
  163SAPE  H14Y18380   2.158   1.564   8.570  0.8390 -1.6061  0.3129
  163SAPE  C31518381   2.219   1.763   8.662  0.9856  0.4758 -0.1596
  163SAPE  H15X18382   2.181   1.829   8.582 -1.0817 -0.6459 -0.1790
  163SAPE  H15Y18383   2.315   1.809   8.692 -0.3825  2.1164  1.9781
  163SAPE  C31618384   2.131   1.768   8.787 -0.4017 -0.2103  0.9295
  163SAPE  H16X18385   2.180   1.711   8.868  3.6853 -1.7489 -2.2312
  163SAPE  H16Y18386   2.036   1.711   8.775 -0.5166  0.2728 -0.7679
  163SAPE  C31718387   2.111   1.918   8.812  0.6836  0.4781  0.1334
  163SAPE  H17X18388   2.058   1.963   8.726 -1.0080  0.7575  1.2743
  163SAPE  H17Y18389   2.205   1.976   8.805  0.3266  1.0352 -0.1450
  163SAPE  C31818390   2.042   1.946   8.946 -0.2744  0.0675 -0.2857
  163SAPE  H18X18391   1.945   1.893   8.952  0.8726 -2.1548 -0.3909
  163SAPE  H18Y18392   2.029   2.056   8.960 -0.2634 -0.0253  0.4968
  163SAPE  H18Z18393   2.112   1.900   9.019  0.2480 -3.6684 -2.8859
  164SAPE     N18394   6.153   4.517   5.787 -0.6550 -0.3706 -0.5275
  164SAPE   HN118395   6.250   4.488   5.762 -0.9197 -1.2640 -0.5778
  164SAPE   HN218396   6.127   4.597   5.727  1.5220  0.6043 -0.2793
  164SAPE   HN318397   6.148   4.549   5.886 -0.8151 -1.1102 -0.2886
  164SAPE   C1218398   6.057   4.402   5.788  0.5137 -0.0746 -0.0020
  164SAPE  H12A18399   6.017   4.395   5.684  0.6922 -2.9552  0.0430
  164SAPE  H12B18400   5.982   4.439   5.861  2.7649  1.0185  1.8515
  164SAPE   C1118401   6.130   4.273   5.831  0.0635 -0.6020  1.4055
  164SAPE  H11A18402   6.207   4.290   5.909  1.7987 -1.1580 -0.0959
  164SAPE  H11B18403   6.195   4.242   5.746  0.5820 -0.1757  1.6433
  164SAPE     P18404   5.950   4.163   5.998 -0.2677 -0.6151 -0.3344
  164SAPE   O1318405   5.817   4.220   5.963  0.3976  0.4699 -0.9267
  164SAPE   O1418406   5.953   4.021   6.034 -0.3144  0.4173 -0.4745
  164SAPE   O1218407   6.033   4.174   5.867  0.1937 -0.1873  0.1029
  164SAPE   O1118408   6.011   4.268   6.105 -0.0901 -0.0803  0.1408
  164SAPE    C118409   6.131   4.231   6.187 -0.3765 -0.6918  0.3383
  164SAPE    HA18410   6.179   4.140   6.145 -1.8647 -1.9776  1.3132
  164SAPE    HB18411   6.205   4.314   6.196 -1.1981  0.2163 -0.8792
  164SAPE    C218412   6.082   4.189   6.328 -0.0908  0.0158 -0.0351
  164SAPE    HS18413   5.999   4.117   6.319  0.3988 -0.6557  0.6792
  164SAPE   O2118414   6.040   4.314   6.391 -0.0521 -0.1602 -0.6645
  164SAPE   C2118415   5.932   4.304   6.464 -0.1279  0.3774  0.1599
  164SAPE   O2218416   5.881   4.193   6.486 -0.2125 -0.0095  0.2418
  164SAPE   C2218417   5.893   4.439   6.531  0.1256  0.4498 -0.3398
  164SAPE   H2R18418   5.986   4.490   6.563 -0.6744  2.1199 -0.5660
  164SAPE   H2S18419   5.858   4.496   6.442  0.3141  1.0513 -0.0344
  164SAPE    C318420   6.193   4.122   6.410  0.7656 -0.8581  0.4912
  164SAPE    HX18421   6.273   4.199   6.405  0.3361 -0.4473 -0.2127
  164SAPE    HY18422   6.236   4.031   6.362 -2.1975 -1.4399 -1.2875
  164SAPE   O3118423   6.146   4.096   6.548 -0.4200  0.1691 -0.9222
  164SAPE   C3118424   6.240   4.066   6.628 -0.2251 -0.2964  0.3183
  164SAPE   O3218425   6.358   4.055   6.596 -0.6978  0.3318  0.2884
  164SAPE   C3218426   6.185   4.048   6.771 -0.1740  0.3037 -0.0595
  164SAPE   H2X18427   6.265   4.012   6.840 -0.1287  1.3029  0.4471
  164SAPE   H2Y18428   6.107   3.970   6.765  0.9247 -1.0493  1.8208
  164SAPE   C2318429   5.780   4.420   6.631 -0.8316 -0.4470 -0.0470
  164SAPE   H3R18430   5.814   4.375   6.726  0.3468  1.3065  0.4151
  164SAPE   H3S18431   5.699   4.362   6.582 -1.0723 -0.4670  0.3682
  164SAPE   C2418432   5.712   4.559   6.675 -0.0776  0.0267 -0.0144
  164SAPE   H4R18433   5.615   4.540   6.725 -0.5453  0.8003 -0.5947
  164SAPE   H4S18434   5.689   4.622   6.586  1.4337  3.2988  1.7572
  164SAPE   C2518435   5.802   4.641   6.761 -0.0316 -0.3649  0.3994
  164SAPE   H5R18436   5.899   4.677   6.722 -0.9873  1.7148 -0.1801
  164SAPE   C2618437   5.800   4.648   6.891 -0.4441 -0.1661 -0.4544
  164SAPE   H6R18438   5.876   4.707   6.946 -2.7427  0.4550  2.3046
  164SAPE   C2718439   5.692   4.582   6.982  0.5839 -0.0283  0.0481
  164SAPE   H7R18440   5.603   4.555   6.922  1.1080  0.0479 -0.7804
  164SAPE   H7S18441   5.667   4.658   7.059 -0.1726  1.5509 -1.6911
  164SAPE   C2818442   5.726   4.449   7.049 -0.8275  0.4890  0.1919
  164SAPE   H8R18443   5.707   4.357   6.992  0.2959 -1.4536  2.7347
  164SAPE   C2918444   5.768   4.426   7.172  0.1112  0.6985  0.4056
  164SAPE   H9R18445   5.801   4.323   7.191 -2.6811 -0.3927 -0.1833
  164SAPE  C21018446   5.784   4.535   7.271 -0.3585  0.0925 -0.1959
  164SAPE  H10R18447   5.827   4.623   7.218  0.6309  0.3438  0.9589
  164SAPE  H10S18448   5.865   4.511   7.343 -1.2944 -4.5270 -0.3852
  164SAPE  C21118449   5.667   4.579   7.351 -0.2435  0.5501 -0.8874
  164SAPE  H11R18450   5.603   4.656   7.305 -0.9168  0.1186 -0.6916
  164SAPE  C21218451   5.637   4.531   7.474  0.3858 -0.0282  0.5089
  164SAPE  H12R18452   5.547   4.564   7.528  0.7955 -0.4977  1.5094
  164SAPE  C21318453   5.713   4.438   7.555 -0.7867  0.0419  0.1937
  164SAPE  H13R18454   5.806   4.393   7.515 -0.3262 -1.3055  2.5692
  164SAPE  H13S18455   5.664   4.343   7.588  1.2750 -0.7258  1.1866
  164SAPE  C21418456   5.746   4.515   7.683  0.2085 -0.3855  0.0190
  164SAPE  H14R18457   5.809   4.603   7.667  0.4661 -0.3451  1.1905
  164SAPE  C21518458   5.722   4.482   7.813  0.6232 -0.3684  0.7080
  164SAPE  H15R18459   5.745   4.544   7.901  2.5081 -1.6867  1.2145
  164SAPE  C21618460   5.645   4.360   7.852 -0.0988 -0.1094  0.4656
  164SAPE  H16R18461   5.709   4.270   7.849 -0.8562 -0.7650  2.2431
  164SAPE  H16S18462   5.556   4.345   7.788  0.1617 -1.5070  0.4103
  164SAPE  C21718463   5.590   4.382   8.000  0.0962  0.7096 -0.0480
  164SAPE  H17R18464   5.674   4.397   8.071  0.7951 -0.5924 -0.5780
  164SAPE  H17S18465   5.538   4.292   8.040  1.3385 -1.0478 -2.1889
  164SAPE  C21818466   5.496   4.505   8.007  0.1137 -0.0101 -0.2608
  164SAPE  H18R18467   5.409   4.482   7.942 -0.3277 -2.1951  1.0215
  164SAPE  H18S18468   5.535   4.601   7.964  2.2976 -0.6349  0.1767
  164SAPE  C21918469   5.439   4.537   8.147 -0.0675 -0.3863 -0.3805
  164SAPE  H19R18470   5.367   4.455   8.171  1.8660 -2.1663 -0.3034
  164SAPE  H19S18471   5.375   4.627   8.141  0.2838  0.0167  1.4390
  164SAPE  C22018472   5.535   4.562   8.273  0.2280  0.9828 -0.8627
  164SAPE  H20R18473   5.470   4.581   8.361  0.5982 -2.9308  0.4555
  164SAPE  H20S18474   5.606   4.646   8.258  2.6177 -1.3154 -3.5914
  164SAPE  H20T18475   5.598   4.472   8.290 -0.9435  0.3868  0.5743
  164SAPE   C3318476   6.133   4.171   6.832  0.3704 -0.3329  0.1098
  164SAPE   H3X18477   6.113   4.149   6.939  0.7407 -1.9481 -0.1195
  164SAPE   H3Y18478   6.036   4.191   6.781  1.7098  1.1111 -2.0644
  164SAPE   C3418479   6.214   4.305   6.820 -0.1630 -0.1332  0.4626
  164SAPE   H4X18480   6.243   4.312   6.713  1.3631  1.2567  0.9188
  164SAPE   H4Y18481   6.307   4.284   6.877  0.3286 -0.4782 -0.4448
  164SAPE   C3518482   6.135   4.426   6.856  0.2933 -0.7025 -0.5592
  164SAPE   H5X18483   6.033   4.415   6.814  0.1506  0.0076 -0.4238
  164SAPE   H5Y18484   6.193   4.513   6.819  0.1827 -0.2017  0.4048
  164SAPE   C3618485   6.115   4.440   7.006 -0.0070  0.5025 -0.8096
  164SAPE   H6X18486   6.085   4.349   7.062 -1.6928  1.2822 -0.3518
  164SAPE   H6Y18487   6.038   4.520   7.020 -0.0155  0.1479  1.6454
  164SAPE   C3718488   6.234   4.490   7.088 -0.6580  0.3107 -0.2823
  164SAPE   H7X18489   6.253   4.589   7.042  0.5151  1.4955  2.5583
  164SAPE   H7Y18490   6.326   4.433   7.063 -1.6305 -0.5447 -2.1299
  164SAPE   C3818491   6.211   4.509   7.243  0.4100  0.0205  0.5236
  164SAPE   H8X18492   6.212   4.406   7.285  0.7733 -1.0491 -1.9370
  164SAPE   H8Y18493   6.116   4.566   7.251  0.6589  0.3591  1.0925
  164SAPE   C3918494   6.325   4.585   7.308 -0.0914  0.3984  0.4781
  164SAPE   H9X18495   6.347   4.671   7.242  0.8088 -0.6195 -0.6075
  164SAPE   H9Y18496   6.421   4.530   7.313  0.9573  2.3036  3.5889
  164SAPE  C31018497   6.282   4.636   7.449 -0.7560 -0.8148 -0.4528
  164SAPE  H10X18498   6.183   4.679   7.424 -0.5056 -0.2393 -0.4684
  164SAPE  H10Y18499   6.331   4.732   7.474 -0.1375 -0.8466 -1.4693
  164SAPE  C31118500   6.261   4.526   7.555 -0.1781  0.2660 -0.1011
  164SAPE  H11X18501   6.357   4.471   7.563  0.2888  0.8832 -1.1951
  164SAPE  H11Y18502   6.184   4.452   7.524 -1.3529  1.0886  0.7436
  164SAPE  C31218503   6.217   4.564   7.697  0.0610 -0.2722  1.2461
  164SAPE  H12X18504   6.118   4.615   7.686  0.7245  1.0634  1.2667
  164SAPE  H12Y18505   6.287   4.638   7.740  0.3008  0.0711  0.2981
  164SAPE  C31318506   6.195   4.450   7.788 -0.0869 -0.7361  0.6757
  164SAPE  H13X18507   6.287   4.387   7.785  1.2591  1.1601 -2.2237
  164SAPE  H13Y18508   6.106   4.391   7.756  0.0096 -0.0591 -0.9260
  164SAPE  C31418509   6.193   4.504   7.933  0.9352 -0.1836 -1.0658
  164SAPE  H14X18510   6.114   4.582   7.930  0.9158 -0.1554 -0.2028
  164SAPE  H14Y18511   6.292   4.549   7.954  1.6480 -2.8034  2.0565
  164SAPE  C31518512   6.139   4.409   8.032 -0.5569 -0.2632 -0.3243
  164SAPE  H15X18513   6.210   4.327   8.056 -0.6946 -1.0685 -2.4675
  164SAPE  H15Y18514   6.048   4.366   7.986 -1.8915  1.4551  0.6007
  164SAPE  C31618515   6.111   4.489   8.166 -0.3279 -0.7278 -0.1343
  164SAPE  H16X18516   6.140   4.596   8.156  2.6575 -1.3132  1.2571
  164SAPE  H16Y18517   6.175   4.456   8.250  0.2426  2.3025  0.7481
  164SAPE  C31718518   5.960   4.487   8.211 -0.0289  0.2648 -0.2750
  164SAPE  H17X18519   5.894   4.517   8.128  1.4995 -0.3739 -1.7790
  164SAPE  H17Y18520   5.942   4.564   8.289 -0.3295  1.1611 -1.2086
  164SAPE  C31818521   5.912   4.353   8.266 -0.4696 -0.2543  0.9245
  164SAPE  H18X18522   5.990   4.310   8.333 -0.4919 -1.3710  0.2606
  164SAPE  H18Y18523   5.885   4.278   8.188  2.8411  0.1189 -0.7689
  164SAPE  H18Z18524   5.824   4.371   8.331 -1.0966 -0.1994  0.0706
  165SAPE     N18525   6.002   2.168   6.207 -0.0551 -0.2188 -0.3100
  165SAPE   HN118526   5.914   2.150   6.155 -1.2706  0.3466  1.4726
  165SAPE   HN218527   6.043   2.078   6.241  0.1441  0.3635  1.0325
  165SAPE   HN318528   5.980   2.224   6.291  0.1747 -1.0365  0.3146
  165SAPE   C1218529   6.114   2.226   6.115 -0.3992 -0.1721  0.4020
  165SAPE  H12A18530   6.078   2.324   6.076  0.5937 -0.3607 -1.0479
  165SAPE  H12B18531   6.131   2.145   6.041 -0.6583 -0.6413  0.8395
  165SAPE   C1118532   6.240   2.247   6.200  0.8366  0.1136 -0.3515
  165SAPE  H11A18533   6.210   2.308   6.288 -2.8362 -0.4318 -1.0598
  165SAPE  H11B18534   6.298   2.319   6.139 -0.1733  0.8849 -0.4170
  165SAPE     P18535   6.429   2.126   6.332 -0.1848  0.3558  0.0567
  165SAPE   O1318536   6.511   2.003   6.305 -0.3745  0.1240  0.3443
  165SAPE   O1418537   6.498   2.259   6.338  0.1559  0.5203  0.5163
  165SAPE   O1218538   6.304   2.126   6.236 -0.2548  0.2609  0.1012
  165SAPE   O1118539   6.360   2.096   6.465 -0.2039 -0.4488  0.4958
  165SAPE    C118540   6.223   2.115   6.506  0.0184 -0.0533 -0.2478
  165SAPE    HA18541   6.200   2.218   6.539  0.1123 -0.3949  0.9439
  165SAPE    HB18542   6.154   2.098   6.421  1.4436  3.6225 -2.3469
  165SAPE    C218543   6.199   2.012   6.618  0.6456  0.3385  0.4591
  165SAPE    HS18544   6.092   2.019   6.648  1.0680  1.8431  1.7749
  165SAPE   O2118545   6.276   2.046   6.732 -0.0383 -0.0672 -0.5702
  165SAPE   C2118546   6.243   2.169   6.796 -0.3583  0.7874  0.3775
  165SAPE   O2218547   6.145   2.236   6.770  0.1011  0.3909 -0.8586
  165SAPE   C2218548   6.343   2.204   6.907 -0.7478  0.3470 -1.2430
  165SAPE   H2R18549   6.416   2.122   6.919 -1.7601 -0.3664  0.5771
  165SAPE   H2S18550   6.398   2.292   6.868  2.2948 -0.7569  0.2580
  165SAPE    C318551   6.238   1.866   6.572  0.0036 -0.3404 -0.4445
  165SAPE    HX18552   6.348   1.860   6.564  0.0741  1.2390 -0.9913
  165SAPE    HY18553   6.209   1.854   6.466 -1.6024  1.4260 -0.2643
  165SAPE   O3118554   6.183   1.759   6.655 -0.1847 -0.8894  0.3572
  165SAPE   C3118555   6.064   1.713   6.615 -0.0359 -0.0764 -0.1832
  165SAPE   O3218556   6.010   1.744   6.508  0.1041  0.5756 -0.0801
  165SAPE   C3218557   6.007   1.641   6.726  0.3551 -0.0902  0.5915
  165SAPE   H2X18558   6.074   1.645   6.815 -0.7813 -0.4653  1.4912
  165SAPE   H2Y18559   6.007   1.533   6.698  1.3254 -0.1155  0.6478
  165SAPE   C2318560   6.291   2.233   7.056  0.0400  0.5141  0.3546
  165SAPE   H3R18561   6.239   2.331   7.060 -0.3777  0.3287 -0.4071
  165SAPE   H3S18562   6.368   2.235   7.137 -1.0141  3.4604  1.4504
  165SAPE   C2418563   6.179   2.126   7.086 -0.5904  0.0995  0.5681
  165SAPE   H4R18564   6.100   2.154   7.013 -1.1493  0.0948  1.1608
  165SAPE   H4S18565   6.139   2.156   7.186  1.3891  1.4111  1.0275
  165SAPE   C2518566   6.225   1.983   7.083  0.6374 -0.1269 -0.1936
  165SAPE   H5R18567   6.246   1.934   6.987 -3.5016  1.9692 -2.4233
  165SAPE   C2618568   6.243   1.920   7.199  0.1688  0.6312  0.1490
  165SAPE   H6R18569   6.264   1.812   7.200 -1.8611  0.2129  0.7063
  165SAPE   C2718570   6.228   1.976   7.339  0.1111  0.6540  0.0824
  165SAPE   H7R18571   6.124   2.011   7.354 -0.0387 -0.6448  2.7060
  165SAPE   H7S18572   6.283   2.072   7.351  1.5996  0.0056 -1.1382
  165SAPE   C2818573   6.247   1.883   7.456 -0.1408 -0.3560  0.5063
  165SAPE   H8R18574   6.297   1.789   7.429  1.5309  0.1331  1.7085
  165SAPE   C2918575   6.225   1.924   7.584 -0.4336  0.2061 -0.3277
  165SAPE   H9R18576   6.251   1.855   7.666 -4.4551  2.1893  2.9596
  165SAPE  C21018577   6.171   2.055   7.640 -0.0968 -0.0073  0.0984
  165SAPE  H10R18578   6.127   2.112   7.555  2.1769 -0.2969 -1.3769
  165SAPE  H10S18579   6.250   2.127   7.670  0.1801 -0.4596  0.4655
  165SAPE  C21118580   6.081   2.046   7.764 -0.1219 -0.0085  0.9914
  165SAPE  H11R18581   5.974   2.049   7.739 -0.0746 -1.6185  0.4726
  165SAPE  C21218582   6.116   2.000   7.885  0.0732 -0.3424  0.6484
  165SAPE  H12R18583   6.038   2.000   7.962 -0.9699 -1.4821 -0.3776
  165SAPE  C21318584   6.262   1.969   7.922  0.3987  0.1946  0.2185
  165SAPE  H13R18585   6.307   2.044   7.990  0.8928 -1.0075  1.2321
  165SAPE  H13S18586   6.315   1.980   7.825 -2.1283  1.1252 -1.1555
  165SAPE  C21418587   6.292   1.828   7.974  0.2342  0.1760  0.4404
  165SAPE  H14R18588   6.243   1.741   7.929 -0.8659  0.7061  0.5773
  165SAPE  C21518589   6.361   1.797   8.082  0.2794 -0.0797 -1.1252
  165SAPE  H15R18590   6.376   1.691   8.104 -2.8509 -0.2695  0.5311
  165SAPE  C21618591   6.423   1.895   8.178  0.5355  0.4147 -1.0765
  165SAPE  H16R18592   6.441   1.998   8.142  2.0761  1.2829  1.8839
  165SAPE  H16S18593   6.527   1.868   8.208  0.0101  1.3963  1.9643
  165SAPE  C21718594   6.335   1.918   8.303  0.3669  0.1516  0.5910
  165SAPE  H17R18595   6.302   1.822   8.348  0.8625 -0.3963 -0.1993
  165SAPE  H17S18596   6.246   1.969   8.258  0.0097  0.8511  2.0197
  165SAPE  C21818597   6.400   2.008   8.412 -0.6761  0.3427 -0.0451
  165SAPE  H18R18598   6.405   2.114   8.378 -0.7829 -0.1669 -1.7881
  165SAPE  H18S18599   6.503   1.970   8.427 -1.4002 -0.9263  2.0237
  165SAPE  C21918600   6.340   2.003   8.550  0.7590  0.0433 -0.2496
  165SAPE  H19R18601   6.304   1.902   8.579 -1.1076  0.6238 -0.3955
  165SAPE  H19S18602   6.249   2.067   8.563  0.4454 -0.5282  0.4432
  165SAPE  C22018603   6.445   2.049   8.654 -0.0156  1.2826  0.7253
  165SAPE  H20R18604   6.504   2.130   8.606 -0.7828  1.8720  0.7551
  165SAPE  H20S18605   6.508   1.962   8.683 -0.0785  1.4422  1.3664
  165SAPE  H20T18606   6.392   2.085   8.745  0.1315  1.6765  0.6549
  165SAPE   C3318607   5.869   1.694   6.766 -0.8310  0.5385 -0.5645
  165SAPE   H3X18608   5.807   1.621   6.823  1.1082 -2.6651 -2.2671
  165SAPE   H3Y18609   5.821   1.717   6.668 -0.2462 -0.5819 -1.1361
  165SAPE   C3418610   5.880   1.814   6.866 -0.4437  0.0272 -0.2818
  165SAPE   H4X18611   5.777   1.846   6.892 -0.1896  2.1851 -1.6591
  165SAPE   H4Y18612   5.915   1.905   6.812 -2.7335 -0.3822 -2.6146
  165SAPE   C3518613   5.958   1.797   6.992 -0.1687 -0.1702 -0.0316
  165SAPE   H5X18614   5.946   1.900   7.034 -1.3169 -0.6232  0.8040
  165SAPE   H5Y18615   6.065   1.778   6.973  0.1429 -3.1206  3.6242
  165SAPE   C3618616   5.904   1.692   7.089 -0.1718  0.3164 -0.3177
  165SAPE   H6X18617   5.886   1.598   7.031 -0.9802  0.7087 -0.7212
  165SAPE   H6Y18618   5.810   1.739   7.126  1.3052  1.8847  1.6722
  165SAPE   C3718619   6.001   1.686   7.208  0.5012 -0.5669 -0.5510
  165SAPE   H7X18620   6.024   1.792   7.230  2.1905 -0.9122 -0.5386
  165SAPE   H7Y18621   6.099   1.641   7.182  0.0322 -1.5109 -0.7419
  165SAPE   C3818622   5.949   1.608   7.328 -0.3892  0.3121  0.3600
  165SAPE   H8X18623   5.958   1.499   7.314  0.7715  0.6749 -2.4605
  165SAPE   H8Y18624   5.838   1.616   7.336 -0.4985  0.4415 -0.9745
  165SAPE   C3918625   6.004   1.649   7.461 -0.1550  0.5548  0.1324
  165SAPE   H9X18626   5.970   1.754   7.469 -0.1351  0.6303 -0.6382
  165SAPE   H9Y18627   6.115   1.641   7.472 -0.0889  1.5522  0.2745
  165SAPE  C31018628   5.948   1.572   7.579  0.0176  0.6575  0.2951
  165SAPE  H10X18629   5.977   1.465   7.571 -0.5341  0.3978  1.5156
  165SAPE  H10Y18630   5.837   1.580   7.576 -0.0769  0.5280  2.0865
  165SAPE  C31118631   6.012   1.633   7.718 -0.2562  0.1639  0.5504
  165SAPE  H11X18632   5.990   1.742   7.721  4.0857  1.2319  3.5225
  165SAPE  H11Y18633   6.122   1.615   7.720 -0.4991 -1.4701  0.9235
  165SAPE  C31218634   5.949   1.561   7.834 -0.4699 -0.4096  0.1983
  165SAPE  H12X18635   5.949   1.451   7.816 -1.9053 -0.2418 -1.0065
  165SAPE  H12Y18636   5.844   1.596   7.831 -0.3532  0.0146  0.8607
  165SAPE  C31318637   6.021   1.600   7.964  0.3257 -0.5049  0.4752
  165SAPE  H13X18638   6.009   1.709   7.983 -0.2487 -0.3838 -0.5570
  165SAPE  H13Y18639   6.131   1.583   7.962  0.5688  0.9796 -0.5743
  165SAPE  C31418640   5.967   1.543   8.096  0.0772 -0.4714 -0.3874
  165SAPE  H14X18641   5.987   1.434   8.090  1.8371 -0.3299  1.6364
  165SAPE  H14Y18642   5.859   1.561   8.115 -0.4742 -2.8045 -0.9357
  165SAPE  C31518643   6.049   1.601   8.212  0.1045  0.3386  0.1544
  165SAPE  H15X18644   6.029   1.710   8.219 -0.0553  0.2227  2.3495
  165SAPE  H15Y18645   6.156   1.574   8.193  0.3317 -1.0403  2.7728
  165SAPE  C31618646   6.020   1.552   8.353  0.1636 -0.3137  0.2085
  165SAPE  H16X18647   5.915   1.580   8.378  0.9105  1.0411  2.0453
  165SAPE  H16Y18648   6.083   1.590   8.436  1.3840  1.5897 -1.4949
  165SAPE  C31718649   6.043   1.400   8.378  0.2490  0.2867 -0.6414
  165SAPE  H17X18650   6.148   1.373   8.351  0.3474  0.0207 -0.0067
  165SAPE  H17Y18651   5.970   1.344   8.316 -0.3749  1.7918 -1.3135
  165SAPE  C31818652   6.031   1.363   8.526 -0.4302 -0.2337 -0.2710
  165SAPE  H18X18653   6.104   1.427   8.579  2.9350 -2.7349 -1.5274
  165SAPE  H18Y18654   6.070   1.260   8.542 -1.1320 -0.7707 -1.8152
  165SAPE  H18Z18655   5.926   1.373   8.562 -0.6287 -0.0821 -0.8755
  166SAPE     N18656   2.742   3.697   6.249  0.1863 -0.0112  0.0904
  166SAPE   HN118657   2.802   3.684   6.334 -1.6547  2.5790  1.9728
  166SAPE   HN218658   2.730   3.800   6.236  0.6551 -0.0613 -0.8223
  166SAPE   HN318659   2.648   3.659   6.270 -0.1313  0.4591 -0.4584
  166SAPE   C1218660   2.793   3.644   6.115  0.4419  0.7424 -0.5081
  166SAPE  H12A18661   2.734   3.688   6.032  0.8985 -1.7217 -2.2570
  166SAPE  H12B18662   2.773   3.534   6.115  0.4661  0.7320 -1.7512
  166SAPE   C1118663   2.940   3.688   6.098 -0.1942 -0.2964 -0.3024
  166SAPE  H11A18664   2.976   3.637   6.006 -1.0107 -1.7820  0.1620
  166SAPE  H11B18665   2.992   3.635   6.180 -0.5196 -0.1068  0.0287
  166SAPE     P18666   3.112   3.890   6.081 -0.1623  0.0877  0.0199
  166SAPE   O1318667   3.208   3.785   6.033 -0.1012 -0.5353 -0.4557
  166SAPE   O1418668   3.099   4.022   6.010  0.1112 -0.1007  0.5127
  166SAPE   O1218669   2.966   3.828   6.084  1.0809  0.0753 -0.1778
  166SAPE   O1118670   3.128   3.922   6.237  0.4428  0.1464  0.1216
  166SAPE    C118671   3.026   4.001   6.300  0.0619 -0.2086  0.1646
  166SAPE    HA18672   3.021   4.097   6.245 -1.7801 -0.0060  0.6518
  166SAPE    HB18673   2.928   3.949   6.288 -0.0213  0.4138 -2.5539
  166SAPE    C218674   3.051   4.035   6.452 -0.2511  1.1669  0.6359
  166SAPE    HS18675   3.145   4.094   6.449  0.7748 -0.4435 -1.1691
  166SAPE   O2118676   3.084   3.911   6.515 -0.6548  0.4143  0.4463
  166SAPE   C2118677   3.146   3.915   6.624 -0.8100  0.9011 -0.1675
  166SAPE   O2218678   3.206   4.007   6.677 -0.3149  0.1550  0.1252
  166SAPE   C2218679   3.152   3.767   6.683 -0.6261  0.0708 -0.5621
  166SAPE   H2R18680   3.134   3.692   6.604 -0.9210 -0.4325 -0.0237
  166SAPE   H2S18681   3.255   3.742   6.716 -1.1693 -1.6699 -0.0862
  166SAPE    C318682   2.933   4.110   6.510  0.3076 -0.4101 -0.1927
  166SAPE    HX18683   2.848   4.040   6.497  0.3412 -0.6874  0.9781
  166SAPE    HY18684   2.913   4.199   6.446 -0.4156  0.2525  0.9202
  166SAPE   O3118685   2.952   4.131   6.658 -0.1760  0.6178  0.3540
  166SAPE   C3118686   3.015   4.241   6.683  0.4096  0.2272  0.1220
  166SAPE   O3218687   3.047   4.324   6.601 -0.8231 -0.1445 -0.5884
  166SAPE   C3218688   3.062   4.248   6.827 -0.3390  0.0513 -0.3120
  166SAPE   H2X18689   3.103   4.147   6.851 -2.1806 -0.3938  1.0925
  166SAPE   H2Y18690   2.974   4.257   6.893  0.4476  1.5291  0.5781
  166SAPE   C2318691   3.064   3.745   6.807  0.4406  0.1363 -0.6984
  166SAPE   H3R18692   2.962   3.778   6.777  0.3717 -1.0136 -1.8128
  166SAPE   H3S18693   3.103   3.798   6.897 -0.2430  0.4210 -0.5670
  166SAPE   C2418694   3.063   3.594   6.842  0.2333 -0.4200 -0.3805
  166SAPE   H4R18695   3.162   3.564   6.883  0.4520  2.4957  1.4926
  166SAPE   H4S18696   3.043   3.543   6.745 -1.4497  1.5844 -1.1743
  166SAPE   C2518697   2.963   3.573   6.948 -0.3899  0.0559 -0.0002
  166SAPE   H5R18698   2.859   3.560   6.912 -0.2552  1.2070 -0.8581
  166SAPE   C2618699   2.982   3.561   7.079 -0.0917 -0.6235 -0.4431
  166SAPE   H6R18700   2.889   3.557   7.138 -0.2818 -0.9312 -0.7587
  166SAPE   C2718701   3.119   3.564   7.145  0.3019  0.2805  0.0141
  166SAPE   H7R18702   3.206   3.572   7.076  0.3861  1.0392  0.1968
  166SAPE   H7S18703   3.131   3.463   7.188 -0.7996 -0.3996 -1.2206
  166SAPE   C2818704   3.131   3.666   7.252 -0.2345 -0.0099  0.7034
  166SAPE   H8R18705   3.067   3.751   7.224  0.1985 -0.4879 -1.9717
  166SAPE   C2918706   3.221   3.679   7.354 -0.5079  0.7582 -0.7125
  166SAPE   H9R18707   3.194   3.749   7.435 -0.5435 -1.9868  1.8129
  166SAPE  C21018708   3.329   3.582   7.393  0.0950  0.3147  0.1821
  166SAPE  H10R18709   3.375   3.527   7.308 -0.0373  0.0714  0.2662
  166SAPE  H10S18710   3.291   3.491   7.445  1.5905  0.0069  0.7847
  166SAPE  C21118711   3.436   3.649   7.480 -0.3844 -0.2358  0.1047
  166SAPE  H11R18712   3.506   3.715   7.427 -2.1028  1.0603 -0.6840
  166SAPE  C21218713   3.441   3.649   7.617  1.3156  0.2757  0.2334
  166SAPE  H12R18714   3.511   3.708   7.678 -1.4012 -0.7187  4.7178
  166SAPE  C21318715   3.339   3.578   7.711  0.8988 -0.6380  0.0057
  166SAPE  H13R18716   3.395   3.554   7.804  0.2106  2.1075  1.2264
  166SAPE  H13S18717   3.297   3.487   7.664 -1.5610 -0.2040  1.1953
  166SAPE  C21418718   3.225   3.681   7.739 -0.1243  0.2492 -0.2195
  166SAPE  H14R18719   3.180   3.725   7.649  1.5678  2.9538  0.1549
  166SAPE  C21518720   3.187   3.708   7.867  0.5590  0.0882 -0.5243
  166SAPE  H15R18721   3.097   3.771   7.875  0.6171  0.0771  0.2933
  166SAPE  C21618722   3.245   3.654   7.991  0.2392  0.7847  0.3868
  166SAPE  H16R18723   3.294   3.554   7.982 -0.7727  0.4060 -1.6432
  166SAPE  H16S18724   3.160   3.643   8.061 -0.3112 -0.2466 -0.4123
  166SAPE  C21718725   3.340   3.751   8.060  0.1004  0.2420 -0.4751
  166SAPE  H17R18726   3.273   3.839   8.063 -0.4891 -0.2162  0.0968
  166SAPE  H17S18727   3.428   3.778   7.998 -1.0504 -0.1671 -2.3692
  166SAPE  C21818728   3.387   3.722   8.205  0.0979 -0.3097 -0.7116
  166SAPE  H18R18729   3.434   3.621   8.209 -1.6873 -1.1487  1.7856
  166SAPE  H18S18730   3.298   3.720   8.272  0.0867  1.4727 -0.6272
  166SAPE  C21918731   3.471   3.839   8.260 -0.4473  0.2759  0.3328
  166SAPE  H19R18732   3.406   3.928   8.248  0.7762  1.0741 -0.7761
  166SAPE  H19S18733   3.564   3.839   8.198 -0.6011  2.5651  0.0260
  166SAPE  C22018734   3.505   3.825   8.413 -0.1060  0.1295 -0.2348
  166SAPE  H20R18735   3.418   3.853   8.477 -0.5865  0.8566 -1.1811
  166SAPE  H20S18736   3.586   3.899   8.434 -0.4571  1.7868 -3.9368
  166SAPE  H20T18737   3.537   3.719   8.425 -2.6689 -0.9019 -1.7097
  166SAPE   C3318738   3.153   4.366   6.867  0.4474  0.0351  0.2766
  166SAPE   H3X18739   3.204   4.411   6.780 -1.9675  0.4919 -0.9817
  166SAPE   H3Y18740   3.235   4.324   6.930  1.5997  0.8167 -0.6540
  166SAPE   C3418741   3.084   4.468   6.958 -0.2645  0.6708 -0.3438
  166SAPE   H4X18742   2.982   4.501   6.927 -0.2727  2.2188  1.2124
  166SAPE   H4Y18743   3.158   4.549   6.972  1.1878 -1.0813  3.8974
  166SAPE   C3518744   3.079   4.411   7.103 -0.1747  0.5254  0.0987
  166SAPE   H5X18745   3.176   4.364   7.130 -1.0858 -0.4317  1.9141
  166SAPE   H5Y18746   2.995   4.338   7.103 -0.4195  0.7823  1.0708
  166SAPE   C3618747   3.060   4.510   7.222  0.1649  0.2853  0.0514
  166SAPE   H6X18748   2.984   4.590   7.206 -0.6829 -0.7693 -1.4708
  166SAPE   H6Y18749   3.153   4.565   7.245  0.4575  0.1311 -0.7361
  166SAPE   C3718750   3.044   4.446   7.364  0.2268 -0.1479  0.0071
  166SAPE   H7X18751   3.138   4.391   7.382  1.0105  1.9209  2.8987
  166SAPE   H7Y18752   2.964   4.369   7.370 -0.0546  0.1375  0.0162
  166SAPE   C3818753   3.021   4.545   7.478 -0.3996 -0.1903  0.1894
  166SAPE   H8X18754   2.937   4.610   7.444 -0.6263 -1.6082 -2.2412
  166SAPE   H8Y18755   3.109   4.612   7.487  0.4967 -1.4616  1.3275
  166SAPE   C3918756   2.987   4.490   7.611  0.6313 -0.1338  0.7135
  166SAPE   H9X18757   3.007   4.561   7.693  3.2090  2.8160 -2.1935
  166SAPE   H9Y18758   3.052   4.399   7.621  0.5304 -0.2156  0.6252
  166SAPE  C31018759   2.843   4.453   7.621  0.3007  0.4498 -0.4374
  166SAPE  H10X18760   2.811   4.378   7.544 -1.0240  0.3012  0.2346
  166SAPE  H10Y18761   2.778   4.542   7.628  0.8258  0.7559  0.8580
  166SAPE  C31118762   2.799   4.389   7.754 -0.7489  0.5349 -0.0560
  166SAPE  H11X18763   2.827   4.281   7.756 -1.2082  0.3852 -1.1415
  166SAPE  H11Y18764   2.688   4.384   7.752 -0.6706 -1.8293 -1.1276
  166SAPE  C31218765   2.856   4.453   7.877 -0.0415 -0.7434 -0.2606
  166SAPE  H12X18766   2.838   4.561   7.859  0.6211 -0.9750 -2.5585
  166SAPE  H12Y18767   2.961   4.428   7.904  0.3075  1.2428  0.3869
  166SAPE  C31318768   2.790   4.426   8.009 -0.5877  0.1136  0.0720
  166SAPE  H13X18769   2.833   4.328   8.036 -0.6637  0.1578  0.3573
  166SAPE  H13Y18770   2.680   4.415   7.999 -0.3120 -1.7269 -1.4841
  166SAPE  C31418771   2.835   4.522   8.119  0.3748  0.4396 -0.3634
  166SAPE  H14X18772   2.783   4.619   8.107 -2.9131 -1.2740 -1.1186
  166SAPE  H14Y18773   2.942   4.544   8.099  0.6428  1.0453  1.5216
  166SAPE  C31518774   2.808   4.462   8.257 -0.0059  0.0115 -0.2872
  166SAPE  H15X18775   2.849   4.526   8.338  0.0610 -0.9596  0.4634
  166SAPE  H15Y18776   2.866   4.368   8.257 -0.8779 -0.5713 -1.9303
  166SAPE  C31618777   2.662   4.435   8.289 -0.5020 -0.1268 -0.7441
  166SAPE  H16X18778   2.614   4.368   8.215  0.2381  0.2103 -1.5405
  166SAPE  H16Y18779   2.612   4.534   8.285  1.2377  1.1113  2.9122
  166SAPE  C31718780   2.636   4.365   8.427  0.5975 -0.9577  0.2599
  166SAPE  H17X18781   2.712   4.410   8.494  0.5390  1.6153 -1.2853
  166SAPE  H17Y18782   2.667   4.258   8.423 -0.7813 -1.3465 -0.6131
  166SAPE  C31818783   2.502   4.385   8.501  0.1132 -0.2062  0.3607
  166SAPE  H18X18784   2.515   4.344   8.603 -0.2524  0.3244  0.6258
  166SAPE  H18Y18785   2.418   4.330   8.453  0.4523  0.0842 -0.5849
  166SAPE  H18Z18786   2.474   4.492   8.495  0.5290  0.0377  2.1403
  167SAPE     N18787   4.593   4.041   6.113 -0.4857  0.6815  0.2580
  167SAPE   HN118788   4.624   3.945   6.139 -3.3152 -0.1189  1.0231
  167SAPE   HN218789   4.572   4.090   6.202  1.8560  0.1886  1.1554
  167SAPE   HN318790   4.502   4.024   6.065  0.2038 -3.0650 -0.0727
  167SAPE   C1218791   4.686   4.144   6.051 -0.1245  0.3294 -0.2331
  167SAPE  H12A18792   4.634   4.242   6.053 -0.7756 -0.0282  0.8503
  167SAPE  H12B18793   4.696   4.109   5.946 -0.1702  0.6297 -0.3372
  167SAPE   C1118794   4.821   4.148   6.119 -0.1216  0.5957 -0.3051
  167SAPE  H11A18795   4.880   4.232   6.077 -2.1428  1.0894 -2.4025
  167SAPE  H11B18796   4.882   4.059   6.093 -0.3249  0.8083 -1.5677
  167SAPE     P18797   4.947   4.155   6.346  0.4092 -0.2936  0.0966
  167SAPE   O1318798   5.069   4.164   6.264  0.1824 -0.4957  0.6519
  167SAPE   O1418799   4.933   4.241   6.466  0.7441 -0.1643  0.1374
  167SAPE   O1218800   4.815   4.167   6.258 -0.0084 -0.6261 -0.5934
  167SAPE   O1118801   4.942   4.004   6.398  0.3811  0.2222  0.3629
  167SAPE    C118802   4.840   3.964   6.491  0.0116 -0.2145  0.3635
  167SAPE    HA18803   4.843   4.026   6.583  0.8338 -0.0268  0.2203
  167SAPE    HB18804   4.738   3.964   6.448  0.2365  1.0102 -0.1965
  167SAPE    C218805   4.873   3.824   6.553 -0.4351 -0.5797 -0.6103
  167SAPE    HS18806   4.897   3.763   6.463 -0.2152  0.1285 -1.0381
  167SAPE   O2118807   4.761   3.782   6.631 -0.0248  0.1194 -0.6341
  167SAPE   C2118808   4.761   3.654   6.648 -0.3132 -0.4120 -0.2349
  167SAPE   O2218809   4.849   3.575   6.609  0.3700  0.1101  0.0772
  167SAPE   C2218810   4.639   3.614   6.736 -0.6759  0.5136  1.2424
  167SAPE   H2R18811   4.615   3.709   6.789 -0.5292  0.7185  0.9408
  167SAPE   H2S18812   4.557   3.590   6.665 -2.0198 -0.0064  2.8832
  167SAPE    C318813   4.997   3.842   6.658  0.9907  0.0517 -0.0225
  167SAPE    HX18814   5.069   3.902   6.599  1.1021  1.2282  1.2784
  167SAPE    HY18815   5.037   3.742   6.686 -0.4243 -0.6130 -0.2730
  167SAPE   O3118816   4.965   3.929   6.764 -0.1357  0.3473 -0.1624
  167SAPE   C3118817   4.948   3.884   6.886 -0.4677  0.3934  0.1020
  167SAPE   O3218818   4.954   3.777   6.935  0.5992  0.5863  0.2584
  167SAPE   C3218819   4.890   4.006   6.965 -0.6497  0.5337  0.6154
  167SAPE   H2X18820   4.780   3.997   6.957 -0.6011 -3.3979  1.8383
  167SAPE   H2Y18821   4.933   4.095   6.915  1.5512 -0.5792  0.4123
  167SAPE   C2318822   4.663   3.491   6.825 -0.2930  0.5457  0.2015
  167SAPE   H3R18823   4.685   3.403   6.761  0.1074 -0.5324  1.7612
  167SAPE   H3S18824   4.563   3.482   6.873  0.2968  2.0951  1.8162
  167SAPE   C2418825   4.776   3.513   6.925 -0.6606 -0.0969  0.0007
  167SAPE   H4R18826   4.748   3.610   6.972  0.0316 -0.5087  1.3055
  167SAPE   H4S18827   4.875   3.518   6.875  0.5570 -2.7473  1.9260
  167SAPE   C2518828   4.785   3.412   7.039  0.7057  0.2419 -0.1530
  167SAPE   H5R18829   4.782   3.308   7.004 -1.7255  0.8731 -2.1016
  167SAPE   C2618830   4.780   3.447   7.172 -0.0023 -0.0992  0.0064
  167SAPE   H6R18831   4.759   3.357   7.231  0.3616 -0.4770 -0.4279
  167SAPE   C2718832   4.769   3.587   7.241 -0.4321  0.5255 -0.0204
  167SAPE   H7R18833   4.771   3.666   7.163 -2.0315  0.6808  0.0727
  167SAPE   H7S18834   4.865   3.612   7.291 -0.2771 -0.3330  0.1429
  167SAPE   C2818835   4.648   3.602   7.323 -0.3457  0.2922  0.0836
  167SAPE   H8R18836   4.559   3.552   7.282  0.1903  0.4859 -1.3857
  167SAPE   C2918837   4.637   3.671   7.438  0.0196  0.4672  0.2705
  167SAPE   H9R18838   4.542   3.677   7.492 -1.1906 -0.3655 -1.6645
  167SAPE  C21018839   4.750   3.741   7.510  0.3830  0.2528 -0.0675
  167SAPE  H10R18840   4.807   3.797   7.433  0.2746 -1.7783 -1.7219
  167SAPE  H10S18841   4.815   3.665   7.558 -1.3465 -3.5549 -3.2081
  167SAPE  C21118842   4.691   3.844   7.601 -0.3661 -0.7962  0.0663
  167SAPE  H11R18843   4.669   3.934   7.541  1.6804  0.6989  1.4731
  167SAPE  C21218844   4.676   3.841   7.737  0.4401  0.0317 -0.6809
  167SAPE  H12R18845   4.630   3.926   7.789 -0.8319 -1.2584  0.3908
  167SAPE  C21318846   4.735   3.735   7.829 -0.8328  0.3016 -0.2138
  167SAPE  H13R18847   4.840   3.720   7.796 -0.8996 -1.6337  0.3551
  167SAPE  H13S18848   4.697   3.634   7.803  1.0931 -0.7597  0.9221
  167SAPE  C21418849   4.727   3.757   7.986  0.1135 -0.6508  0.2362
  167SAPE  H14R18850   4.665   3.845   8.006  0.7669 -0.7978  3.5575
  167SAPE  C21518851   4.780   3.693   8.088 -0.0618  0.4591 -0.1243
  167SAPE  H15R18852   4.753   3.711   8.193  0.7206 -4.6854  1.2388
  167SAPE  C21618853   4.871   3.573   8.073  0.2319  0.4260 -0.3627
  167SAPE  H16R18854   4.969   3.609   8.113  0.1899  0.9133 -0.6958
  167SAPE  H16S18855   4.871   3.554   7.964 -2.7344  0.1483 -0.3916
  167SAPE  C21718856   4.822   3.457   8.164 -0.1211 -0.1812 -0.1898
  167SAPE  H17R18857   4.893   3.377   8.135  1.8043  1.3514  0.1654
  167SAPE  H17S18858   4.717   3.439   8.130 -0.1557 -1.2079  0.4233
  167SAPE  C21818859   4.834   3.483   8.320  0.6815 -0.4150 -0.0364
  167SAPE  H18R18860   4.743   3.531   8.364  1.8593  1.1428  0.8173
  167SAPE  H18S18861   4.915   3.559   8.326 -0.3524  0.5880  3.2475
  167SAPE  C21918862   4.879   3.363   8.397  0.0758 -0.1819  0.5039
  167SAPE  H19R18863   4.953   3.309   8.334  0.4419  2.0142 -1.1020
  167SAPE  H19S18864   4.793   3.294   8.405  0.2426 -0.5757 -0.8102
  167SAPE  C22018865   4.942   3.386   8.527  0.1606  0.0637  0.0170
  167SAPE  H20R18866   5.026   3.459   8.525  0.7627 -0.5590  1.2758
  167SAPE  H20S18867   4.980   3.294   8.576  2.0541  0.6688 -0.2080
  167SAPE  H20T18868   4.872   3.431   8.600 -1.2779 -1.7615 -0.1564
  167SAPE   C3318869   4.950   3.994   7.108  0.3510 -0.2383 -0.0323
  167SAPE   H3X18870   5.057   3.972   7.126 -0.2239 -1.9196  1.5510
  167SAPE   H3Y18871   4.898   3.911   7.160 -1.7584  0.6430 -0.6380
  167SAPE   C3418872   4.901   4.120   7.190  0.9179  0.0444  0.1394
  167SAPE   H4X18873   4.806   4.163   7.153  0.5534  0.3322  1.3684
  167SAPE   H4Y18874   4.973   4.204   7.176 -0.4002  1.3147  0.7226
  167SAPE   C3518875   4.892   4.093   7.343 -0.0723 -0.6182 -0.2421
  167SAPE   H5X18876   4.983   4.036   7.370 -0.2646 -0.5165  0.6317
  167SAPE   H5Y18877   4.802   4.029   7.359 -0.2619 -0.9491 -2.2649
  167SAPE   C3618878   4.875   4.209   7.443  0.5767 -0.0122  0.3349
  167SAPE   H6X18879   4.780   4.260   7.416  0.6476 -0.7569 -1.4557
  167SAPE   H6Y18880   4.958   4.282   7.428  1.1235 -0.7367 -0.2467
  167SAPE   C3718881   4.891   4.151   7.586  0.9192  0.5947  0.0940
  167SAPE   H7X18882   4.980   4.085   7.589  0.3729 -0.1332  1.1153
  167SAPE   H7Y18883   4.799   4.093   7.609  2.1006 -1.4880 -0.1675
  167SAPE   C3818884   4.905   4.261   7.690 -0.6728  0.0191 -0.3445
  167SAPE   H8X18885   4.830   4.337   7.662  0.6972  1.1059 -1.1706
  167SAPE   H8Y18886   5.000   4.317   7.678 -1.1388  1.2060  1.1274
  167SAPE   C3918887   4.887   4.222   7.840 -0.0095 -0.6247 -0.3014
  167SAPE   H9X18888   4.822   4.133   7.854 -0.4142 -0.1243  1.2490
  167SAPE   H9Y18889   4.834   4.310   7.884  1.1031 -0.6342  1.1299
  167SAPE  C31018890   5.020   4.198   7.918  0.0662 -0.0733 -0.3137
  167SAPE  H10X18891   5.081   4.288   7.896 -0.5891  0.5282  0.2800
  167SAPE  H10Y18892   5.074   4.113   7.873 -0.2190  0.4006 -1.5766
  167SAPE  C31118893   5.003   4.168   8.067 -0.7708 -0.0517  0.5386
  167SAPE  H11X18894   4.930   4.244   8.104  1.2038  2.1906  0.1313
  167SAPE  H11Y18895   5.098   4.185   8.122 -0.9727  2.4845  0.2301
  167SAPE  C31218896   4.952   4.023   8.085 -0.2841 -0.4564 -0.3166
  167SAPE  H12X18897   4.987   3.959   8.001 -0.8507  0.4336 -1.2563
  167SAPE  H12Y18898   4.842   4.027   8.069 -0.3920  0.5742  0.6078
  167SAPE  C31318899   4.979   3.970   8.227 -0.8418 -0.1736 -0.0707
  167SAPE  H13X18900   4.912   3.890   8.263 -1.9341  1.3441  1.4651
  167SAPE  H13Y18901   4.971   4.058   8.295  0.9360  0.7160 -0.9438
  167SAPE  C31418902   5.116   3.897   8.232  0.0462 -0.0357 -0.6702
  167SAPE  H14X18903   5.202   3.966   8.223 -0.6802  1.3079  1.7796
  167SAPE  H14Y18904   5.112   3.821   8.151 -1.1319  0.1481 -0.8175
  167SAPE  C31518905   5.134   3.834   8.379 -0.4937  0.7015  0.2381
  167SAPE  H15X18906   5.047   3.765   8.388 -1.8058  1.8701 -2.3123
  167SAPE  H15Y18907   5.137   3.896   8.471 -1.3606 -1.9211  2.1528
  167SAPE  C31618908   5.256   3.741   8.371 -0.1349 -0.7416 -0.0416
  167SAPE  H16X18909   5.353   3.795   8.365 -0.1570 -0.7945 -0.9953
  167SAPE  H16Y18910   5.251   3.676   8.281  2.7071  0.6467 -1.3268
  167SAPE  C31718911   5.274   3.644   8.492 -0.3838 -0.3589 -0.0466
  167SAPE  H17X18912   5.179   3.589   8.513 -0.0345 -0.0940  2.4890
  167SAPE  H17Y18913   5.299   3.706   8.580 -0.0238 -0.4108 -0.1127
  167SAPE  C31818914   5.379   3.540   8.464  0.2811 -0.6653 -0.5717
  167SAPE  H18X18915   5.385   3.478   8.556 -0.5321 -0.6720 -0.5178
  167SAPE  H18Y18916   5.476   3.583   8.430 -0.1414 -0.0381 -0.9949
  167SAPE  H18Z18917   5.340   3.483   8.377  1.2067  0.6239 -1.8771
  168SAPE     N18918   0.341   1.201   6.181 -0.2636 -0.0964 -0.3071
  168SAPE   HN118919   0.439   1.233   6.196  1.4219 -3.1076 -3.3636
  168SAPE   HN218920   0.278   1.269   6.134 -3.0606 -2.1070  0.3394
  168SAPE   HN318921   0.295   1.189   6.273 -1.4890  0.7390 -0.7908
  168SAPE   C1218922   0.342   1.076   6.097  0.3716  0.7588 -0.1147
  168SAPE  H12A18923   0.386   1.091   5.996  1.0187 -2.0094 -0.3369
  168SAPE  H12B18924   0.235   1.056   6.076  0.7866 -0.4464 -1.2186
  168SAPE   C1118925   0.414   0.949   6.164  0.2705 -0.3142 -0.0749
  168SAPE  H11A18926   0.515   0.966   6.207 -0.4754  0.4381  1.4514
  168SAPE  H11B18927   0.424   0.873   6.084  0.1477 -2.0320  1.4520
  168SAPE     P18928   0.369   0.797   6.377  0.2349  0.0628 -0.0917
  168SAPE   O1318929   0.252   0.707   6.401  0.1347 -0.9039  0.5847
  168SAPE   O1418930   0.499   0.738   6.346 -0.3368 -0.0546 -0.0587
  168SAPE   O1218931   0.317   0.899   6.265 -0.1394  0.5282 -0.6062
  168SAPE   O1118932   0.375   0.911   6.484  0.5303  0.2234 -0.6198
  168SAPE    C118933   0.498   0.970   6.528 -0.0816  0.4099  0.1508
  168SAPE    HA18934   0.589   0.914   6.495  0.7607  1.8159  0.0235
  168SAPE    HB18935   0.509   1.070   6.482 -1.5261 -0.0422 -1.3238
  168SAPE    C218936   0.508   0.974   6.681  0.0199  0.0154  0.4829
  168SAPE    HS18937   0.609   1.008   6.711 -0.7387  3.0924 -0.0408
  168SAPE   O2118938   0.473   0.847   6.732  0.1610 -0.8220 -0.9370
  168SAPE   C2118939   0.573   0.763   6.737  0.1571 -0.1353  0.6208
  168SAPE   O2218940   0.687   0.778   6.695  0.6905  0.4797  0.0067
  168SAPE   C2218941   0.517   0.635   6.803 -0.1321 -0.0928  0.0049
  168SAPE   H2R18942   0.472   0.654   6.902 -0.1027 -1.9510  0.4082
  168SAPE   H2S18943   0.433   0.587   6.747 -1.8839  1.1695  1.4197
  168SAPE    C318944   0.417   1.079   6.746 -0.9237 -0.1197 -0.0230
  168SAPE    HX18945   0.314   1.050   6.715 -1.9350 -0.8348  3.6234
  168SAPE    HY18946   0.435   1.179   6.700 -3.1059  0.5031  0.3865
  168SAPE   O3118947   0.445   1.088   6.885 -0.5287  0.0442 -0.4859
  168SAPE   C3118948   0.361   1.020   6.965 -0.2758  0.5419 -0.7801
  168SAPE   O3218949   0.286   0.932   6.930  0.1065 -0.0029 -0.0949
  168SAPE   C3218950   0.395   1.054   7.111  0.3638  0.1504  0.2470
  168SAPE   H2X18951   0.384   1.164   7.117  2.9869  0.4878  0.4355
  168SAPE   H2Y18952   0.497   1.010   7.123 -0.4431 -1.7703  0.3736
  168SAPE   C2318953   0.623   0.530   6.827 -0.4661  0.3743 -0.3278
  168SAPE   H3R18954   0.703   0.576   6.889  0.0965  1.7961 -2.0174
  168SAPE   H3S18955   0.668   0.514   6.727 -0.2951 -0.8337 -0.0750
  168SAPE   C2418956   0.571   0.396   6.881  0.2791 -0.1653  0.2534
  168SAPE   H4R18957   0.482   0.373   6.818  0.6006 -2.1575  0.4671
  168SAPE   H4S18958   0.533   0.412   6.984  0.3017 -0.6733  0.3432
  168SAPE   C2518959   0.671   0.287   6.887  0.1059  0.9857 -0.4966
  168SAPE   H5R18960   0.779   0.304   6.896  0.5149 -0.9555 -1.1746
  168SAPE   C2618961   0.647   0.155   6.895  0.2586  0.5766 -0.2406
  168SAPE   H6R18962   0.740   0.098   6.911 -0.3662 -0.8006 -1.2921
  168SAPE   C2718963   0.521   0.072   6.896 -0.7143  0.1868 -0.6986
  168SAPE   H7R18964   0.476   0.082   6.795 -2.3425  0.6389  0.0346
  168SAPE   H7S18965   0.440   0.110   6.963 -1.7629 -1.0597 -1.2123
  168SAPE   C2818966   0.533  -0.084   6.917 -0.3690 -0.5251 -0.0066
  168SAPE   H8R18967   0.569  -0.133   6.826 -1.6445  1.3263 -1.5810
  168SAPE   C2918968   0.523  -0.158   7.030  0.0559 -0.3854 -0.3669
  168SAPE   H9R18969   0.535  -0.267   7.042 -3.5608 -0.8003  0.9627
  168SAPE  C21018970   0.487  -0.115   7.166  0.3872 -0.7429  0.2364
  168SAPE  H10R18971   0.381  -0.146   7.175  0.1650 -0.0895 -0.0991
  168SAPE  H10S18972   0.482  -0.004   7.175 -2.3495 -0.7928  0.0471
  168SAPE  C21118973   0.553  -0.182   7.281  0.0722  0.1519  0.4728
  168SAPE  H11R18974   0.522  -0.286   7.299 -1.6024  0.3731 -0.8162
  168SAPE  C21218975   0.647  -0.132   7.358 -0.0700 -0.6670  0.6369
  168SAPE  H12R18976   0.680  -0.196   7.441  1.4621  0.1567  0.7057
  168SAPE  C21318977   0.712   0.003   7.351  0.2111 -0.3300 -0.2306
  168SAPE  H13R18978   0.726   0.026   7.459 -0.4223 -1.3340  0.0678
  168SAPE  H13S18979   0.650   0.083   7.304  0.1246 -0.3669 -0.1780
  168SAPE  C21418980   0.837   0.002   7.267 -0.2702  0.5609  0.4560
  168SAPE  H14R18981   0.820  -0.000   7.159  0.3653 -1.4006  0.3610
  168SAPE  C21518982   0.959  -0.007   7.314 -0.1969  0.3819 -0.2584
  168SAPE  H15R18983   1.038   0.021   7.244  0.3167 -3.2926 -1.3345
  168SAPE  C21618984   0.996  -0.004   7.463  0.0601 -0.3920 -0.0193
  168SAPE  H16R18985   1.068  -0.087   7.478 -1.8447 -2.1127 -0.0384
  168SAPE  H16S18986   0.918   0.001   7.542  0.1866  0.4031  0.0628
  168SAPE  C21718987   1.066   0.129   7.488  0.4024  0.2267 -0.3264
  168SAPE  H17R18988   0.997   0.212   7.462 -1.3200 -1.0465 -0.0380
  168SAPE  H17S18989   1.162   0.135   7.434  0.2552  0.8287 -0.5238
  168SAPE  C21818990   1.103   0.139   7.634  0.4405  0.6505  0.2976
  168SAPE  H18R18991   1.161   0.046   7.655  1.6342  0.7281 -2.3123
  168SAPE  H18S18992   1.009   0.146   7.693 -0.2979  0.9810 -0.8833
  168SAPE  C21918993   1.199   0.249   7.671 -0.4866  0.8575 -0.2053
  168SAPE  H19R18994   1.148   0.343   7.639  0.7779  2.0455  1.1435
  168SAPE  H19S18995   1.298   0.238   7.621 -0.2582  1.6613  0.0571
  168SAPE  C22018996   1.225   0.254   7.821 -0.4992  0.0198  0.2455
  168SAPE  H20R18997   1.135   0.260   7.886 -0.9549  1.2720 -0.4654
  168SAPE  H20S18998   1.280   0.341   7.861  1.1626 -0.3669 -1.0926
  168SAPE  H20T18999   1.280   0.164   7.855  1.2802  0.6781 -0.7872
  168SAPE   C3319000   0.312   0.989   7.218 -0.5748  0.6482  0.3264
  168SAPE   H3X19001   0.337   0.881   7.211 -0.6225  0.5492  1.5093
  168SAPE   H3Y19002   0.205   1.007   7.194  0.0923  2.2015 -1.8835
  168SAPE   C3419003   0.345   1.032   7.358  0.3887  0.3729  0.3039
  168SAPE   H4X19004   0.308   1.136   7.369 -1.8096 -0.1682 -1.3941
  168SAPE   H4Y19005   0.451   1.033   7.393 -0.1033 -0.0797  1.9007
  168SAPE   C3519006   0.287   0.933   7.462  0.5522 -0.1339 -0.5969
  168SAPE   H5X19007   0.349   0.841   7.458 -0.9271 -1.1242 -2.2825
  168SAPE   H5Y19008   0.184   0.901   7.437  0.3549 -0.2308  0.3080
  168SAPE   C3619009   0.277   0.982   7.611  0.7562 -0.5212  0.0232
  168SAPE   H6X19010   0.188   1.048   7.607  0.9498 -0.1843  0.9734
  168SAPE   H6Y19011   0.368   1.040   7.637  0.4320  1.6095 -3.0492
  168SAPE   C3719012   0.260   0.868   7.712 -0.0239 -1.1550 -0.1633
  168SAPE   H7X19013   0.172   0.812   7.672 -1.4667  0.4774  0.6014
  168SAPE   H7Y19014   0.215   0.914   7.802 -0.7425  2.3062 -2.1105
  168SAPE   C3819015   0.393   0.795   7.738  0.3721 -0.6843  0.2974
  168SAPE   H8X19016   0.463   0.856   7.801 -0.3592 -0.4716  0.9230
  168SAPE   H8Y19017   0.441   0.751   7.649  0.9767 -0.5110  0.5259
  168SAPE   C3919018   0.381   0.676   7.836 -0.1122 -0.2308 -0.4478
  168SAPE   H9X19019   0.334   0.586   7.791  0.5957 -1.2550  0.7774
  168SAPE   H9Y19020   0.312   0.700   7.919 -0.3545  0.5737 -0.8817
  168SAPE  C31019021   0.523   0.629   7.899 -0.0571 -0.8651  0.3465
  168SAPE  H10X19022   0.580   0.719   7.930 -1.7623  0.9454 -1.4558
  168SAPE  H10Y19023   0.579   0.600   7.808  1.5413  1.6317  0.4416
  168SAPE  C31119024   0.501   0.530   8.010 -0.4622  0.1199  0.0775
  168SAPE  H11X19025   0.430   0.458   7.964 -0.9047 -1.0298  2.3991
  168SAPE  H11Y19026   0.446   0.590   8.086  1.0637 -0.5828  1.7963
  168SAPE  C31219027   0.630   0.473   8.070 -0.5770 -0.0489  1.0264
  168SAPE  H12X19028   0.697   0.554   8.106 -0.3764 -0.1042  0.7786
  168SAPE  H12Y19029   0.685   0.422   7.988  0.1586  0.1789  1.3727
  168SAPE  C31319030   0.603   0.380   8.189 -0.3701  0.3379  0.1072
  168SAPE  H13X19031   0.560   0.438   8.274  1.4193 -0.9891  1.9982
  168SAPE  H13Y19032   0.692   0.326   8.227 -0.5133  0.8043  1.1436
  168SAPE  C31419033   0.494   0.277   8.149  0.1476  0.3911  0.4269
  168SAPE  H14X19034   0.525   0.218   8.060  0.3901  0.0197  0.7516
  168SAPE  H14Y19035   0.393   0.312   8.120  0.8513  1.1911 -1.1373
  168SAPE  C31519036   0.475   0.187   8.271 -0.5224 -0.4299 -0.2981
  168SAPE  H15X19037   0.446   0.248   8.360  2.5325 -0.0288  0.5613
  168SAPE  H15Y19038   0.569   0.129   8.284  0.0197  0.2069 -1.2178
  168SAPE  C31619039   0.361   0.089   8.261  0.8515  0.0725  0.0169
  168SAPE  H16X19040   0.268   0.149   8.259 -1.0787 -2.7366 -0.7433
  168SAPE  H16Y19041   0.373   0.026   8.352 -0.6548 -1.8279 -1.0215
  168SAPE  C31719042   0.351  -0.012   8.144  0.0367  1.1383 -0.4098
  168SAPE  H17X19043   0.348   0.037   8.045 -1.3174  1.9391  0.0118
  168SAPE  H17Y19044   0.253  -0.060   8.164  0.2038  1.5163  1.4870
  168SAPE  C31819045   0.467  -0.104   8.150  0.0373  0.2400  0.3065
  168SAPE  H18X19046   0.465  -0.173   8.063 -1.7031  0.8406 -0.1623
  168SAPE  H18Y19047   0.458  -0.169   8.240  1.3810 -0.4167 -0.0023
  168SAPE  H18Z19048   0.565  -0.051   8.149  0.5632 -0.6099 -2.7558
  169SAPE     N19049   5.076   0.116   6.111 -0.5069  0.1073 -0.1320
  169SAPE   HN119050   5.108   0.154   6.019 -2.4511  4.2660  0.6685
  169SAPE   HN219051   5.150   0.150   6.175 -0.7038 -1.7063  1.1046
  169SAPE   HN319052   5.061   0.013   6.117  0.5455 -0.0901 -0.6777
  169SAPE   C1219053   4.954   0.189   6.142  0.2446  0.6072 -0.1081
  169SAPE  H12A19054   4.871   0.154   6.077 -0.5344  0.5964  0.8739
  169SAPE  H12B19055   4.969   0.297   6.121  0.8978  1.2212  2.9298
  169SAPE   C1119056   4.908   0.174   6.283 -0.2060 -0.5723 -0.4332
  169SAPE  H11A19057   4.891   0.065   6.291  2.8137 -1.2368 -1.5472
  169SAPE  H11B19058   4.822   0.240   6.305  0.4658  0.2702 -0.2552
  169SAPE     P19059   5.066   0.321   6.439  0.5336 -0.5622 -0.3929
  169SAPE   O1319060   5.210   0.330   6.407  0.3866  0.3471 -0.1380
  169SAPE   O1419061   4.971   0.426   6.378 -0.6739  0.1811 -0.0592
  169SAPE   O1219062   5.015   0.183   6.384  0.4888  0.0221  0.2863
  169SAPE   O1119063   5.049   0.319   6.597 -0.1259 -0.1309  0.0763
  169SAPE    C119064   4.920   0.268   6.647  0.1143 -0.0190 -0.5452
  169SAPE    HA19065   4.840   0.264   6.570  1.1623  2.3079 -1.8504
  169SAPE    HB19066   4.936   0.161   6.672 -0.4590 -0.2227 -1.0345
  169SAPE    C219067   4.860   0.346   6.761 -0.2632 -0.4259 -1.0507
  169SAPE    HS19068   4.872   0.455   6.743  0.6377 -0.5499 -1.2587
  169SAPE   O2119069   4.922   0.306   6.889  0.0605 -0.2697  0.0634
  169SAPE   C2119070   4.926   0.404   6.980 -0.0279 -0.7884 -0.3955
  169SAPE   O2219071   4.902   0.525   6.970  0.4237 -0.1559 -0.2436
  169SAPE   C2219072   4.964   0.350   7.120 -0.5551  0.2292 -0.1979
  169SAPE   H2R19073   4.911   0.255   7.145 -0.8416  0.8110  1.5573
  169SAPE   H2S19074   5.071   0.323   7.117 -0.3358  1.1716 -1.1531
  169SAPE    C319075   4.706   0.325   6.767 -0.0983  0.7304  0.1452
  169SAPE    HX19076   4.680   0.219   6.748  1.3324  0.6591 -1.7176
  169SAPE    HY19077   4.660   0.372   6.678 -1.5331  0.6162  0.7955
  169SAPE   O3119078   4.648   0.366   6.887  0.3686  0.0239  0.0999
  169SAPE   C3119079   4.549   0.451   6.878 -0.0581  0.6674 -1.0135
  169SAPE   O3219080   4.481   0.483   6.786 -0.0688 -0.3541  0.7022
  169SAPE   C3219081   4.520   0.484   7.026  0.5244 -1.3651  0.5382
  169SAPE   H2X19082   4.416   0.521   7.037  0.5464 -1.6015  1.6508
  169SAPE   H2Y19083   4.584   0.571   7.054  1.2223 -1.7003  0.0125
  169SAPE   C2319084   4.936   0.452   7.240  0.0187 -0.8655  0.6516
  169SAPE   H3R19085   4.829   0.482   7.246  0.3243  0.1921  1.0470
  169SAPE   H3S19086   4.993   0.540   7.201 -1.0105 -0.3334  0.3178
  169SAPE   C2419087   4.983   0.403   7.376 -0.1826  0.1183  0.0272
  169SAPE   H4R19088   5.090   0.373   7.368 -0.1624  0.2989 -0.4363
  169SAPE   H4S19089   4.940   0.305   7.404  0.0008 -0.6874 -2.2714
  169SAPE   C2519090   4.967   0.523   7.473 -0.5841  0.0750  0.0965
  169SAPE   H5R19091   4.923   0.614   7.430 -0.2267  1.1660  1.9451
  169SAPE   C2619092   4.994   0.523   7.605 -0.5113  0.4006 -0.7602
  169SAPE   H6R19093   4.966   0.608   7.668  1.1951  0.9223 -0.6494
  169SAPE   C2719094   5.047   0.407   7.679  0.4295  0.4541  0.3294
  169SAPE   H7R19095   5.057   0.321   7.609 -0.3734  2.4758 -2.4412
  169SAPE   H7S19096   4.966   0.384   7.752  0.3948 -1.8159 -0.3331
  169SAPE   C2819097   5.173   0.435   7.747 -0.1911 -0.9579 -0.2175
  169SAPE   H8R19098   5.258   0.470   7.686 -0.2753  1.3181  0.8872
  169SAPE   C2919099   5.194   0.414   7.879  0.5600  0.6124 -0.9450
  169SAPE   H9R19100   5.296   0.422   7.918  0.8936  1.3695 -1.9288
  169SAPE  C21019101   5.093   0.367   7.981 -0.1290  0.2075 -0.3154
  169SAPE  H10R19102   5.131   0.307   8.066 -1.4007  0.3466  0.3682
  169SAPE  H10S19103   5.058   0.277   7.926  0.8158  0.1321 -0.8181
  169SAPE  C21119104   4.974   0.458   8.014 -0.3067  0.4138 -1.0797
  169SAPE  H11R19105   4.935   0.524   7.935 -0.5092 -1.0092 -2.2027
  169SAPE  C21219106   4.917   0.459   8.139  0.1885 -0.0290  0.2715
  169SAPE  H12R19107   4.828   0.517   8.168 -0.2324 -0.7982  0.5217
  169SAPE  C21319108   4.967   0.381   8.253  0.6556 -0.0602  0.6153
  169SAPE  H13R19109   5.004   0.280   8.224  1.9353  0.5627  0.0184
  169SAPE  H13S19110   4.879   0.361   8.318  0.7488 -1.2855  0.3986
  169SAPE  C21419111   5.067   0.464   8.327 -0.4536 -0.3298 -0.3024
  169SAPE  H14R19112   5.060   0.572   8.312 -0.8439 -0.2810  0.2187
  169SAPE  C21519113   5.165   0.419   8.405  0.9332 -0.2639 -0.0164
  169SAPE  H15R19114   5.240   0.486   8.449 -0.5814  1.8065 -0.4483
  169SAPE  C21619115   5.186   0.270   8.429  0.0127  0.7017  1.0638
  169SAPE  H16R19116   5.278   0.244   8.373  0.0792  1.8663  0.6065
  169SAPE  H16S19117   5.109   0.211   8.376  1.6673  1.3359 -2.2942
  169SAPE  C21719118   5.180   0.235   8.578  0.2678 -0.4481 -0.1389
  169SAPE  H17R19119   5.104   0.286   8.641  1.4671 -0.2673  1.2279
  169SAPE  H17S19120   5.280   0.254   8.624  1.2044 -2.6751 -1.0540
  169SAPE  C21819121   5.146   0.081   8.595 -0.1609 -0.5463 -0.1747
  169SAPE  H18R19122   5.237   0.029   8.557  0.4863  0.6844 -0.3769
  169SAPE  H18S19123   5.050   0.069   8.541 -1.2798  1.9362  1.1068
  169SAPE  C21919124   5.135   0.042   8.739 -0.4383  0.1141  0.2798
  169SAPE  H19R19125   5.116   0.133   8.799  1.1267  1.0864 -0.6431
  169SAPE  H19S19126   5.230   0.003   8.781 -0.0011  0.9842  0.1115
  169SAPE  C22019127   5.008  -0.044   8.768  0.3835 -0.2296  0.0262
  169SAPE  H20R19128   4.976  -0.017   8.871  1.0538  2.6641 -0.4366
  169SAPE  H20S19129   5.022  -0.154   8.757 -1.6116 -0.3320 -2.3218
  169SAPE  H20T19130   4.929  -0.000   8.702 -0.7388  1.1576  2.1750
  169SAPE   C3319131   4.541   0.359   7.119 -0.2903  0.6284 -0.4165
  169SAPE   H3X19132   4.643   0.318   7.102 -0.4155  1.0105 -2.2250
  169SAPE   H3Y19133   4.459   0.293   7.081  0.0863 -0.0025 -0.1584
  169SAPE   C3419134   4.529   0.374   7.278 -0.0991 -0.3516  0.4745
  169SAPE   H4X19135   4.629   0.410   7.311 -0.9352  1.8094  0.8376
  169SAPE   H4Y19136   4.512   0.271   7.316 -1.4073 -0.8403 -1.3141
  169SAPE   C3519137   4.426   0.477   7.315 -0.0128 -0.4431 -0.4697
  169SAPE   H5X19138   4.331   0.451   7.263  0.0944 -0.2008 -0.7927
  169SAPE   H5Y19139   4.447   0.578   7.274  0.6130  1.1463  3.3529
  169SAPE   C3619140   4.395   0.502   7.465  0.2057  0.4875  0.1584
  169SAPE   H6X19141   4.380   0.405   7.516  1.6389 -0.2444 -0.7176
  169SAPE   H6Y19142   4.311   0.574   7.458  0.1399  0.3482 -0.6227
  169SAPE   C3719143   4.515   0.555   7.544  0.4664 -0.6377  0.3407
  169SAPE   H7X19144   4.554   0.645   7.491  0.5236 -0.5566  0.5202
  169SAPE   H7Y19145   4.607   0.492   7.543  0.7358 -0.2433 -0.1698
  169SAPE   C3819146   4.473   0.600   7.688 -0.2780  0.8120 -0.0044
  169SAPE   H8X19147   4.451   0.510   7.749 -1.2229  1.3917  0.5435
  169SAPE   H8Y19148   4.382   0.661   7.671 -0.0206  1.7701  1.7328
  169SAPE   C3919149   4.558   0.699   7.765 -0.4077 -0.0970 -0.3894
  169SAPE   H9X19150   4.584   0.793   7.712  0.5246 -1.0165 -1.6370
  169SAPE   H9Y19151   4.658   0.651   7.775 -0.8055 -0.5988  1.7407
  169SAPE  C31019152   4.511   0.729   7.913 -0.2602 -0.8250  0.3697
  169SAPE  H10X19153   4.596   0.779   7.966  0.5401  1.9048 -3.0669
  169SAPE  H10Y19154   4.490   0.633   7.963 -4.2513 -0.1682  0.2887
  169SAPE  C31119155   4.385   0.822   7.915  0.2121  0.2306  0.4463
  169SAPE  H11X19156   4.305   0.764   7.864  0.9576  0.4498 -1.0439
  169SAPE  H11Y19157   4.417   0.901   7.844  1.3544  1.5578  2.3460
  169SAPE  C31219158   4.332   0.874   8.053  0.3416  0.3243 -0.4463
  169SAPE  H12X19159   4.279   0.783   8.087 -0.0240 -0.4132 -2.7905
  169SAPE  H12Y19160   4.256   0.951   8.026  0.1819  0.4562  0.3702
  169SAPE  C31319161   4.443   0.918   8.155  0.0503  0.8514  0.0027
  169SAPE  H13X19162   4.512   0.982   8.097  1.1579  1.0372  1.4782
  169SAPE  H13Y19163   4.498   0.836   8.207  1.3264  1.7708  0.1531
  169SAPE  C31419164   4.379   1.001   8.263  0.8026 -0.1930  1.1469
  169SAPE  H14X19165   4.302   0.941   8.317  0.0397  0.8233  1.2125
  169SAPE  H14Y19166   4.337   1.091   8.213  1.1399 -0.2668  0.7362
  169SAPE  C31519167   4.471   1.052   8.371  0.3462  0.0789 -0.4700
  169SAPE  H15X19168   4.539   1.124   8.322 -0.1136 -0.3454 -1.7921
  169SAPE  H15Y19169   4.534   0.966   8.405 -1.0979 -0.9098 -0.1923
  169SAPE  C31619170   4.398   1.109   8.488 -0.3824 -0.5433 -0.1508
  169SAPE  H16X19171   4.350   1.022   8.539  0.7146 -1.8837 -1.3158
  169SAPE  H16Y19172   4.320   1.180   8.453  1.3298  1.8649  0.6200
  169SAPE  C31719173   4.496   1.185   8.585  0.2248  0.1808  0.4407
  169SAPE  H17X19174   4.426   1.232   8.657  0.6844  1.0515  0.3318
  169SAPE  H17Y19175   4.547   1.265   8.528 -1.2818 -0.9617 -2.7391
  169SAPE  C31819176   4.603   1.092   8.644  0.7408  0.1376  0.1918
  169SAPE  H18X19177   4.670   1.046   8.568  1.9255 -0.8727  1.7738
  169SAPE  H18Y19178   4.547   1.007   8.689 -1.8037  1.0612 -0.9994
  169SAPE  H18Z19179   4.659   1.162   8.709  1.1272 -0.9754  1.1033
  170SAPE     N19180   4.495   2.571   6.465 -0.3891 -0.3082 -0.2035
  170SAPE   HN119181   4.582   2.600   6.416 -0.2358 -0.1871  0.1320
  170SAPE   HN219182   4.477   2.468   6.458  0.5766 -0.4105 -1.5199
  170SAPE   HN319183   4.411   2.624   6.434  0.4002 -0.5788 -3.0589
  170SAPE   C1219184   4.513   2.601   6.617  0.0085  0.1285  0.4241
  170SAPE  H12A19185   4.594   2.529   6.642  1.0777  0.4794 -1.7133
  170SAPE  H12B19186   4.417   2.573   6.664  0.5893 -0.7410  1.1277
  170SAPE   C1119187   4.556   2.755   6.638  0.2371 -0.2873  0.3724
  170SAPE  H11A19188   4.552   2.772   6.748 -4.3070  3.5772 -0.0620
  170SAPE  H11B19189   4.474   2.817   6.595  0.0781 -0.2788  0.6871
  170SAPE     P19190   4.714   2.841   6.448 -0.1695 -0.0388  0.3113
  170SAPE   O1319191   4.852   2.904   6.437 -0.4230  0.4102 -0.3402
  170SAPE   O1419192   4.686   2.737   6.345 -0.4266  0.0666  0.5357
  170SAPE   O1219193   4.686   2.782   6.585 -0.0446 -0.2444  0.1151
  170SAPE   O1119194   4.615   2.959   6.432 -0.3268 -0.5344  0.1710
  170SAPE    C119195   4.643   3.094   6.462 -0.1498  0.5533 -0.4272
  170SAPE    HA19196   4.752   3.113   6.463  0.3371 -1.8798 -1.2541
  170SAPE    HB19197   4.602   3.164   6.386  0.5527  2.1538  0.6155
  170SAPE    C219198   4.583   3.139   6.600 -0.1301 -0.1815 -0.0276
  170SAPE    HS19199   4.604   3.246   6.621 -2.7744 -0.0247  2.4360
  170SAPE   O2119200   4.624   3.050   6.706 -0.0104 -0.1969  0.1483
  170SAPE   C2119201   4.735   3.076   6.765 -0.0049 -0.2392  0.4026
  170SAPE   O2219202   4.800   3.182   6.761 -0.0209 -0.0660  0.7482
  170SAPE   C2219203   4.782   2.955   6.833  0.1003  0.2220 -0.2105
  170SAPE   H2R19204   4.716   2.866   6.826  0.9339 -0.3636 -0.9818
  170SAPE   H2S19205   4.878   2.932   6.781  0.5692  1.9167 -0.1224
  170SAPE    C319206   4.432   3.135   6.597  0.1025 -0.1718  0.4776
  170SAPE    HX19207   4.413   3.027   6.579  0.0529  0.1720 -1.7644
  170SAPE    HY19208   4.385   3.188   6.511 -0.0177 -2.3808 -0.9132
  170SAPE   O3119209   4.374   3.170   6.731 -0.0258  0.2622 -0.2885
  170SAPE   C3119210   4.343   3.303   6.751 -0.0494  0.4151  0.0594
  170SAPE   O3219211   4.390   3.395   6.686 -0.2973 -0.3818  0.3151
  170SAPE   C3219212   4.235   3.320   6.864  0.3555 -0.1394  0.2194
  170SAPE   H2X19213   4.136   3.296   6.821  0.0479  1.6592 -0.1306
  170SAPE   H2Y19214   4.223   3.429   6.878  0.5115  0.0392 -0.9241
  170SAPE   C2319215   4.796   2.970   6.986  0.9966 -0.2823 -0.1922
  170SAPE   H3R19216   4.878   3.037   7.019  0.9805 -0.3231 -0.0713
  170SAPE   H3S19217   4.810   2.875   7.042 -1.1706 -0.2040  0.5910
  170SAPE   C2419218   4.669   3.031   7.052  0.3518 -0.1997 -0.2589
  170SAPE   H4R19219   4.660   3.138   7.025 -0.1680  0.5105  2.4508
  170SAPE   H4S19220   4.679   3.030   7.162  2.0148  0.2125 -0.3902
  170SAPE   C2519221   4.540   2.960   7.005  0.7058 -0.5490 -0.4896
  170SAPE   H5R19222   4.510   2.978   6.900 -1.6758  1.7654  0.4734
  170SAPE   C2619223   4.457   2.881   7.070  0.1608 -0.1493 -0.0511
  170SAPE   H6R19224   4.369   2.837   7.021 -0.1732 -1.6801  1.8041
  170SAPE   C2719225   4.471   2.836   7.219  0.0758  0.8062  0.3704
  170SAPE   H7R19226   4.550   2.893   7.272  0.7543  0.1257  0.1142
  170SAPE   H7S19227   4.502   2.729   7.223 -2.8182 -0.0694  1.8829
  170SAPE   C2819228   4.345   2.835   7.302 -0.0789  0.3618 -0.6153
  170SAPE   H8R19229   4.250   2.842   7.248 -0.8473 -1.6027  0.3930
  170SAPE   C2919230   4.338   2.855   7.432 -0.1733 -0.1055 -0.6509
  170SAPE   H9R19231   4.239   2.868   7.480  0.5255  0.0669  0.8046
  170SAPE  C21019232   4.459   2.885   7.518 -0.2066  0.1053  0.2052
  170SAPE  H10R19233   4.433   2.928   7.617 -1.8436 -0.4882  0.0530
  170SAPE  H10S19234   4.519   2.967   7.472 -0.0742 -0.8915 -1.4995
  170SAPE  C21119235   4.548   2.760   7.532 -0.1171  0.1497  0.1171
  170SAPE  H11R19236   4.495   2.666   7.552  2.6985 -1.8430 -1.1770
  170SAPE  C21219237   4.680   2.748   7.514 -0.3615 -0.6540  0.6291
  170SAPE  H12R19238   4.718   2.647   7.535 -0.8725 -1.2304 -1.0690
  170SAPE  C21319239   4.775   2.862   7.466 -0.9288  0.0045 -0.5608
  170SAPE  H13R19240   4.856   2.870   7.541 -1.3668 -2.8308  0.3521
  170SAPE  H13S19241   4.729   2.961   7.448 -0.8618  0.3693  1.1598
  170SAPE  C21419242   4.844   2.828   7.335  0.5861  0.0602  0.2246
  170SAPE  H14R19243   4.790   2.760   7.268  2.9723 -0.7189 -1.0084
  170SAPE  C21519244   4.963   2.869   7.296  0.3556  0.1942 -0.6072
  170SAPE  H15R19245   5.000   2.828   7.201  1.1591  1.1217 -0.7185
  170SAPE  C21619246   5.052   2.973   7.364 -0.3139 -0.3076  0.3125
  170SAPE  H16R19247   5.136   2.931   7.423  1.5945  1.2950 -1.1401
  170SAPE  H16S19248   4.997   3.041   7.432 -0.5732  0.1924 -0.3767
  170SAPE  C21719249   5.111   3.060   7.251 -0.3481  0.0239  0.8611
  170SAPE  H17R19250   5.031   3.103   7.186 -1.3818  1.1272  2.7793
  170SAPE  H17S19251   5.167   2.992   7.184 -0.6356 -1.0836  1.7134
  170SAPE  C21819252   5.200   3.172   7.303 -0.8625  0.4845 -0.4293
  170SAPE  H18R19253   5.149   3.242   7.373  1.1557 -0.6253  2.3544
  170SAPE  H18S19254   5.233   3.226   7.212 -0.6860  1.2298  0.0617
  170SAPE  C21919255   5.314   3.113   7.384 -1.1072 -0.3528 -0.6204
  170SAPE  H19R19256   5.346   3.021   7.331  2.3501 -0.0888  0.7707
  170SAPE  H19S19257   5.269   3.076   7.478 -1.1821 -2.1223 -1.3062
  170SAPE  C22019258   5.428   3.212   7.403  0.2171 -0.4970  0.2007
  170SAPE  H20R19259   5.473   3.251   7.309  0.0583 -0.2661  0.2200
  170SAPE  H20S19260   5.513   3.167   7.459  0.6319 -0.2616 -0.2365
  170SAPE  H20T19261   5.396   3.295   7.470  1.1941 -0.7883  1.0648
  170SAPE   C3319262   4.274   3.257   7.003  0.2123  0.3777  0.2508
  170SAPE   H3X19263   4.297   3.153   6.972 -2.4108 -0.8045  1.9401
  170SAPE   H3Y19264   4.174   3.242   7.050  0.1546 -2.8879 -0.6674
  170SAPE   C3419265   4.384   3.325   7.089  0.6917  0.3962  0.7038
  170SAPE   H4X19266   4.372   3.435   7.095  0.3501  0.5440 -1.6022
  170SAPE   H4Y19267   4.478   3.323   7.030 -1.2220 -1.1343 -2.5765
  170SAPE   C3519268   4.401   3.255   7.221  0.0132 -0.2803  1.0465
  170SAPE   H5X19269   4.501   3.273   7.265  0.2697 -1.4149  0.9759
  170SAPE   H5Y19270   4.391   3.150   7.187 -2.0651  0.8395 -2.2400
  170SAPE   C3619271   4.288   3.299   7.311 -0.2622  0.1206  0.6701
  170SAPE   H6X19272   4.187   3.282   7.268  0.1505  0.9158 -0.6980
  170SAPE   H6Y19273   4.300   3.409   7.323  1.5171  0.0627 -0.1799
  170SAPE   C3719274   4.279   3.238   7.451  0.4760 -0.0930  0.1842
  170SAPE   H7X19275   4.363   3.272   7.516  0.0006 -1.7687  1.7419
  170SAPE   H7Y19276   4.290   3.128   7.450 -1.2575 -0.2968  0.3459
  170SAPE   C3819277   4.150   3.265   7.534 -0.4406 -0.0759 -0.0239
  170SAPE   H8X19278   4.061   3.229   7.479  0.6144 -2.1095 -0.4717
  170SAPE   H8Y19279   4.132   3.373   7.554 -2.0482 -0.3070 -0.1089
  170SAPE   C3919280   4.152   3.194   7.675 -0.5830 -0.6426  1.2877
  170SAPE   H9X19281   4.138   3.087   7.652  2.6734 -0.6366 -1.4543
  170SAPE   H9Y19282   4.063   3.231   7.731 -1.5461 -2.3438  0.9536
  170SAPE  C31019283   4.282   3.209   7.753  0.4064  0.0287 -0.4672
  170SAPE  H10X19284   4.323   3.312   7.761  1.1549 -0.3837  2.1279
  170SAPE  H10Y19285   4.372   3.162   7.707  2.0602  1.1930  1.4304
  170SAPE  C31119286   4.266   3.156   7.894 -0.5055 -0.1464 -0.0254
  170SAPE  H11X19287   4.259   3.047   7.877 -0.4360  0.0035 -1.1178
  170SAPE  H11Y19288   4.168   3.193   7.930 -1.0215 -1.6231  0.1447
  170SAPE  C31219289   4.376   3.206   7.993  0.0440 -0.0173  0.4284
  170SAPE  H12X19290   4.361   3.174   8.098  3.7099 -0.7991  0.8568
  170SAPE  H12Y19291   4.377   3.317   7.987  0.0315  0.1514  2.7369
  170SAPE  C31319292   4.517   3.153   7.951 -0.1626  0.3298 -0.2612
  170SAPE  H13X19293   4.593   3.202   8.017  0.0949 -1.3586  0.7407
  170SAPE  H13Y19294   4.538   3.171   7.844  1.1414 -0.0809 -0.0953
  170SAPE  C31419295   4.536   3.002   7.989  0.2161  0.0902  0.2543
  170SAPE  H14X19296   4.452   2.943   7.947  0.6659 -0.2278 -0.2238
  170SAPE  H14Y19297   4.539   2.981   8.098  0.6004  0.2745  0.2822
  170SAPE  C31519298   4.667   2.943   7.922  0.6137 -0.5549 -0.2168
  170SAPE  H15X19299   4.753   3.009   7.944  0.1024 -0.1112  0.5279
  170SAPE  H15Y19300   4.661   2.937   7.812 -1.5648  3.2437 -0.4935
  170SAPE  C31619301   4.703   2.796   7.975  0.1424  0.0913  0.7216
  170SAPE  H16X19302   4.630   2.726   7.930  1.5398 -2.6331  2.4566
  170SAPE  H16Y19303   4.695   2.795   8.086 -1.6392  0.6814  0.6382
  170SAPE  C31719304   4.835   2.754   7.920 -0.0283  0.0342  0.3309
  170SAPE  H17X19305   4.913   2.831   7.940 -0.6486  0.8302 -0.2269
  170SAPE  H17Y19306   4.829   2.758   7.809  0.0425 -1.1091  0.2765
  170SAPE  C31819307   4.880   2.616   7.961  0.3195  0.0425 -0.3368
  170SAPE  H18X19308   4.990   2.616   7.952  0.5078  0.1720  1.6277
  170SAPE  H18Y19309   4.836   2.544   7.889  2.0820 -0.1195 -1.2964
  170SAPE  H18Z19310   4.853   2.589   8.065 -0.9880 -1.1580 -0.9485
  171SAPE     N19311   0.242   6.718   6.447  0.5898 -0.4826 -0.1910
  171SAPE   HN119312   0.310   6.674   6.381  0.6427 -0.7043  0.0121
  171SAPE   HN219313   0.156   6.757   6.404  0.7863  1.4500  1.0643
  171SAPE   HN319314   0.282   6.806   6.484  0.2988  0.2615 -1.5871
  171SAPE   C1219315   0.212   6.623   6.557  0.1310  0.1667 -0.1252
  171SAPE  H12A19316   0.155   6.538   6.513  0.7449  0.1382 -0.8772
  171SAPE  H12B19317   0.144   6.678   6.625  0.5007  1.2008 -0.5732
  171SAPE   C1119318   0.343   6.583   6.616  0.1176  0.4450  0.2963
  171SAPE  H11A19319   0.315   6.506   6.692  0.2115  1.1962  1.1168
  171SAPE  H11B19320   0.401   6.656   6.677  0.1853 -0.7124  1.6642
  171SAPE     P19321   0.574   6.473   6.537 -0.4010 -0.1604 -0.0558
  171SAPE   O1319322   0.610   6.371   6.435  0.1713 -0.5772 -0.3894
  171SAPE   O1419323   0.657   6.597   6.538 -0.6145  0.6069  0.0486
  171SAPE   O1219324   0.424   6.510   6.519  0.3261 -0.0560 -0.5333
  171SAPE   O1119325   0.604   6.413   6.682 -0.0653  0.2785  0.2136
  171SAPE    C119326   0.571   6.287   6.736 -0.2698 -0.1694 -1.3984
  171SAPE    HA19327   0.539   6.306   6.840  1.0187 -1.3795 -0.7558
  171SAPE    HB19328   0.486   6.236   6.686 -0.8768 -0.2573 -0.3000
  171SAPE    C219329   0.691   6.188   6.749 -0.0246 -0.3419 -0.5607
  171SAPE    HS19330   0.661   6.093   6.797 -0.4410  0.3023  0.4811
  171SAPE   O2119331   0.792   6.257   6.824  0.2593  0.2279 -0.2072
  171SAPE   C2119332   0.778   6.253   6.954 -1.0269  0.3228  0.2544
  171SAPE   O2219333   0.683   6.212   7.017 -0.0895 -0.3548  0.0188
  171SAPE   C2219334   0.907   6.317   7.015 -0.6299  0.7560 -0.0257
  171SAPE   H2R19335   0.990   6.258   6.969 -1.6780 -1.2587  0.5615
  171SAPE   H2S19336   0.914   6.421   6.975  1.6744  0.4115 -0.6984
  171SAPE    C319337   0.743   6.138   6.610  0.4012 -0.4481 -0.0037
  171SAPE    HX19338   0.780   6.228   6.557  1.2954 -0.9198 -0.2027
  171SAPE    HY19339   0.659   6.105   6.545 -0.4489  0.9113  0.3625
  171SAPE   O3119340   0.834   6.030   6.625  0.5503 -0.0301  0.5877
  171SAPE   C3119341   0.965   6.056   6.645 -0.5038 -0.6403  1.2079
  171SAPE   O3219342   1.022   6.163   6.639  0.1136  0.0940  0.4242
  171SAPE   C3219343   1.033   5.920   6.678  0.4686  0.7189  0.4555
  171SAPE   H2X19344   1.122   5.925   6.612 -0.1228 -0.5725 -0.4699
  171SAPE   H2Y19345   0.969   5.839   6.637  1.5611  1.5351 -3.2396
  171SAPE   C2319346   0.903   6.297   7.167  0.1446  0.1546 -0.3875
  171SAPE   H3R19347   0.863   6.199   7.199  0.2447  0.0721 -0.5126
  171SAPE   H3S19348   0.830   6.366   7.214  1.1020 -0.0236  1.4812
  171SAPE   C2419349   1.043   6.307   7.232 -0.2576 -0.3293  0.2592
  171SAPE   H4R19350   1.084   6.409   7.222  2.6965 -1.5921 -2.0138
  171SAPE   H4S19351   1.107   6.235   7.177  0.6441 -1.3771  2.5480
  171SAPE   C2519352   1.044   6.270   7.380 -0.1443 -0.1580  0.2956
  171SAPE   H5R19353   0.948   6.264   7.433  0.4509 -2.3822  1.2472
  171SAPE   C2619354   1.156   6.225   7.446  0.3192  0.2937  0.8699
  171SAPE   H6R19355   1.154   6.220   7.556  1.2317  0.4778  0.9056
  171SAPE   C2719356   1.297   6.208   7.386  0.0713 -0.5472  0.4123
  171SAPE   H7R19357   1.383   6.259   7.435  0.3924 -0.3755 -0.3181
  171SAPE   H7S19358   1.305   6.265   7.291  2.1883  1.5488  1.7402
  171SAPE   C2819359   1.335   6.065   7.363 -0.1698 -0.3738  0.2879
  171SAPE   H8R19360   1.337   6.037   7.257  0.4847  0.0718  0.1768
  171SAPE   C2919361   1.379   5.975   7.458 -0.0735  0.2729  0.2755
  171SAPE   H9R19362   1.411   5.874   7.432 -2.2147 -0.3542 -0.1454
  171SAPE  C21019363   1.393   5.996   7.606 -0.0603  0.3172 -0.0470
  171SAPE  H10R19364   1.407   6.105   7.622  2.0850  0.5290 -2.5583
  171SAPE  H10S19365   1.490   5.950   7.637  1.8707  2.2361 -2.7060
  171SAPE  C21119366   1.285   5.939   7.698 -0.2636 -0.0922 -0.5328
  171SAPE  H11R19367   1.210   5.886   7.638 -0.0604  1.4412 -2.2493
  171SAPE  C21219368   1.260   5.962   7.828 -1.0021  0.3410 -0.0606
  171SAPE  H12R19369   1.183   5.894   7.867  0.0055 -0.5875  0.3430
  171SAPE  C21319370   1.343   6.042   7.925  0.5053 -0.2809 -0.1639
  171SAPE  H13R19371   1.436   6.068   7.870  0.1081 -0.0223 -0.7277
  171SAPE  H13S19372   1.362   5.991   8.021 -1.1247  1.0624  0.9297
  171SAPE  C21419373   1.271   6.175   7.955  0.1945 -0.4499  0.7496
  171SAPE  H14R19374   1.261   6.243   7.868 -0.9573  0.1730  1.3460
  171SAPE  C21519375   1.231   6.214   8.075  0.3434  0.3778  0.4767
  171SAPE  H15R19376   1.166   6.301   8.093 -0.4114 -0.0492 -0.1014
  171SAPE  C21619377   1.248   6.140   8.210  0.2425 -0.4828  0.5648
  171SAPE  H16R19378   1.281   6.036   8.193  3.2032  0.5699 -0.7763
  171SAPE  H16S19379   1.153   6.134   8.268 -2.6697  2.8093 -3.3292
  171SAPE  C21719380   1.378   6.185   8.279  0.2512 -0.2974 -0.0822
  171SAPE  H17R19381   1.375   6.295   8.294  0.6715 -0.5390  2.1525
  171SAPE  H17S19382   1.459   6.160   8.207  0.1291  1.6833 -0.9873
  171SAPE  C21819383   1.397   6.117   8.417 -0.4277 -0.2084 -0.8102
  171SAPE  H18R19384   1.413   6.011   8.386 -0.0520 -0.3121 -0.2747
  171SAPE  H18S19385   1.299   6.132   8.468  0.3124  1.3565  0.2377
  171SAPE  C21919386   1.506   6.173   8.512  0.5406 -0.1604 -0.0738
  171SAPE  H19R19387   1.602   6.191   8.459  0.2733  1.7059 -0.0038
  171SAPE  H19S19388   1.523   6.093   8.588  0.0334 -0.9582 -0.7783
  171SAPE  C22019389   1.460   6.313   8.574  1.0212  0.1217  0.2913
  171SAPE  H20R19390   1.364   6.314   8.629  0.9396 -1.1643  0.1848
  171SAPE  H20S19391   1.461   6.389   8.493 -1.1513  0.8755  0.8881
  171SAPE  H20T19392   1.548   6.337   8.638  2.4782 -0.1957 -1.4976
  171SAPE   C3319393   1.063   5.915   6.825 -0.3360  0.0614  0.1528
  171SAPE   H3X19394   1.129   6.003   6.839  1.0015 -0.0898 -3.9110
  171SAPE   H3Y19395   1.130   5.830   6.848 -1.6009 -0.9563  0.1964
  171SAPE   C3419396   0.943   5.892   6.913  0.1295 -0.3800 -0.2221
  171SAPE   H4X19397   0.917   5.785   6.900  2.1214 -0.8641 -0.5896
  171SAPE   H4Y19398   0.850   5.947   6.885 -0.2385 -0.5367  0.6572
  171SAPE   C3519399   0.979   5.937   7.056  0.5444 -0.3124  0.1839
  171SAPE   H5X19400   0.987   6.048   7.057 -1.4167 -0.1239 -0.4794
  171SAPE   H5Y19401   1.081   5.897   7.068  1.2656  0.8837 -1.6139
  171SAPE   C3619402   0.885   5.885   7.160 -0.1132  1.5140 -0.0129
  171SAPE   H6X19403   0.878   5.776   7.139 -0.8809  1.6138 -0.2922
  171SAPE   H6Y19404   0.785   5.927   7.135 -0.2427  0.5352 -1.2078
  171SAPE   C3719405   0.923   5.915   7.312  0.0171 -0.4097  0.5778
  171SAPE   H7X19406   0.931   6.026   7.302  1.5029 -0.7135 -4.3973
  171SAPE   H7Y19407   1.029   5.883   7.323  0.8670  1.2075 -1.8948
  171SAPE   C3819408   0.849   5.837   7.417  0.4632 -0.1419 -0.3396
  171SAPE   H8X19409   0.874   5.729   7.406 -0.0021 -0.3173  0.2525
  171SAPE   H8Y19410   0.742   5.850   7.390  0.3916 -2.9333 -1.8190
  171SAPE   C3919411   0.887   5.871   7.553  0.0989 -0.1049 -0.6362
  171SAPE   H9X19412   0.882   5.981   7.564  1.1221 -0.3083  4.4596
  171SAPE   H9Y19413   0.994   5.848   7.572  0.0641  0.7881  0.7836
  171SAPE  C31019414   0.801   5.790   7.665  0.3791 -0.1476  0.5419
  171SAPE  H10X19415   0.807   5.681   7.644 -0.0805  0.1628 -1.3797
  171SAPE  H10Y19416   0.699   5.820   7.633 -0.6607 -1.4124  2.4347
  171SAPE  C31119417   0.852   5.823   7.810  0.2326  0.5168  0.4923
  171SAPE  H11X19418   0.963   5.819   7.811  0.3077  1.2738 -1.1730
  171SAPE  H11Y19419   0.804   5.754   7.884  2.6937  0.3289  2.0168
  171SAPE  C31219420   0.812   5.963   7.863 -0.4931 -0.4490 -0.3578
  171SAPE  H12X19421   0.702   5.975   7.861 -0.4446 -0.0229 -2.1433
  171SAPE  H12Y19422   0.853   6.044   7.798 -3.4265  2.6329  1.2866
  171SAPE  C31319423   0.867   5.987   8.002 -0.1551 -0.6162 -0.5579
  171SAPE  H13X19424   0.794   6.057   8.048 -2.4463 -2.0528 -1.8351
  171SAPE  H13Y19425   0.969   6.030   7.997 -0.1559 -0.3430  1.1450
  171SAPE  C31419426   0.864   5.866   8.097  0.2800 -0.3196  0.7486
  171SAPE  H14X19427   0.946   5.794   8.078  1.5913  1.4216 -0.4910
  171SAPE  H14Y19428   0.769   5.814   8.071 -0.7764  2.4014 -1.3334
  171SAPE  C31519429   0.876   5.894   8.250 -0.0614  0.3877 -0.1479
  171SAPE  H15X19430   0.789   5.953   8.287  0.2254  0.0011  1.2072
  171SAPE  H15Y19431   0.964   5.956   8.278  0.4856 -0.6130  0.4266
  171SAPE  C31619432   0.877   5.759   8.330  0.4110 -0.5153  0.0637
  171SAPE  H16X19433   0.966   5.699   8.299 -0.1925 -2.1226  1.3288
  171SAPE  H16Y19434   0.787   5.702   8.298 -0.1258  0.2119  0.2688
  171SAPE  C31719435   0.862   5.783   8.476  0.2156 -0.1691 -0.7097
  171SAPE  H17X19436   0.772   5.845   8.492  1.9569  2.0452  1.2744
  171SAPE  H17Y19437   0.944   5.853   8.505 -1.5830  2.1886 -0.9779
  171SAPE  C31819438   0.867   5.664   8.571  0.2789  0.0848  0.4248
  171SAPE  H18X19439   0.771   5.609   8.570  0.4496 -0.3547  2.8278
  171SAPE  H18Y19440   0.880   5.695   8.677 -3.2074  1.4306  0.5983
  171SAPE  H18Z19441   0.949   5.598   8.537  0.9990  2.1437 -2.2652
  172SAPE     N19442   6.624   5.708   6.323  0.3589  0.4562 -0.1996
  172SAPE   HN119443   6.640   5.668   6.418  1.9004 -0.8650 -0.9700
  172SAPE   HN219444   6.720   5.682   6.293  0.6476 -0.3286  1.2831
  172SAPE   HN319445   6.625   5.811   6.331  1.8823  0.3643  1.4923
  172SAPE   C1219446   6.504   5.663   6.244 -0.3689 -0.1777  0.5673
  172SAPE  H12A19447   6.508   5.729   6.155 -3.1309  1.0453  1.2508
  172SAPE  H12B19448   6.411   5.690   6.297 -2.4682 -1.7029 -2.0947
  172SAPE   C1119449   6.517   5.511   6.216  0.2615 -0.3619  0.3952
  172SAPE  H11A19450   6.617   5.487   6.173  0.3694 -1.3744  1.1536
  172SAPE  H11B19451   6.442   5.485   6.139  0.8313 -0.4469 -0.1357
  172SAPE     P19452   6.431   5.302   6.350 -0.3287 -0.3841 -0.2355
  172SAPE   O1319453   6.303   5.326   6.274 -0.2477  0.2430 -0.1816
  172SAPE   O1419454   6.507   5.182   6.321  0.0732 -0.1434 -0.3388
  172SAPE   O1219455   6.509   5.435   6.335  0.0867  0.8069  0.5349
  172SAPE   O1119456   6.393   5.297   6.496 -0.2148 -0.2178  0.3968
  172SAPE    C119457   6.407   5.393   6.603  0.0669 -0.1062  0.0734
  172SAPE    HA19458   6.397   5.345   6.703 -0.8229 -0.2250 -0.0644
  172SAPE    HB19459   6.510   5.434   6.601  0.0937 -0.1836 -0.3361
  172SAPE    C219460   6.305   5.505   6.590 -0.9635  0.1920  0.3727
  172SAPE    HS19461   6.320   5.548   6.489  1.6125 -3.8610 -1.1939
  172SAPE   O2119462   6.325   5.597   6.692  0.3915 -0.5007 -0.1642
  172SAPE   C2119463   6.432   5.676   6.665  0.4497 -0.0220  0.5311
  172SAPE   O2219464   6.485   5.684   6.556 -0.3971  0.6802  0.7658
  172SAPE   C2219465   6.482   5.744   6.792  0.0568  0.1904 -0.3398
  172SAPE   H2R19466   6.460   5.853   6.798  1.4082  0.4564  0.1922
  172SAPE   H2S19467   6.430   5.699   6.879  0.5143  1.0473  0.4082
  172SAPE    C319468   6.155   5.452   6.588 -0.0338  0.4387 -0.1835
  172SAPE    HX19469   6.155   5.366   6.517  1.4261  3.3381 -4.0190
  172SAPE    HY19470   6.099   5.541   6.553 -0.1525  0.3942 -0.1103
  172SAPE   O3119471   6.109   5.404   6.712  0.1089  0.1989  0.6955
  172SAPE   C3119472   6.055   5.491   6.793  0.1458  0.1785 -0.1292
  172SAPE   O3219473   6.016   5.604   6.764 -0.4005 -0.1887  0.2405
  172SAPE   C3219474   6.029   5.425   6.927 -0.5046 -0.0154  0.2244
  172SAPE   H2X19475   6.128   5.412   6.976 -1.3215 -0.6678  1.7886
  172SAPE   H2Y19476   5.987   5.324   6.912 -1.0395  0.0028  1.4594
  172SAPE   C2319477   6.633   5.730   6.805 -0.0301 -0.5774  0.3164
  172SAPE   H3R19478   6.681   5.790   6.725 -0.4675  0.5773  0.9078
  172SAPE   H3S19479   6.664   5.626   6.782  1.6171 -0.2000  0.7094
  172SAPE   C2419480   6.675   5.758   6.955  0.4108 -0.1822 -0.5632
  172SAPE   H4R19481   6.786   5.750   6.959  0.5045  1.2910  1.6225
  172SAPE   H4S19482   6.631   5.685   7.026  1.3303 -2.7655 -2.4930
  172SAPE   C2519483   6.640   5.900   6.991  0.2968  0.7874  0.2507
  172SAPE   H5R19484   6.674   5.987   6.933  0.7585  0.1803 -0.4087
  172SAPE   C2619485   6.564   5.931   7.097  0.1278 -0.1194 -0.2886
  172SAPE   H6R19486   6.535   6.037   7.106  0.2288  0.2770 -3.6166
  172SAPE   C2719487   6.486   5.836   7.196 -0.2492  0.1263 -0.2629
  172SAPE   H7R19488   6.443   5.744   7.152 -0.1720 -0.0473  0.0251
  172SAPE   H7S19489   6.395   5.892   7.226 -2.8241 -3.7299 -0.2284
  172SAPE   C2819490   6.565   5.794   7.317 -0.5392  0.6243  0.2924
  172SAPE   H8R19491   6.610   5.694   7.304 -1.5816  0.2719 -0.7349
  172SAPE   C2919492   6.584   5.866   7.429 -0.6598  0.1102  0.0905
  172SAPE   H9R19493   6.660   5.824   7.497  2.3980  3.5880 -0.8340
  172SAPE  C21019494   6.537   6.003   7.468  0.2886  0.0271  0.0401
  172SAPE  H10R19495   6.456   5.995   7.543  0.3035 -0.6590 -0.0133
  172SAPE  H10S19496   6.494   6.054   7.379 -1.0257 -2.4669 -0.8711
  172SAPE  C21119497   6.641   6.086   7.541 -0.4834 -0.0081  0.0242
  172SAPE  H11R19498   6.728   6.101   7.476 -0.1898 -1.9149 -0.0819
  172SAPE  C21219499   6.643   6.138   7.669  0.3393  0.0776 -0.5280
  172SAPE  H12R19500   6.737   6.184   7.702  0.2761 -0.4165  0.3731
  172SAPE  C21319501   6.543   6.136   7.784 -0.1679 -0.0165  0.2791
  172SAPE  H13R19502   6.569   6.054   7.855  3.5404 -0.4320 -1.3399
  172SAPE  H13S19503   6.448   6.113   7.731  0.9258 -0.8734 -1.4001
  172SAPE  C21419504   6.529   6.269   7.856  0.3063 -0.6715 -0.3094
  172SAPE  H14R19505   6.486   6.348   7.791 -0.6221 -0.2391  0.8073
  172SAPE  C21519506   6.557   6.303   7.985 -0.3619 -0.2210 -0.3538
  172SAPE  H15R19507   6.551   6.406   8.025  1.6677 -0.1566 -0.0943
  172SAPE  C21619508   6.617   6.203   8.081  0.0339  0.6297 -0.4269
  172SAPE  H16R19509   6.726   6.182   8.075  0.0927 -0.3768  2.5956
  172SAPE  H16S19510   6.571   6.104   8.058 -0.9662  0.7098  1.0463
  172SAPE  C21719511   6.585   6.229   8.232 -0.1302  0.7861  0.5654
  172SAPE  H17R19512   6.588   6.130   8.281  2.2307 -0.2537 -1.4799
  172SAPE  H17S19513   6.480   6.263   8.244 -0.6762 -0.4266 -0.5110
  172SAPE  C21819514   6.677   6.341   8.284  0.2337  0.2398  0.0430
  172SAPE  H18R19515   6.655   6.415   8.204 -0.4361  0.7658  0.7000
  172SAPE  H18S19516   6.782   6.308   8.269 -0.1938 -0.7428 -0.9037
  172SAPE  C21919517   6.653   6.383   8.426  0.3219 -0.1486 -0.3080
  172SAPE  H19R19518   6.702   6.302   8.485 -2.3683  0.2947  2.8605
  172SAPE  H19S19519   6.546   6.379   8.455  0.3742 -2.2036 -0.2643
  172SAPE  C22019520   6.702   6.516   8.480 -0.6704 -0.1191 -0.2164
  172SAPE  H20R19521   6.651   6.599   8.427  1.2673  0.1205 -1.8590
  172SAPE  H20S19522   6.808   6.541   8.455 -1.2420  0.7221 -1.9749
  172SAPE  H20T19523   6.687   6.533   8.589 -1.7397 -1.2809 -0.1668
  172SAPE   C3319524   5.916   5.486   7.010  0.0976 -0.4886 -0.9489
  172SAPE   H3X19525   5.823   5.496   6.950 -0.6354 -1.5401 -0.0344
  172SAPE   H3Y19526   5.950   5.588   7.039 -0.4943 -0.8164  1.0288
  172SAPE   C3419527   5.886   5.415   7.146 -0.2842  0.5394 -0.4012
  172SAPE   H4X19528   5.975   5.399   7.210 -0.9682 -0.4482  0.3340
  172SAPE   H4Y19529   5.833   5.318   7.135 -2.9723  1.6745  1.6147
  172SAPE   C3519530   5.799   5.506   7.238 -0.0853 -0.0112  0.7184
  172SAPE   H5X19531   5.697   5.520   7.197 -0.9899 -2.2991  1.9957
  172SAPE   H5Y19532   5.844   5.607   7.245  0.8215 -0.2551 -0.9819
  172SAPE   C3619533   5.767   5.440   7.373 -0.0445  0.2652  0.7722
  172SAPE   H6X19534   5.698   5.355   7.355  2.4260 -1.7294  0.2010
  172SAPE   H6Y19535   5.708   5.519   7.424 -0.8210 -0.8148  1.6062
  172SAPE   C3719536   5.887   5.403   7.458 -0.1432  0.5047  0.1041
  172SAPE   H7X19537   5.957   5.485   7.433  0.3755 -0.6932 -2.7265
  172SAPE   H7Y19538   5.932   5.309   7.419 -0.6186  0.7585 -1.0845
  172SAPE   C3819539   5.860   5.386   7.609  0.0764 -0.1059  0.1320
  172SAPE   H8X19540   5.769   5.324   7.624 -0.7061  0.5908 -1.5391
  172SAPE   H8Y19541   5.831   5.488   7.642 -1.6525 -0.6718  0.4401
  172SAPE   C3919542   5.978   5.334   7.691 -0.2362 -0.0379  0.6847
  172SAPE   H9X19543   6.067   5.394   7.661 -0.4272 -0.0190  0.1427
  172SAPE   H9Y19544   5.986   5.227   7.664 -0.3149 -0.8235  3.4659
  172SAPE  C31019545   5.958   5.330   7.841 -0.1868  0.2578  0.3927
  172SAPE  H10X19546   6.032   5.262   7.889 -1.1786 -0.0936  1.4608
  172SAPE  H10Y19547   5.857   5.286   7.851 -0.9644  1.1237 -2.5926
  172SAPE  C31119548   5.958   5.472   7.903 -0.2983  0.4807  0.1001
  172SAPE  H11X19549   5.869   5.514   7.852 -1.2340 -1.6218 -0.1108
  172SAPE  H11Y19550   6.053   5.524   7.875  0.5351 -0.5105  0.9759
  172SAPE  C31219551   5.951   5.457   8.055  0.3661  0.5888  0.0527
  172SAPE  H12X19552   6.048   5.417   8.092  0.8481  1.5857 -0.0788
  172SAPE  H12Y19553   5.863   5.392   8.072  1.3201 -0.8610 -0.3941
  172SAPE  C31319554   5.917   5.589   8.131  0.2639  0.0301  0.5299
  172SAPE  H13X19555   5.827   5.637   8.086  0.6916  0.5604  0.2317
  172SAPE  H13Y19556   6.002   5.658   8.118 -0.5813  1.2822  1.3895
  172SAPE  C31419557   5.879   5.559   8.275 -0.1599  0.3652 -0.0922
  172SAPE  H14X19558   5.806   5.475   8.270 -0.8051  0.6751  2.5555
  172SAPE  H14Y19559   5.818   5.642   8.314  0.8071  0.0103  2.4023
  172SAPE  C31519560   5.993   5.528   8.366 -0.6507 -0.2002 -0.6953
  172SAPE  H15X19561   6.040   5.628   8.382 -0.7526 -0.3309  0.5270
  172SAPE  H15Y19562   6.060   5.456   8.314  1.4081  0.2045  1.1779
  172SAPE  C31619563   5.958   5.495   8.514 -0.0978  0.9716  0.4257
  172SAPE  H16X19564   5.873   5.560   8.541 -0.1387  0.6341  1.1374
  172SAPE  H16Y19565   6.045   5.499   8.583  1.0304  2.2413 -0.9955
  172SAPE  C31719566   5.891   5.355   8.532 -0.0641 -0.2933  0.5631
  172SAPE  H17X19567   5.960   5.278   8.490  0.2592  0.3715 -0.1341
  172SAPE  H17Y19568   5.801   5.367   8.467 -0.3151  0.8949  1.1001
  172SAPE  C31819569   5.849   5.324   8.675  0.3166  0.0102 -0.6246
  172SAPE  H18X19570   5.940   5.317   8.739 -0.7083 -0.0975  0.8712
  172SAPE  H18Y19571   5.790   5.230   8.680  0.7625 -0.3256 -1.4102
  172SAPE  H18Z19572   5.787   5.404   8.721  2.1028  1.5444 -0.7762
  173SOPE     N19573   4.193   2.931  10.793  0.2445  0.8637  0.7334
  173SOPE   HN119574   4.225   2.945  10.695 -0.8875 -2.2306 -0.1793
  173SOPE   HN219575   4.235   2.845  10.834 -1.3496 -0.3762 -0.1429
  173SOPE   HN319576   4.091   2.919  10.780  0.5382 -0.7325 -0.3247
  173SOPE   C1219577   4.210   3.048  10.883 -0.3137  0.3269  0.2581
  173SOPE  H12A19578   4.140   3.039  10.969 -2.9173 -0.6303 -1.8463
  173SOPE  H12B19579   4.187   3.134  10.817  0.6989  0.9342  0.6655
  173SOPE   C1119580   4.355   3.075  10.935 -0.6020  0.6949 -0.3731
  173SOPE  H11A19581   4.362   3.008  11.024 -0.9127  2.1074  0.7629
  173SOPE  H11B19582   4.377   3.176  10.974 -1.7201  0.3481  1.2700
  173SOPE     P19583   4.595   2.997  10.866 -0.1864 -0.6483 -0.0861
  173SOPE   O1319584   4.606   2.856  10.910 -0.1380 -0.7871  0.0061
  173SOPE   O1419585   4.654   3.094  10.960  0.5915 -0.1304 -0.6217
  173SOPE   O1219586   4.446   3.040  10.833  0.0379 -0.3245 -0.6830
  173SOPE   O1119587   4.667   3.007  10.722 -0.1375 -0.5359 -0.3993
  173SOPE    C119588   4.647   3.130  10.647  0.0163 -0.0516  1.0415
  173SOPE    HA19589   4.732   3.152  10.579 -2.1238  1.2243 -1.3824
  173SOPE    HB19590   4.643   3.217  10.717 -3.1499  0.8671 -0.1112
  173SOPE    C219591   4.517   3.126  10.560 -0.9138 -0.1239  0.7733
  173SOPE    HS19592   4.434   3.142  10.632 -0.7668  0.9084  0.7208
  173SOPE   O2119593   4.514   2.999  10.487  0.3035 -0.4417 -0.2245
  173SOPE   C2119594   4.382   2.957  10.471 -0.6734 -0.1456  0.5840
  173SOPE   O2219595   4.282   2.982  10.536 -0.2374  0.0654  0.2735
  173SOPE   C2219596   4.387   2.874  10.344  0.1116  0.4247  0.4855
  173SOPE   H2R19597   4.436   2.777  10.368 -0.5960 -0.5484 -1.7345
  173SOPE   H2S19598   4.454   2.924  10.271 -0.7680  1.3928  0.3261
  173SOPE    C319599   4.525   3.251  10.456  0.4086  0.5992 -0.6558
  173SOPE    HX19600   4.625   3.250  10.407 -0.4986 -0.1551 -2.5705
  173SOPE    HY19601   4.517   3.347  10.511  0.3351 -0.3236  1.0388
  173SOPE   O3119602   4.437   3.245  10.345  0.4079  0.0948 -0.4875
  173SOPE   C3119603   4.317   3.287  10.377  0.7234  0.2486 -0.3277
  173SOPE   O3219604   4.280   3.353  10.475  0.0229  0.1475  0.1204
  173SOPE   C3219605   4.230   3.262  10.250  0.0594 -0.7762 -0.4987
  173SOPE   H2X19606   4.189   3.159  10.258 -1.5781 -0.0790  0.6175
  173SOPE   H2Y19607   4.291   3.277  10.159 -0.0450 -1.1905 -0.6406
  173SOPE   C2319608   4.246   2.833  10.293  0.5498  0.0905  0.7590
  173SOPE   H3R19609   4.190   2.926  10.271 -0.0299 -0.1625  1.1538
  173SOPE   H3S19610   4.194   2.778  10.375 -0.8433 -1.0834 -0.8259
  173SOPE   C2419611   4.248   2.737  10.170  0.5654 -0.3788 -0.5428
  173SOPE   H4R19612   4.146   2.735  10.125  0.0326  1.7841  0.4462
  173SOPE   H4S19613   4.317   2.789  10.100  0.9971 -0.7894 -0.4277
  173SOPE   C2519614   4.300   2.594  10.202  0.1123 -0.0277  0.1470
  173SOPE   H5R19615   4.406   2.598  10.237  0.3850 -0.7076 -0.5832
  173SOPE   H5S19616   4.242   2.553  10.287  2.8823  1.5846  3.0430
  173SOPE   C2619617   4.310   2.496  10.087  0.0753  0.0731  0.6429
  173SOPE   H6R19618   4.318   2.396  10.136  0.3020  0.7181  1.9737
  173SOPE   H6S19619   4.213   2.501  10.033 -0.6775 -1.4434  1.7684
  173SOPE   C2719620   4.414   2.526   9.980 -0.4940 -0.7454 -0.4295
  173SOPE   H7R19621   4.405   2.635   9.956  0.8922 -0.2305  1.1805
  173SOPE   H7S19622   4.515   2.523  10.026 -1.0612 -0.6514  0.8638
  173SOPE   C2819623   4.409   2.437   9.853 -0.4745 -1.3933 -0.2991
  173SOPE   H8R19624   4.502   2.460   9.796 -1.0905 -1.0712 -1.2076
  173SOPE   H8S19625   4.416   2.334   9.893 -0.9833 -1.1589  0.4190
  173SOPE   C2919626   4.291   2.454   9.755 -0.9334 -0.5471 -0.1677
  173SOPE   H9119627   4.190   2.456   9.798  0.0716  0.7119  2.3806
  173SOPE  C21019628   4.306   2.439   9.627 -0.0580  0.2733  0.0333
  173SOPE  H10119629   4.217   2.457   9.565  0.0746 -0.4671 -0.3785
  173SOPE  C21119630   4.436   2.417   9.555  1.0822  0.1132  0.4459
  173SOPE  H11R19631   4.485   2.331   9.606 -0.0774  0.2905  1.9290
  173SOPE  H11S19632   4.508   2.502   9.555  1.3420  0.1044 -3.5768
  173SOPE  C21219633   4.397   2.398   9.402  0.2537  0.5346 -0.7403
  173SOPE  H12R19634   4.386   2.504   9.369 -1.2241  0.3854 -0.8010
  173SOPE  H12S19635   4.303   2.339   9.402  0.7410 -0.2701  0.1352
  173SOPE  C21319636   4.504   2.319   9.328 -0.2177 -0.7566  0.4833
  173SOPE  H13R19637   4.480   2.317   9.219  0.1783 -0.4271  0.3838
  173SOPE  H13S19638   4.504   2.217   9.370 -0.2808 -1.0805 -0.2865
  173SOPE  C21419639   4.652   2.373   9.338 -0.0981 -0.2043 -0.0945
  173SOPE  H14R19640   4.699   2.365   9.438 -1.1504 -0.0199  0.4279
  173SOPE  H14S19641   4.630   2.479   9.317 -1.7361 -0.3208  0.8418
  173SOPE  C21519642   4.742   2.311   9.234 -0.4561  0.3152 -0.4213
  173SOPE  H15R19643   4.690   2.313   9.136 -3.3698  0.1204  0.9963
  173SOPE  H15S19644   4.740   2.203   9.260 -0.3041  0.5811  0.7684
  173SOPE  C21619645   4.885   2.350   9.245 -0.2846  0.8865  0.2540
  173SOPE  H16R19646   4.913   2.354   9.353 -4.3032 -0.3917  1.5500
  173SOPE  H16S19647   4.904   2.448   9.198 -0.7345  0.7815 -0.1498
  173SOPE  C21719648   4.961   2.240   9.167  0.9716 -0.3279 -0.2095
  173SOPE  H17R19649   4.951   2.246   9.056 -2.2116 -1.5302 -0.0866
  173SOPE  H17S19650   4.928   2.136   9.188 -0.7406  0.0892 -0.6896
  173SOPE  C21819651   5.104   2.227   9.207 -0.9655  0.3693 -0.6487
  173SOPE  H18R19652   5.144   2.131   9.169  2.6756  0.8562  1.3967
  173SOPE  H18S19653   5.120   2.222   9.317 -0.7982  0.8884 -0.6442
  173SOPE  H18T19654   5.164   2.316   9.176  0.0256 -0.1805 -0.3384
  173SOPE   C3319655   4.106   3.354  10.245  0.0744  0.0484  0.3976
  173SOPE   H3X19656   4.127   3.463  10.259  1.0409 -0.1201  0.3602
  173SOPE   H3Y19657   4.042   3.324  10.331  0.6107  1.2843  1.2739
  173SOPE   C3419658   4.030   3.345  10.111 -0.3467 -0.0988  0.3912
  173SOPE   H4X19659   3.960   3.259  10.116 -1.5788  0.6423 -2.1074
  173SOPE   H4Y19660   4.102   3.334  10.027  0.0528 -1.5600  0.9104
  173SOPE   C3519661   3.941   3.469  10.083  0.4897  0.6031  0.3382
  173SOPE   H5X19662   3.984   3.567  10.054 -2.9902  1.6778 -1.6900
  173SOPE   H5Y19663   3.885   3.490  10.177 -0.4284  1.0777 -0.3075
  173SOPE   C3619664   3.819   3.447   9.976  0.6381  0.2283 -0.3902
  173SOPE   H6X19665   3.741   3.523   9.997 -0.0448  0.3708 -3.0754
  173SOPE   H6Y19666   3.775   3.349  10.006 -1.4363  0.9810 -0.7887
  173SOPE   C3719667   3.867   3.450   9.838  0.0759  0.6563  0.4092
  173SOPE   H7X19668   3.847   3.351   9.792  1.6538  0.7982 -0.6839
  173SOPE   H7Y19669   3.978   3.455   9.826  0.1542 -2.8599 -2.0838
  173SOPE   C3819670   3.809   3.559   9.742  0.5933  0.0164  0.4635
  173SOPE   H8X19671   3.891   3.603   9.680 -0.1838  2.0484  0.7899
  173SOPE   H8Y19672   3.770   3.642   9.805 -1.4444  1.4861 -2.4335
  173SOPE   C3919673   3.690   3.507   9.664  0.4440  0.1751 -0.1209
  173SOPE   H9X19674   3.597   3.502   9.725  0.2005  1.8014 -0.3104
  173SOPE   H9Y19675   3.706   3.404   9.628  1.6307  0.6359 -0.9649
  173SOPE  C31019676   3.652   3.598   9.542 -0.1827 -0.3758  0.3454
  173SOPE  H10X19677   3.636   3.699   9.585 -0.3268 -0.4081  0.3671
  173SOPE  H10Y19678   3.553   3.567   9.501  0.5475 -2.1304 -0.1828
  173SOPE  C31119679   3.742   3.583   9.415  0.8396  0.1442  0.6336
  173SOPE  H11X19680   3.759   3.479   9.381  1.2979 -0.0163  1.3364
  173SOPE  H11Y19681   3.840   3.620   9.449 -0.2335  2.7818  1.0948
  173SOPE  C31219682   3.695   3.667   9.296  0.3047  0.2229  0.2740
  173SOPE  H12X19683   3.735   3.767   9.322 -1.0337  0.9012 -0.2049
  173SOPE  H12Y19684   3.585   3.675   9.281  0.3385 -0.1090 -0.1835
  173SOPE  C31319685   3.747   3.621   9.164  0.0431 -0.2780  0.5547
  173SOPE  H13X19686   3.709   3.518   9.146 -1.6667  0.5003 -0.4944
  173SOPE  H13Y19687   3.856   3.612   9.182 -0.1349 -0.9068  1.4315
  173SOPE  C31419688   3.708   3.714   9.039 -0.7436 -0.0307 -0.2888
  173SOPE  H14X19689   3.748   3.818   9.041  0.4391 -0.4621 -0.9048
  173SOPE  H14Y19690   3.598   3.722   9.024 -0.6316  1.5655 -0.4904
  173SOPE  C31519691   3.766   3.655   8.914 -0.5354 -0.0740  0.0884
  173SOPE  H15X19692   3.716   3.723   8.842  0.1708  1.2817  0.8402
  173SOPE  H15Y19693   3.733   3.550   8.901  0.1558 -0.3541  0.5384
  173SOPE  C31619694   3.920   3.675   8.906 -0.3073 -0.1617  0.0410
  173SOPE  H16X19695   3.973   3.622   8.988  0.3902  1.1056  0.4343
  173SOPE  H16Y19696   3.954   3.780   8.907 -0.6697 -0.0422  0.8174
  173SOPE  C31719697   3.972   3.599   8.782  0.2362 -0.1782 -0.6147
  173SOPE  H17X19698   3.898   3.621   8.702  0.2465  0.5653 -0.4273
  173SOPE  H17Y19699   3.980   3.488   8.789  0.9556 -0.3524 -3.3249
  173SOPE  C31819700   4.116   3.646   8.736  0.3750 -0.0815  0.5173
  173SOPE  H18X19701   4.189   3.612   8.812 -0.6374 -0.6842  1.2471
  173SOPE  H18Y19702   4.105   3.755   8.719  0.7484 -0.1641 -0.3174
  173SOPE  H18Z19703   4.144   3.602   8.638 -1.4169 -0.0484 -0.0545
  174SOPE     N19704   3.484   0.307  11.159  0.0156  0.7466 -0.0652
  174SOPE   HN119705   3.386   0.340  11.174  0.0208  2.2793 -2.7830
  174SOPE   HN219706   3.491   0.207  11.132 -0.6219  0.1576  1.7649
  174SOPE   HN319707   3.534   0.311  11.250 -0.4176 -2.9273  0.5026
  174SOPE   C1219708   3.555   0.391  11.051  0.9043 -0.4438 -0.2001
  174SOPE  H12A19709   3.518   0.347  10.956 -2.4303 -0.6031  1.0559
  174SOPE  H12B19710   3.662   0.361  11.049  1.0178 -0.0367 -0.3468
  174SOPE   C1119711   3.528   0.541  11.073  0.4776 -0.0320  0.5817
  174SOPE  H11A19712   3.581   0.584  10.985 -0.6719 -2.4326 -1.4126
  174SOPE  H11B19713   3.586   0.591  11.153  1.9793  1.6812 -1.4418
  174SOPE     P19714   3.315   0.660  10.976 -0.3443 -0.4051 -0.1095
  174SOPE   O1319715   3.271   0.791  11.030  0.4921  0.2382 -0.2981
  174SOPE   O1419716   3.213   0.572  10.926  0.2665  0.3703  0.5021
  174SOPE   O1219717   3.393   0.575  11.079  0.0701 -0.0380 -0.9186
  174SOPE   O1119718   3.427   0.688  10.864  0.0074  0.2101  0.6362
  174SOPE    C119719   3.387   0.676  10.725 -0.2873  0.4953  0.4275
  174SOPE    HA19720   3.357   0.571  10.705 -0.6113  1.2308 -3.8513
  174SOPE    HB19721   3.472   0.689  10.654  1.2344  1.4454  2.3056
  174SOPE    C219722   3.290   0.784  10.680 -0.1425  0.1645  0.0040
  174SOPE    HS19723   3.194   0.763  10.733  1.9192 -1.3279  3.4269
  174SOPE   O2119724   3.278   0.770  10.537  0.4744 -0.3958  0.4571
  174SOPE   C2119725   3.161   0.797  10.475  0.5940  0.6172  0.0403
  174SOPE   O2219726   3.059   0.827  10.529  0.2568 -0.1483  0.2396
  174SOPE   C2219727   3.184   0.784  10.323  0.9836  0.3303 -0.0360
  174SOPE   H2R19728   3.289   0.814  10.302  1.0097  0.2171 -0.0703
  174SOPE   H2S19729   3.105   0.848  10.278 -0.7716 -0.6597  1.4839
  174SOPE    C319730   3.332   0.925  10.721 -0.1153  0.0665  0.6580
  174SOPE    HX19731   3.433   0.951  10.683 -0.2834 -0.4993 -0.2028
  174SOPE    HY19732   3.353   0.927  10.830  0.2179  0.0624  0.5961
  174SOPE   O3119733   3.221   1.014  10.681 -0.7688  0.1297 -0.4653
  174SOPE   C3119734   3.243   1.089  10.573  0.7553 -0.1630  0.2246
  174SOPE   O3219735   3.333   1.076  10.497 -0.3353  0.0667  0.0698
  174SOPE   C3219736   3.126   1.187  10.560 -0.2126 -0.5499  0.0560
  174SOPE   H2X19737   3.129   1.254  10.649  3.3118 -2.6459  1.7480
  174SOPE   H2Y19738   3.026   1.139  10.549  0.5411 -1.6959 -2.6095
  174SOPE   C2319739   3.156   0.636  10.282 -0.6359 -0.6801  0.2828
  174SOPE   H3R19740   3.047   0.621  10.298 -1.1157  2.7545  1.1121
  174SOPE   H3S19741   3.206   0.575  10.359  0.0064  2.5799  2.6654
  174SOPE   C2419742   3.211   0.600  10.145 -0.2245  0.2148  0.0843
  174SOPE   H4R19743   3.307   0.655  10.136  0.0572 -0.5643 -2.4393
  174SOPE   H4S19744   3.231   0.491  10.131 -3.7539 -0.4067 -1.2287
  174SOPE   C2519745   3.122   0.634  10.026  0.2773 -0.7181  0.4412
  174SOPE   H5R19746   3.032   0.571  10.040 -1.5685  1.2906 -1.5073
  174SOPE   H5S19747   3.078   0.736  10.031 -1.0959 -1.3501  2.7807
  174SOPE   C2619748   3.194   0.610   9.887  0.5873 -0.0776 -0.2545
  174SOPE   H6R19749   3.288   0.668   9.891  0.2778  0.6639 -2.3057
  174SOPE   H6S19750   3.222   0.503   9.885  0.8716 -0.0109  0.1190
  174SOPE   C2719751   3.093   0.649   9.777  0.4434  0.4075 -0.3003
  174SOPE   H7R19752   3.006   0.581   9.766 -0.5040  1.5232 -0.0132
  174SOPE   H7S19753   3.057   0.751   9.806  2.5210  1.2320 -0.4437
  174SOPE   C2819754   3.153   0.652   9.636  0.6795 -0.1712  0.5220
  174SOPE   H8R19755   3.073   0.696   9.573 -0.9215  0.5588  2.9564
  174SOPE   H8S19756   3.228   0.733   9.623  0.8237 -0.6688 -2.5562
  174SOPE   C2919757   3.209   0.520   9.577  0.4493  0.2534  0.3949
  174SOPE   H9119758   3.315   0.516   9.605  0.2512  3.3402  1.9383
  174SOPE  C21019759   3.147   0.425   9.511 -0.4099  0.3976 -0.3513
  174SOPE  H10119760   3.208   0.339   9.481 -0.1990  0.6851 -0.7699
  174SOPE  C21119761   3.004   0.406   9.460  0.5807  0.0999  0.6085
  174SOPE  H11R19762   2.941   0.489   9.498 -0.1530 -0.6172  0.9739
  174SOPE  H11S19763   2.962   0.314   9.504  1.5120 -0.8508 -0.4301
  174SOPE  C21219764   2.979   0.398   9.308 -0.7868  0.4760 -0.0238
  174SOPE  H12R19765   3.057   0.333   9.262 -0.7871 -0.1723  0.8737
  174SOPE  H12S19766   2.999   0.498   9.265  0.7262 -0.8714 -2.7327
  174SOPE  C21319767   2.844   0.336   9.263 -0.5515  0.7400  0.3048
  174SOPE  H13R19768   2.765   0.397   9.312 -1.2342  0.3436 -0.2801
  174SOPE  H13S19769   2.845   0.227   9.281  0.9352  0.7918  0.6776
  174SOPE  C21419770   2.810   0.365   9.112 -0.5335 -0.4737 -0.0874
  174SOPE  H14R19771   2.846   0.468   9.087 -1.6330 -0.8166 -3.8029
  174SOPE  H14S19772   2.699   0.367   9.108 -0.6348  0.1213  2.2072
  174SOPE  C21519773   2.854   0.260   9.014 -0.6311 -0.7863  0.3569
  174SOPE  H15R19774   2.817   0.162   9.050 -0.2743 -0.6440  1.1104
  174SOPE  H15S19775   2.965   0.263   9.010 -0.6522 -0.9689 -2.1247
  174SOPE  C21619776   2.810   0.284   8.868  0.0412 -0.0275  0.5315
  174SOPE  H16R19777   2.857   0.378   8.833  1.0768 -0.7333 -0.0346
  174SOPE  H16S19778   2.702   0.306   8.878  0.1586  0.5408  0.5845
  174SOPE  C21719779   2.833   0.156   8.787 -0.5051  0.2663  0.5184
  174SOPE  H17R19780   2.816   0.179   8.679 -0.2498 -0.6510  0.2713
  174SOPE  H17S19781   2.755   0.085   8.822 -0.0377 -0.9187 -0.7293
  174SOPE  C21819782   2.973   0.091   8.797  0.5535 -0.6605  0.5301
  174SOPE  H18R19783   3.048   0.167   8.769 -0.1928  1.8084  4.4991
  174SOPE  H18S19784   2.990   0.016   8.717  1.5070  0.5892 -0.4742
  174SOPE  H18T19785   2.988   0.061   8.903  1.7196 -0.7838  0.3360
  174SOPE   C3319786   3.137   1.277  10.435  0.1165  0.9711 -0.1955
  174SOPE   H3X19787   3.234   1.328  10.419  1.2251 -1.0155 -0.1098
  174SOPE   H3Y19788   3.052   1.348  10.448 -1.1719 -0.7120  1.0891
  174SOPE   C3419789   3.110   1.198  10.304 -0.6145 -0.1397  0.4953
  174SOPE   H4X19790   3.006   1.160  10.306 -0.5803 -0.2060  1.4454
  174SOPE   H4Y19791   3.179   1.112  10.302  0.1149  0.4218  0.8615
  174SOPE   C3519792   3.135   1.294  10.181  0.0304  0.4889 -0.3932
  174SOPE   H5X19793   3.220   1.359  10.210  0.6085 -0.3219 -0.2527
  174SOPE   H5Y19794   3.054   1.370  10.166 -0.6020 -0.0478  0.2023
  174SOPE   C3619795   3.162   1.217  10.050 -1.4388  0.0195  0.3269
  174SOPE   H6X19796   3.258   1.165  10.071 -1.4569 -1.3126 -2.4974
  174SOPE   H6Y19797   3.175   1.287   9.965  3.8189  0.8790  1.4993
  174SOPE   C3719798   3.066   1.101  10.014  0.2158 -0.4553  0.1013
  174SOPE   H7X19799   2.964   1.144  10.010  0.3673 -0.1723 -1.6579
  174SOPE   H7Y19800   3.077   1.031  10.100  0.3831  1.0464  1.3357
  174SOPE   C3819801   3.103   1.029   9.881 -0.2451 -0.1455 -0.5190
  174SOPE   H8X19802   3.033   0.944   9.866 -2.1375  0.9297  1.5876
  174SOPE   H8Y19803   3.210   1.004   9.896 -0.8267 -1.5143  1.7703
  174SOPE   C3919804   3.090   1.119   9.759 -0.4091 -0.5446  0.0854
  174SOPE   H9X19805   3.164   1.201   9.751 -0.8270 -0.2507 -0.8445
  174SOPE   H9Y19806   2.988   1.163   9.759 -0.4778 -0.5969  2.0980
  174SOPE  C31019807   3.087   1.028   9.635 -0.2597 -0.6166  0.1470
  174SOPE  H10X19808   3.027   0.935   9.643 -1.1139 -0.0752  0.1157
  174SOPE  H10Y19809   3.192   0.996   9.619 -0.5415 -0.7062 -1.8360
  174SOPE  C31119810   3.057   1.103   9.503  0.2433 -0.5323 -0.2206
  174SOPE  H11X19811   3.123   1.192   9.502  0.1898 -0.4880  0.0362
  174SOPE  H11Y19812   2.951   1.135   9.495 -0.0455 -1.3834  0.0104
  174SOPE  C31219813   3.092   1.023   9.373  0.4705  0.7302 -0.2268
  174SOPE  H12X19814   3.187   0.967   9.390 -0.3259 -0.3852  0.6769
  174SOPE  H12Y19815   3.097   1.095   9.288  1.6270  0.0103 -0.7914
  174SOPE  C31319816   2.979   0.921   9.342  0.6619  0.2191  0.4900
  174SOPE  H13X19817   2.876   0.962   9.337  0.7549  0.3423 -1.9595
  174SOPE  H13Y19818   2.967   0.844   9.421  0.5484 -0.6378 -0.3424
  174SOPE  C31419819   3.000   0.855   9.209 -0.2550 -0.2691  0.6373
  174SOPE  H14X19820   3.017   0.942   9.141 -1.7643 -0.4254  0.0151
  174SOPE  H14Y19821   2.906   0.804   9.176 -0.1366  0.6412 -1.2499
  174SOPE  C31519822   3.117   0.752   9.198 -0.5077  0.1194 -0.0435
  174SOPE  H15X19823   3.109   0.684   9.286  0.9615 -1.1382 -0.8224
  174SOPE  H15Y19824   3.219   0.795   9.193 -0.8427  1.2628  1.9063
  174SOPE  C31619825   3.110   0.661   9.070  0.0811  0.2823 -0.3664
  174SOPE  H16X19826   3.138   0.725   8.983  3.1964  0.4499  0.6075
  174SOPE  H16Y19827   3.008   0.619   9.070  0.8021 -1.6463  1.3763
  174SOPE  C31719828   3.220   0.554   9.059 -0.8264 -0.0355  0.2263
  174SOPE  H17X19829   3.216   0.481   9.143 -0.5937 -0.4024 -0.0750
  174SOPE  H17Y19830   3.315   0.612   9.062 -0.1781 -1.0257 -0.2310
  174SOPE  C31819831   3.213   0.468   8.937  0.2221 -0.6705  0.0078
  174SOPE  H18X19832   3.308   0.410   8.937 -0.2429 -1.4561  0.0795
  174SOPE  H18Y19833   3.210   0.538   8.851  0.0296 -1.4251 -0.6162
  174SOPE  H18Z19834   3.119   0.408   8.944  1.2428 -2.4748 -0.8265
  175SOPE     N19835   3.003   3.854  10.802  0.2355  0.0686  0.9162
  175SOPE   HN119836   2.943   3.773  10.830  0.3705 -1.8081 -3.3509
  175SOPE   HN219837   2.963   3.899  10.717 -0.6073  0.3956  1.4796
  175SOPE   HN319838   3.096   3.817  10.774 -0.8845 -1.8789 -0.5079
  175SOPE   C1219839   3.024   3.952  10.920  0.2345  1.0905  0.0333
  175SOPE  H12A19840   3.106   3.900  10.974 -1.0934 -2.7606 -1.3039
  175SOPE  H12B19841   2.932   3.949  10.983 -0.1314 -2.4559 -0.4708
  175SOPE   C1119842   3.060   4.091  10.871 -0.0962  0.4020  0.2966
  175SOPE  H11A19843   3.163   4.078  10.833 -0.1499  0.3626  0.1645
  175SOPE  H11B19844   3.058   4.159  10.959  1.5780  1.4183 -0.4187
  175SOPE     P19845   2.999   4.263  10.695  0.1541  0.1033 -0.0181
  175SOPE   O1319846   3.099   4.341  10.769  0.3093 -0.1071  0.2547
  175SOPE   O1419847   2.867   4.330  10.656 -0.1229  0.4874  0.0820
  175SOPE   O1219848   2.973   4.139  10.772  0.2952  0.6501 -0.1395
  175SOPE   O1119849   3.064   4.215  10.556  0.4620 -0.1091 -0.1149
  175SOPE    C119850   3.147   4.104  10.530 -0.0769 -0.2052 -0.4685
  175SOPE    HA19851   3.084   4.034  10.471  0.7890  1.4374 -3.5379
  175SOPE    HB19852   3.191   4.060  10.622 -0.3719  1.1373  0.3500
  175SOPE    C219853   3.256   4.139  10.418  0.3700  0.4471 -0.3595
  175SOPE    HS19854   3.313   4.228  10.452  1.8680 -1.5184  2.7613
  175SOPE   O2119855   3.187   4.150  10.292 -0.3586 -0.3241  0.4780
  175SOPE   C2119856   3.250   4.226  10.210  0.1684 -0.6962  0.2605
  175SOPE   O2219857   3.352   4.289  10.232  0.6157 -0.4070  0.4807
  175SOPE   C2219858   3.168   4.238  10.088 -0.0173 -0.1082  0.4024
  175SOPE   H2R19859   3.076   4.293  10.117 -0.2582 -0.2608 -0.0542
  175SOPE   H2S19860   3.150   4.132  10.060 -2.3991  0.6381 -1.2727
  175SOPE    C319861   3.361   4.020  10.411 -0.4199 -0.2039  0.2125
  175SOPE    HX19862   3.295   3.931  10.413  0.4945 -0.8938  1.9370
  175SOPE    HY19863   3.425   4.003  10.500  1.0592 -2.3116 -1.1658
  175SOPE   O3119864   3.442   4.031  10.293  0.5882 -0.2432 -0.4282
  175SOPE   C3119865   3.562   4.084  10.307 -0.4722 -0.0792 -0.2642
  175SOPE   O3219866   3.612   4.125  10.412  1.1398  0.2354  0.3417
  175SOPE   C3219867   3.641   4.081  10.177  0.5330 -0.4579  0.4214
  175SOPE   H2X19868   3.606   4.166  10.115  1.6363  0.9257  1.6462
  175SOPE   H2Y19869   3.618   3.988  10.120  0.2511  0.1810 -0.5223
  175SOPE   C2319870   3.248   4.300   9.973  0.5335 -0.1415 -0.9892
  175SOPE   H3R19871   3.340   4.241   9.954  1.5608  1.7703 -2.3254
  175SOPE   H3S19872   3.285   4.402  10.000  1.1731 -0.7712  0.6634
  175SOPE   C2419873   3.170   4.319   9.846 -0.1897  0.7143  0.1125
  175SOPE   H4R19874   3.144   4.218   9.807  1.8731 -0.0566  0.5899
  175SOPE   H4S19875   3.079   4.382   9.846 -1.5473 -1.1458  0.4416
  175SOPE   C2519876   3.249   4.370   9.725 -0.0181 -0.3297  0.2236
  175SOPE   H5R19877   3.316   4.451   9.761  1.5104 -2.1806  1.8022
  175SOPE   H5S19878   3.314   4.283   9.701  1.3243  0.7221 -0.0897
  175SOPE   C2619879   3.175   4.431   9.607  0.4502 -0.0464  0.3886
  175SOPE   H6R19880   3.077   4.381   9.594  0.1250  0.3240  1.3356
  175SOPE   H6S19881   3.153   4.538   9.627 -1.6883  0.4611 -3.6833
  175SOPE   C2719882   3.258   4.427   9.479  0.6026 -1.0216  0.7994
  175SOPE   H7R19883   3.366   4.441   9.498  1.7369 -6.0976 -0.3958
  175SOPE   H7S19884   3.260   4.324   9.438  1.3292 -0.4956 -0.5282
  175SOPE   C2819885   3.193   4.517   9.371 -0.5839 -0.2880  0.3650
  175SOPE   H8R19886   3.236   4.489   9.273  0.3097 -0.5408  0.8194
  175SOPE   H8S19887   3.085   4.495   9.353 -0.7640  1.4180 -0.9422
  175SOPE   C2919888   3.200   4.673   9.389 -0.5051  0.2911 -1.5554
  175SOPE   H9119889   3.301   4.716   9.386 -2.2276  4.8702 -3.2166
  175SOPE  C21019890   3.096   4.756   9.420  0.4828 -0.0574  0.9462
  175SOPE  H10119891   3.109   4.863   9.441  1.1923 -0.2457  1.5071
  175SOPE  C21119892   2.946   4.718   9.430  0.0134  0.3645  0.2937
  175SOPE  H11R19893   2.910   4.752   9.530 -2.6965  0.1724 -0.5521
  175SOPE  H11S19894   2.926   4.609   9.422  1.1536  0.1394  0.2404
  175SOPE  C21219895   2.854   4.790   9.334 -0.7933  0.0930  0.5649
  175SOPE  H12R19896   2.855   4.899   9.356 -0.5179  0.4492 -1.0445
  175SOPE  H12S19897   2.751   4.751   9.348 -0.1283 -1.9167  0.2533
  175SOPE  C21319898   2.903   4.772   9.190  0.2372 -0.5597 -0.0724
  175SOPE  H13R19899   2.915   4.665   9.161  0.4823 -1.0401  1.6416
  175SOPE  H13S19900   3.003   4.818   9.195  1.2191 -2.6022  0.4163
  175SOPE  C21419901   2.815   4.844   9.090  0.3056  0.6224  0.2807
  175SOPE  H14R19902   2.821   4.953   9.111 -2.4466  0.6289  1.5898
  175SOPE  H14S19903   2.706   4.825   9.105  0.5594 -1.2056  0.0758
  175SOPE  C21519904   2.841   4.813   8.943 -0.3497  0.5752  0.0439
  175SOPE  H15R19905   2.951   4.818   8.934 -0.5285  1.0039 -2.5702
  175SOPE  H15S19906   2.805   4.904   8.890  0.2944  0.8235  0.0205
  175SOPE  C21619907   2.777   4.686   8.892 -0.2382  0.5706  1.2650
  175SOPE  H16R19908   2.668   4.707   8.892 -0.2444  0.9069 -1.3129
  175SOPE  H16S19909   2.795   4.603   8.964  3.1052 -0.1249 -0.1957
  175SOPE  C21719910   2.820   4.633   8.747 -0.3866 -0.3677 -0.7007
  175SOPE  H17R19911   2.798   4.715   8.675  3.2009  0.4471 -1.0248
  175SOPE  H17S19912   2.767   4.538   8.722 -2.0625  0.1578  0.6446
  175SOPE  C21819913   2.974   4.621   8.751 -0.5350  0.5660  0.2159
  175SOPE  H18R19914   3.016   4.564   8.666  1.4043 -0.8306  1.9889
  175SOPE  H18S19915   3.007   4.570   8.844 -1.2272  1.1044  0.7697
  175SOPE  H18T19916   3.020   4.722   8.743  2.2475 -0.5892  0.4498
  175SOPE   C3319917   3.794   4.086  10.178 -0.3477  0.3604  1.0786
  175SOPE   H3X19918   3.836   3.986  10.201 -1.6031 -0.4637 -0.0760
  175SOPE   H3Y19919   3.826   4.150  10.263  0.5514 -1.1524  1.9205
  175SOPE   C3419920   3.849   4.132  10.043  0.9091 -0.5113 -0.3128
  175SOPE   H4X19921   3.957   4.158  10.046  1.3105 -2.1623  0.5331
  175SOPE   H4Y19922   3.805   4.231  10.020  2.3931  0.4122  0.6975
  175SOPE   C3519923   3.830   4.035   9.923  0.3100  0.3865 -0.1163
  175SOPE   H5X19924   3.726   4.035   9.886  0.4650 -1.0787 -0.5931
  175SOPE   H5Y19925   3.851   3.931   9.955 -0.4907  0.0849 -0.5457
  175SOPE   C3619926   3.920   4.070   9.805  0.1306 -0.1014  0.3550
  175SOPE   H6X19927   4.026   4.070   9.841  0.5973 -3.1544 -0.7668
  175SOPE   H6Y19928   3.887   4.173   9.780 -0.1838 -0.3628 -0.3111
  175SOPE   C3719929   3.908   3.988   9.678 -0.3757 -0.5747 -0.3687
  175SOPE   H7X19930   3.803   4.002   9.644  0.4239 -2.1919 -3.9306
  175SOPE   H7Y19931   3.930   3.882   9.705 -1.5261 -0.7011  0.1174
  175SOPE   C3819932   4.002   4.043   9.569  0.2270 -0.2424 -0.3119
  175SOPE   H8X19933   4.105   4.012   9.593  0.6913  0.1924 -1.6518
  175SOPE   H8Y19934   4.002   4.154   9.574  2.5194 -0.2569  0.8082
  175SOPE   C3919935   3.987   3.982   9.424  0.1363  0.1020 -0.0718
  175SOPE   H9X19936   3.883   3.991   9.387 -0.3086  0.7756  1.2596
  175SOPE   H9Y19937   4.016   3.875   9.421 -0.4720 -0.0389 -0.9974
  175SOPE  C31019938   4.078   4.056   9.319 -0.2012 -0.6018  0.4224
  175SOPE  H10X19939   4.183   4.042   9.353 -0.1973 -0.8640  0.3043
  175SOPE  H10Y19940   4.057   4.163   9.340  2.4718 -0.6188  4.0347
  175SOPE  C31119941   4.047   4.014   9.180  0.1362 -0.0420 -0.0069
  175SOPE  H11X19942   3.938   4.018   9.160  0.0304 -1.1696  0.2928
  175SOPE  H11Y19943   4.079   3.907   9.180  0.0540 -0.0727  0.8078
  175SOPE  C31219944   4.122   4.102   9.083  0.0403  0.3359  0.6029
  175SOPE  H12X19945   4.232   4.096   9.087  0.2774  0.2721 -2.9124
  175SOPE  H12Y19946   4.099   4.207   9.108 -1.3274  0.1091  0.4120
  175SOPE  C31319947   4.081   4.086   8.941  0.5835  0.8072 -0.1353
  175SOPE  H13X19948   4.094   3.981   8.906 -0.8218  0.6573 -0.2769
  175SOPE  H13Y19949   4.152   4.143   8.878  0.0959  2.7265  0.9583
  175SOPE  C31419950   3.932   4.121   8.921  0.2826  0.1195  0.1316
  175SOPE  H14X19951   3.907   4.210   8.982 -0.9460 -1.9241  2.8080
  175SOPE  H14Y19952   3.875   4.040   8.971 -2.5114  2.5137  1.1319
  175SOPE  C31519953   3.898   4.128   8.765 -0.9113 -0.4560 -0.1964
  175SOPE  H15X19954   3.941   4.040   8.712 -0.3672 -0.6404  0.5471
  175SOPE  H15Y19955   3.942   4.222   8.727 -0.2227 -0.4548  0.5913
  175SOPE  C31619956   3.747   4.143   8.749 -0.1341  0.1342  0.5319
  175SOPE  H16X19957   3.729   4.247   8.783  1.3241  1.1832 -1.6515
  175SOPE  H16Y19958   3.695   4.068   8.812 -0.0235 -0.9144 -0.5635
  175SOPE  C31719959   3.698   4.122   8.599  0.5007  0.0189  0.3906
  175SOPE  H17X19960   3.715   4.013   8.582  1.4725  0.5057 -2.0609
  175SOPE  H17Y19961   3.764   4.177   8.530 -0.8708  0.0114 -0.9688
  175SOPE  C31819962   3.550   4.165   8.574  0.2519 -0.3347 -0.0159
  175SOPE  H18X19963   3.489   4.099   8.639  0.1281  0.1113  0.3211
  175SOPE  H18Y19964   3.512   4.146   8.471  2.1156 -0.0778 -0.7949
  175SOPE  H18Z19965   3.541   4.274   8.593  0.4401 -0.2810 -0.2330
  176SOPE     N19966   3.738   3.791  10.790  0.5240 -0.0749 -0.6429
  176SOPE   HN119967   3.767   3.839  10.878  0.2882  0.8013 -1.0339
  176SOPE   HN219968   3.634   3.803  10.793  0.5449 -0.0021  0.8177
  176SOPE   HN319969   3.761   3.690  10.787 -1.0479 -0.4374 -2.6988
  176SOPE   C1219970   3.801   3.865  10.679  0.1849 -0.2629  0.5279
  176SOPE  H12A19971   3.753   3.839  10.582  0.7798 -3.1062  0.8927
  176SOPE  H12B19972   3.905   3.827  10.673 -0.2783 -1.3032 -2.1808
  176SOPE   C1119973   3.798   4.020  10.700 -0.0471  0.3190  0.1253
  176SOPE  H11A19974   3.691   4.048  10.697 -0.1058 -0.0024 -1.3414
  176SOPE  H11B19975   3.850   4.066  10.613 -1.7064 -1.8522 -2.1787
  176SOPE     P19976   4.009   4.071  10.864  0.0400 -0.0459 -0.2884
  176SOPE   O1319977   4.037   3.942  10.928  0.3445 -0.2722 -0.9268
  176SOPE   O1419978   4.046   4.196  10.931 -0.4826  0.8472  0.3085
  176SOPE   O1219979   3.856   4.063  10.825  0.3650 -0.2678  0.4126
  176SOPE   O1119980   4.082   4.069  10.722 -0.1580 -0.0615  0.1091
  176SOPE    C119981   4.107   4.199  10.662 -0.5332  0.3537  0.4012
  176SOPE    HA19982   4.191   4.246  10.717  0.6762  0.4408 -1.4165
  176SOPE    HB19983   4.017   4.262  10.680  0.9236  1.7821  3.5533
  176SOPE    C219984   4.139   4.200  10.502 -0.0662 -0.1493  0.2575
  176SOPE    HS19985   4.055   4.241  10.442 -0.3074  1.6304  1.6974
  176SOPE   O2119986   4.207   4.087  10.450 -0.1364  0.3168  0.4056
  176SOPE   C2119987   4.128   3.999  10.397  0.0270  0.3358  0.5507
  176SOPE   O2219988   4.004   3.991  10.395  0.3330  0.5438  0.0747
  176SOPE   C2219989   4.215   3.896  10.314  0.1477 -0.7685  0.5852
  176SOPE   H2R19990   4.195   3.796  10.358 -1.1009 -1.7062 -1.9129
  176SOPE   H2S19991   4.322   3.921  10.331  0.2488 -0.4007 -0.5762
  176SOPE    C319992   4.239   4.320  10.483  0.4404 -0.7299  0.7420
  176SOPE    HX19993   4.343   4.308  10.520  1.4698  2.5389 -0.7085
  176SOPE    HY19994   4.198   4.401  10.548 -1.7256 -2.1433  1.2387
  176SOPE   O3119995   4.257   4.364  10.348  0.3222  0.5317  0.6137
  176SOPE   C3119996   4.157   4.438  10.299  0.8350 -0.7188 -0.3675
  176SOPE   O3219997   4.062   4.474  10.363  0.2234 -0.2430 -0.3978
  176SOPE   C3219998   4.188   4.479  10.157  0.2985  0.3882 -0.0082
  176SOPE   H2X19999   4.269   4.556  10.150 -0.0693  0.7275 -0.6199
  176SOPE   H2Y20000   4.097   4.521  10.109 -0.1570  0.9218  1.2738
  176SOPE   C2320001   4.178   3.903  10.169 -0.2077 -0.0271  0.3938
  176SOPE   H3R20002   4.180   4.011  10.141  1.1408 -0.1823 -0.1468
  176SOPE   H3S20003   4.073   3.871  10.153 -0.3839  0.3433  0.7818
  176SOPE   C2420004   4.273   3.825  10.086 -0.1078  0.0037  0.2850
  176SOPE   H4R20005   4.376   3.862  10.101 -0.4541  0.0738  2.9378
  176SOPE   H4S20006   4.262   3.717  10.109  0.0169 -0.6312 -2.3595
  176SOPE   C2520007   4.232   3.844   9.936 -0.9145 -1.0044  0.4921
  176SOPE   H5R20008   4.123   3.858   9.920 -0.8981 -1.1782  0.2215
  176SOPE   H5S20009   4.274   3.942   9.907 -1.8123 -1.2369 -1.7917
  176SOPE   C2620010   4.270   3.726   9.842 -0.0565  1.0361 -0.3484
  176SOPE   H6R20011   4.381   3.720   9.839 -0.0589  1.1481 -0.5926
  176SOPE   H6S20012   4.243   3.633   9.897  2.0762  0.0348 -0.8957
  176SOPE   C2720013   4.198   3.737   9.703 -0.1147  0.3622 -0.3585
  176SOPE   H7R20014   4.090   3.752   9.729  0.2217  0.1637  1.2493
  176SOPE   H7S20015   4.227   3.826   9.643 -0.4752  1.6161  1.2402
  176SOPE   C2820016   4.210   3.607   9.624 -0.0279 -0.3834  0.2126
  176SOPE   H8R20017   4.317   3.585   9.603  0.2453  1.1836 -0.1574
  176SOPE   H8S20018   4.173   3.526   9.691  1.4080 -2.4843 -1.4053
  176SOPE   C2920019   4.119   3.606   9.497 -0.6369  0.3239  0.7319
  176SOPE   H9120020   4.013   3.577   9.506 -1.2033  1.6424 -1.0111
  176SOPE  C21020021   4.164   3.631   9.371 -0.0411 -0.5292 -0.2856
  176SOPE  H10120022   4.095   3.632   9.285 -0.8012 -0.9449  0.3061
  176SOPE  C21120023   4.309   3.664   9.334 -0.6084 -0.9009  0.9362
  176SOPE  H11R20024   4.365   3.701   9.423  0.5853  0.2670 -0.2663
  176SOPE  H11S20025   4.316   3.751   9.267 -0.6532 -1.3911  0.2845
  176SOPE  C21220026   4.398   3.557   9.277 -0.6620 -0.1222  0.2053
  176SOPE  H12R20027   4.397   3.465   9.340 -0.8028  1.0044  1.9032
  176SOPE  H12S20028   4.502   3.596   9.278 -1.1770  1.2868  0.6014
  176SOPE  C21320029   4.357   3.534   9.135 -0.1698 -0.3495  0.2072
  176SOPE  H13R20030   4.364   3.630   9.080 -1.2926 -0.7382 -0.6526
  176SOPE  H13S20031   4.252   3.497   9.129 -1.2040  2.1003  1.5144
  176SOPE  C21420032   4.442   3.429   9.068 -1.0480  0.1572  0.3896
  176SOPE  H14R20033   4.422   3.332   9.118  1.6523 -0.0408  1.2999
  176SOPE  H14S20034   4.546   3.460   9.094 -1.4220  0.6584  1.3394
  176SOPE  C21520035   4.425   3.421   8.916  0.3541 -0.6767 -0.1442
  176SOPE  H15R20036   4.473   3.513   8.876  1.4669 -1.6460 -1.1147
  176SOPE  H15S20037   4.317   3.410   8.893  0.2070 -0.4689  0.4318
  176SOPE  C21620038   4.500   3.313   8.838  0.9075 -0.6754  0.1537
  176SOPE  H16R20039   4.480   3.327   8.729  0.8299  2.2605  0.4521
  176SOPE  H16S20040   4.461   3.213   8.864 -1.4252  0.2447  0.3989
  176SOPE  C21720041   4.654   3.322   8.862 -0.2219  0.0612  0.3764
  176SOPE  H17R20042   4.678   3.281   8.962  1.0129 -1.4378 -0.4838
  176SOPE  H17S20043   4.673   3.431   8.860  1.4910 -0.2114 -1.4507
  176SOPE  C21820044   4.736   3.244   8.762 -0.1941  0.0063 -0.0905
  176SOPE  H18R20045   4.845   3.264   8.773  0.1174 -2.4286  2.1629
  176SOPE  H18S20046   4.704   3.278   8.661  0.4317  0.4624 -0.1387
  176SOPE  H18T20047   4.724   3.136   8.785 -1.3373 -0.0073 -0.6953
  176SOPE   C3320048   4.233   4.360  10.068  0.2447  0.2204 -0.4126
  176SOPE   H3X20049   4.193   4.262  10.103  0.6068 -0.0919 -0.8763
  176SOPE   H3Y20050   4.342   4.348  10.087  0.3079  2.6854  1.1884
  176SOPE   C3420051   4.196   4.390   9.924  0.4988 -0.2686  0.5724
  176SOPE   H4X20052   4.229   4.494   9.907 -0.9300 -0.1957 -2.4367
  176SOPE   H4Y20053   4.085   4.392   9.914  0.4746  1.2049  0.9633
  176SOPE   C3520054   4.256   4.296   9.819 -0.0146  0.1714  0.5029
  176SOPE   H5X20055   4.244   4.189   9.845 -0.1880  0.4646  1.6603
  176SOPE   H5Y20056   4.364   4.319   9.829  0.1855 -0.8982  0.8260
  176SOPE   C3620057   4.221   4.332   9.673 -0.6896 -0.1595  0.1176
  176SOPE   H6X20058   4.210   4.443   9.674 -0.4907 -0.1414  1.0961
  176SOPE   H6Y20059   4.121   4.292   9.645 -0.7536 -0.5784  0.9257
  176SOPE   C3720060   4.328   4.310   9.567  0.1614 -0.2137  0.0031
  176SOPE   H7X20061   4.332   4.201   9.548  0.0628 -0.6171  2.0382
  176SOPE   H7Y20062   4.426   4.346   9.606  0.7631  1.0443 -2.4740
  176SOPE   C3820063   4.303   4.387   9.432 -0.0283  0.3735  0.1898
  176SOPE   H8X20064   4.286   4.495   9.450 -1.2256  0.2576 -0.1823
  176SOPE   H8Y20065   4.211   4.348   9.384  0.0153 -0.9803  1.1316
  176SOPE   C3920066   4.417   4.371   9.325 -0.6619  0.0820 -0.1808
  176SOPE   H9X20067   4.407   4.263   9.302 -1.3046 -0.6149  2.8533
  176SOPE   H9Y20068   4.520   4.399   9.356 -0.0391 -0.7324 -1.4326
  176SOPE  C31020069   4.375   4.438   9.189  0.0727  0.3023  0.3964
  176SOPE  H10X20070   4.366   4.548   9.192  1.0784  0.3886  0.8390
  176SOPE  H10Y20071   4.282   4.393   9.149  0.4170  0.4053 -0.5444
  176SOPE  C31120072   4.477   4.405   9.080 -0.3342  0.4917  0.7301
  176SOPE  H11X20073   4.474   4.294   9.068 -1.0776  0.5975 -0.1942
  176SOPE  H11Y20074   4.578   4.432   9.117  0.3607  0.1472 -0.8364
  176SOPE  C31220075   4.464   4.478   8.947 -0.5560  0.2150  0.8293
  176SOPE  H12X20076   4.553   4.459   8.884 -1.1804 -1.3563  0.3602
  176SOPE  H12Y20077   4.462   4.588   8.961 -5.2896  0.3290  1.0702
  176SOPE  C31320078   4.350   4.415   8.862  1.2333 -0.2273 -0.2606
  176SOPE  H13X20079   4.266   4.415   8.934  0.7493 -2.2106 -0.7700
  176SOPE  H13Y20080   4.378   4.310   8.840  0.0724 -0.0446 -2.9668
  176SOPE  C31420081   4.324   4.500   8.736  0.0459 -0.6540 -0.7991
  176SOPE  H14X20082   4.381   4.445   8.658  0.0011 -3.6266  1.1042
  176SOPE  H14Y20083   4.379   4.596   8.740 -0.6633 -0.1748 -2.0945
  176SOPE  C31520084   4.180   4.505   8.682  0.1455  0.6756 -0.3747
  176SOPE  H15X20085   4.157   4.396   8.672  3.8600 -0.6593  3.0364
  176SOPE  H15Y20086   4.166   4.554   8.584 -0.2145  0.4167 -0.4552
  176SOPE  C31620087   4.072   4.561   8.780  0.2819 -0.0937 -0.1475
  176SOPE  H16X20088   4.094   4.669   8.798 -2.0933  0.5158 -0.5305
  176SOPE  H16Y20089   4.056   4.517   8.881  1.2904 -0.0920  0.0289
  176SOPE  C31720090   3.930   4.576   8.718  0.3231  0.3941 -0.6313
  176SOPE  H17X20091   3.895   4.477   8.682 -0.5759  0.8076 -0.9340
  176SOPE  H17Y20092   3.935   4.644   8.630 -1.1351  2.4498  0.7556
  176SOPE  C31820093   3.822   4.640   8.806 -0.2751 -0.4217  0.1169
  176SOPE  H18X20094   3.857   4.727   8.865  0.9644 -2.1089  1.9978
  176SOPE  H18Y20095   3.808   4.565   8.887  2.5705  0.1696  1.2405
  176SOPE  H18Z20096   3.724   4.663   8.758 -0.0947  2.7272  1.0561
  177SOPE     N20097   3.134   2.094  11.058 -0.3839  0.6832  0.3411
  177SOPE   HN120098   3.184   2.087  10.967  0.7786 -0.2948  1.0152
  177SOPE   HN220099   3.052   2.030  11.055 -0.4784  0.8392 -1.0795
  177SOPE   HN320100   3.087   2.186  11.051 -1.0589  0.2854 -0.4128
  177SOPE   C1220101   3.223   2.076  11.181 -0.0777 -0.5483 -0.1044
  177SOPE  H12A20102   3.166   2.116  11.267  0.1402 -1.2392  0.3729
  177SOPE  H12B20103   3.309   2.142  11.156 -0.3446 -0.4228 -0.7212
  177SOPE   C1120104   3.276   1.935  11.211 -0.2871 -0.3456  0.4954
  177SOPE  H11A20105   3.190   1.874  11.246  0.4103 -1.1703  0.8020
  177SOPE  H11B20106   3.344   1.949  11.298  0.1957  0.4838 -0.0061
  177SOPE     P20107   3.489   1.871  11.103  0.3043  0.1298  0.0197
  177SOPE   O1320108   3.533   1.783  11.211  0.0367  0.0143  0.1831
  177SOPE   O1420109   3.529   2.015  11.107 -0.8492  0.3793  0.6735
  177SOPE   O1220110   3.335   1.863  11.094  0.1756  0.2172 -0.4309
  177SOPE   O1120111   3.531   1.806  10.963  0.3093 -0.3205 -0.4110
  177SOPE    C120112   3.447   1.826  10.846 -0.3346 -0.4174 -0.4336
  177SOPE    HA20113   3.495   1.890  10.769  0.7448  0.8589  1.2502
  177SOPE    HB20114   3.358   1.889  10.866 -0.6453 -0.0945 -2.5337
  177SOPE    C220115   3.416   1.686  10.809  0.1869 -0.5743 -0.1170
  177SOPE    HS20116   3.399   1.634  10.906  0.4000  0.4877  0.5042
  177SOPE   O2120117   3.534   1.625  10.745 -0.6896 -0.2645  0.2508
  177SOPE   C2120118   3.517   1.499  10.710 -0.0860  0.2411 -0.6230
  177SOPE   O2220119   3.419   1.430  10.735 -0.0101 -0.1041 -0.6343
  177SOPE   C2220120   3.644   1.446  10.646 -0.5514 -0.2003 -0.0393
  177SOPE   H2R20121   3.618   1.339  10.631 -0.4098 -0.0044 -1.8292
  177SOPE   H2S20122   3.721   1.446  10.727 -1.9874 -0.6883  1.3903
  177SOPE    C320123   3.284   1.685  10.718  0.0185 -0.2781 -0.0294
  177SOPE    HX20124   3.205   1.742  10.771  1.5209  0.9769  0.9483
  177SOPE    HY20125   3.258   1.577  10.709 -0.6452 -0.0395 -1.3550
  177SOPE   O3120126   3.298   1.758  10.592 -0.1306  0.3627  0.1810
  177SOPE   C3120127   3.242   1.691  10.489 -0.0682 -0.5373 -0.1775
  177SOPE   O3220128   3.179   1.587  10.496  0.0780  0.2222 -0.0182
  177SOPE   C3220129   3.273   1.768  10.359 -0.5691  0.2974  0.0279
  177SOPE   H2X20130   3.382   1.752  10.343  0.5163  1.4400  4.7478
  177SOPE   H2Y20131   3.246   1.875  10.372 -1.8372 -0.1133  0.9741
  177SOPE   C2320132   3.686   1.518  10.518 -0.8550 -0.2067 -0.1942
  177SOPE   H3R20133   3.789   1.486  10.492 -0.8290  0.1946 -0.5823
  177SOPE   H3S20134   3.694   1.627  10.536  0.0638 -0.3877  0.5928
  177SOPE   C2420135   3.585   1.477  10.410  0.2648 -0.0123 -0.2266
  177SOPE   H4R20136   3.592   1.366  10.409  3.0650 -0.1557  4.4129
  177SOPE   H4S20137   3.486   1.511  10.446  0.8066  0.1674  1.1430
  177SOPE   C2520138   3.622   1.526  10.274 -0.1246 -0.1043  0.0946
  177SOPE   H5R20139   3.621   1.637  10.264 -1.3682  0.2598  3.1231
  177SOPE   H5S20140   3.729   1.506  10.252 -0.6125 -0.3373 -2.3508
  177SOPE   C2620141   3.534   1.471  10.161 -0.0200  0.9656 -0.4794
  177SOPE   H6R20142   3.529   1.361  10.173 -0.1108  0.8512 -1.4643
  177SOPE   H6S20143   3.432   1.513  10.178  0.3822  2.3542 -1.3713
  177SOPE   C2720144   3.590   1.511  10.026  0.0420  0.4756  0.2897
  177SOPE   H7R20145   3.604   1.621  10.026  0.3434  0.4426 -0.1855
  177SOPE   H7S20146   3.695   1.476  10.017  0.0266  0.6158 -0.4774
  177SOPE   C2820147   3.489   1.479   9.913  0.7274  0.5482 -0.4588
  177SOPE   H8R20148   3.498   1.372   9.883  0.1841  0.5660 -0.7017
  177SOPE   H8S20149   3.384   1.490   9.949  0.6058  2.1189 -1.2218
  177SOPE   C2920150   3.508   1.546   9.778  0.0757  0.3469 -0.0597
  177SOPE   H9120151   3.586   1.624   9.781  1.3699 -0.9268  0.4928
  177SOPE  C21020152   3.440   1.524   9.669  0.3079 -0.4467 -0.0287
  177SOPE  H10120153   3.456   1.590   9.582 -0.9209 -0.5911 -0.3857
  177SOPE  C21120154   3.327   1.430   9.647  0.1528  0.5532  0.3547
  177SOPE  H11R20155   3.272   1.413   9.742 -1.5841  0.0943 -0.6890
  177SOPE  H11S20156   3.355   1.325   9.627  0.4277  0.5798  0.5892
  177SOPE  C21220157   3.221   1.469   9.538  0.3413  0.0518  0.2098
  177SOPE  H12R20158   3.184   1.570   9.565 -1.9840 -0.5407 -0.5219
  177SOPE  H12S20159   3.132   1.403   9.546  0.0144  0.6548  2.0772
  177SOPE  C21320160   3.275   1.467   9.393  0.0977 -0.5014  0.3354
  177SOPE  H13R20161   3.325   1.370   9.373 -0.5396 -0.6144 -0.7941
  177SOPE  H13S20162   3.349   1.550   9.394  0.6422 -0.8091  4.6438
  177SOPE  C21420163   3.174   1.497   9.284  0.2466 -0.6316 -0.0618
  177SOPE  H14R20164   3.225   1.539   9.195 -2.4120  0.6822 -1.0746
  177SOPE  H14S20165   3.118   1.587   9.315 -0.0609 -0.2568 -1.6110
  177SOPE  C21520166   3.075   1.386   9.245 -0.3709  0.1636  0.0634
  177SOPE  H15R20167   3.020   1.348   9.334  0.0978 -2.0780 -0.5612
  177SOPE  H15S20168   3.136   1.305   9.201 -1.5568 -0.6071 -0.2018
  177SOPE  C21620169   2.983   1.425   9.132 -0.5038 -0.1145  0.7348
  177SOPE  H16R20170   3.044   1.433   9.039  1.5430 -1.2850  1.9087
  177SOPE  H16S20171   2.947   1.529   9.150  0.1957  0.6467 -1.7284
  177SOPE  C21720172   2.862   1.335   9.114  0.3712 -0.9719 -0.0706
  177SOPE  H17R20173   2.794   1.376   9.036  0.0945  0.7933  1.0500
  177SOPE  H17S20174   2.815   1.334   9.214  2.9213 -0.7828  1.2118
  177SOPE  C21820175   2.899   1.189   9.063 -0.4523 -0.3196 -0.1947
  177SOPE  H18R20176   2.813   1.122   9.044 -1.3456 -0.0231  2.3732
  177SOPE  H18S20177   2.967   1.141   9.137  0.8914  1.0834 -0.4705
  177SOPE  H18T20178   2.962   1.188   8.972  2.4832  1.1527  1.6652
  177SOPE   C3320179   3.196   1.715  10.241 -0.6101 -0.5797  0.7418
  177SOPE   H3X20180   3.093   1.744  10.270 -0.5066  0.9699 -0.3326
  177SOPE   H3Y20181   3.205   1.605  10.230 -0.6707 -0.4808 -0.4140
  177SOPE   C3420182   3.233   1.767  10.102 -0.0687  0.3014 -0.6865
  177SOPE   H4X20183   3.332   1.732  10.067  0.5491 -0.2744  1.5092
  177SOPE   H4Y20184   3.233   1.878  10.116  1.5381  0.3403 -0.8523
  177SOPE   C3520185   3.130   1.725   9.996 -0.2174  0.1502  0.5069
  177SOPE   H5X20186   3.033   1.777  10.011 -0.1789  0.4277 -0.1827
  177SOPE   H5Y20187   3.115   1.615   9.998  1.2558 -0.0873 -0.2368
  177SOPE   C3620188   3.178   1.776   9.853  0.2738  0.0960 -0.8001
  177SOPE   H6X20189   3.282   1.747   9.828  0.0120 -1.9624  0.3441
  177SOPE   H6Y20190   3.181   1.886   9.873  0.0084 -0.1323  0.6040
  177SOPE   C3720191   3.086   1.751   9.732  0.6339  0.3394  0.1536
  177SOPE   H7X20192   2.988   1.798   9.756 -0.3572 -2.1585  1.3343
  177SOPE   H7Y20193   3.076   1.641   9.722  1.8525  0.2651 -0.3474
  177SOPE   C3820194   3.148   1.820   9.615 -0.3309  0.0955  0.7007
  177SOPE   H8X20195   3.233   1.753   9.590 -0.4969  0.1028  0.1041
  177SOPE   H8Y20196   3.182   1.921   9.646  0.4087 -0.1950  0.8423
  177SOPE   C3920197   3.041   1.835   9.506  0.6187 -0.0730  0.1040
  177SOPE   H9X20198   2.974   1.916   9.542 -0.8459 -1.4093  0.4725
  177SOPE   H9Y20199   2.977   1.746   9.493 -0.3216  0.6829 -0.5188
  177SOPE  C31020200   3.093   1.879   9.366  0.4216 -0.0433 -0.3543
  177SOPE  H10X20201   3.165   1.803   9.328 -0.5021 -0.7973 -0.6385
  177SOPE  H10Y20202   3.154   1.971   9.356  0.1552  0.1065 -0.6226
  177SOPE  C31120203   2.974   1.883   9.271  0.1400  0.4109 -0.5066
  177SOPE  H11X20204   2.920   1.979   9.281  0.8533  0.5406  4.9426
  177SOPE  H11Y20205   2.898   1.803   9.285  0.0749  0.2192 -1.7609
  177SOPE  C31220206   3.017   1.870   9.117  0.2514  0.8571  0.5187
  177SOPE  H12X20207   2.924   1.872   9.056  0.3020 -0.0608  0.3950
  177SOPE  H12Y20208   3.067   1.771   9.120 -1.7369 -0.3170 -1.7031
  177SOPE  C31320209   3.110   1.982   9.065  0.1770  0.1550 -0.1305
  177SOPE  H13X20210   3.199   1.964   9.130 -0.8340 -1.5233  0.8675
  177SOPE  H13Y20211   3.067   2.083   9.081 -0.1147 -0.0421  0.3789
  177SOPE  C31420212   3.150   1.975   8.908 -0.4397  0.1608 -0.0698
  177SOPE  H14X20213   3.209   2.064   8.880 -0.5197 -0.3141 -1.8799
  177SOPE  H14Y20214   3.059   1.978   8.844 -2.0577 -1.8943  1.9354
  177SOPE  C31520215   3.222   1.840   8.866  0.3173  0.1958 -0.6259
  177SOPE  H15X20216   3.166   1.758   8.915 -1.0883 -0.2509 -2.8182
  177SOPE  H15Y20217   3.325   1.844   8.909 -0.4828  3.8213  1.3639
  177SOPE  C31620218   3.224   1.806   8.718 -0.0576 -0.2182  0.2527
  177SOPE  H16X20219   3.273   1.895   8.673  0.1810 -0.4280  0.0962
  177SOPE  H16Y20220   3.118   1.804   8.687  0.0358 -0.3317 -0.0608
  177SOPE  C31720221   3.301   1.680   8.687 -0.2052 -0.4410  0.6137
  177SOPE  H17X20222   3.241   1.608   8.746 -0.1376 -2.0625 -1.1857
  177SOPE  H17Y20223   3.399   1.680   8.739 -1.0080  1.9427  2.3262
  177SOPE  C31820224   3.288   1.639   8.538 -0.0893 -0.5255  0.0814
  177SOPE  H18X20225   3.299   1.530   8.521  3.4261  0.0605 -2.5804
  177SOPE  H18Y20226   3.365   1.690   8.477  0.3198  0.4690  1.3849
  177SOPE  H18Z20227   3.187   1.668   8.503  0.2868  1.2306  0.3502
  178SOPE     N20228   5.285   3.651  10.815  0.3530 -0.1150 -0.7338
  178SOPE   HN120229   5.218   3.576  10.840  0.3908 -0.0843 -0.5397
  178SOPE   HN220230   5.250   3.707  10.735  2.1744  0.8641 -0.9085
  178SOPE   HN320231   5.374   3.599  10.794  1.1306  0.6659  0.5050
  178SOPE   C1220232   5.305   3.747  10.927 -0.0603  1.0233 -0.3255
  178SOPE  H12A20233   5.413   3.769  10.943  0.5203 -1.1463 -0.8716
  178SOPE  H12B20234   5.260   3.690  11.011  0.4599  0.6724 -0.2750
  178SOPE   C1120235   5.239   3.879  10.903  0.2294 -0.4660  0.3102
  178SOPE  H11A20236   5.253   3.950  10.987  2.5475  0.0848 -0.4873
  178SOPE  H11B20237   5.131   3.857  10.885  0.1721 -0.2176  0.3460
  178SOPE     P20238   5.271   4.083  10.750 -0.0050  0.1201  0.0185
  178SOPE   O1320239   5.336   4.178  10.843 -0.2163 -0.5511  0.5271
  178SOPE   O1420240   5.127   4.098  10.732  0.0506 -0.6926  0.7173
  178SOPE   O1220241   5.307   3.937  10.796 -0.4004  0.4568 -0.7684
  178SOPE   O1120242   5.340   4.081  10.612 -0.2121 -0.0959  0.4366
  178SOPE    C120243   5.318   3.966  10.525 -0.0179 -0.3355  0.1529
  178SOPE    HA20244   5.223   3.973  10.468  0.7725  0.1112 -1.1609
  178SOPE    HB20245   5.326   3.867  10.574 -1.4958 -0.4476  0.1920
  178SOPE    C220246   5.434   3.989  10.419 -0.1023 -0.2929  0.2891
  178SOPE    HS20247   5.532   3.955  10.460  0.2576 -2.0932 -1.8494
  178SOPE   O2120248   5.432   4.125  10.384 -0.7204  0.3140 -0.3489
  178SOPE   C2120249   5.534   4.166  10.308 -0.2176  0.2113  0.0331
  178SOPE   O2220250   5.648   4.119  10.291 -0.2493 -0.7818 -0.1377
  178SOPE   C2220251   5.498   4.292  10.225 -0.0768  0.3479 -0.2122
  178SOPE   H2R20252   5.581   4.365  10.236  0.2235  0.2587 -1.6263
  178SOPE   H2S20253   5.406   4.348  10.254 -0.8854 -0.0516 -1.8904
  178SOPE    C320254   5.397   3.893  10.302  0.5723  0.3404 -0.1717
  178SOPE    HX20255   5.294   3.909  10.263  0.6214  1.1781  0.0150
  178SOPE    HY20256   5.399   3.796  10.354 -0.2357  0.5885  0.3243
  178SOPE   O3120257   5.485   3.898  10.186  0.8001  0.3865 -0.1894
  178SOPE   C3120258   5.606   3.834  10.198  0.1111  1.5014  0.6425
  178SOPE   O3220259   5.638   3.767  10.291  0.2268 -0.3493  0.2643
  178SOPE   C3220260   5.690   3.853  10.067  0.0954 -0.0604  0.7137
  178SOPE   H2X20261   5.796   3.836  10.098 -0.0246 -0.4934  0.8823
  178SOPE   H2Y20262   5.674   3.962  10.051 -3.6586 -0.2496  2.1711
  178SOPE   C2320263   5.473   4.271  10.074  0.0715  0.0333 -1.2365
  178SOPE   H3R20264   5.364   4.267  10.053 -0.5350 -0.2903  1.5974
  178SOPE   H3S20265   5.521   4.176  10.041  0.9316  0.2977 -0.7991
  178SOPE   C2420266   5.514   4.385   9.982 -0.3958  0.0435  0.6074
  178SOPE   H4R20267   5.476   4.485  10.010  1.5087  0.3110  2.5815
  178SOPE   H4S20268   5.625   4.388   9.968 -0.2831  1.8335  1.6349
  178SOPE   C2520269   5.460   4.351   9.832 -0.7267 -0.1925 -0.0215
  178SOPE   H5R20270   5.505   4.259   9.789  1.5435  0.6364  0.4183
  178SOPE   H5S20271   5.352   4.326   9.840 -0.8939 -1.0157 -3.2789
  178SOPE   C2620272   5.464   4.468   9.739 -0.3573 -0.5783 -0.8593
  178SOPE   H6R20273   5.399   4.548   9.781 -0.5282 -1.7251  1.1591
  178SOPE   H6S20274   5.569   4.502   9.736  0.4306 -2.8926 -1.5120
  178SOPE   C2720275   5.420   4.454   9.592  0.9518  0.7815  0.4516
  178SOPE   H7R20276   5.312   4.426   9.593  0.7565  1.4519 -0.4571
  178SOPE   H7S20277   5.440   4.550   9.541  1.8991  0.2161 -0.2789
  178SOPE   C2820278   5.485   4.347   9.502  0.5819  0.3629 -0.6823
  178SOPE   H8R20279   5.453   4.251   9.548  0.8229 -0.0424 -1.3441
  178SOPE   H8S20280   5.436   4.361   9.403  1.6185 -0.2939 -1.3018
  178SOPE   C2920281   5.635   4.369   9.518  0.3676  0.8520  0.6061
  178SOPE   H9120282   5.694   4.310   9.590  0.6093  1.5067  0.9530
  178SOPE  C21020283   5.707   4.438   9.437  0.3345  0.0097  0.7569
  178SOPE  H10120284   5.813   4.444   9.467  1.3531 -2.2462 -1.8712
  178SOPE  C21120285   5.664   4.521   9.319 -0.6082 -0.1064 -0.0233
  178SOPE  H11R20286   5.703   4.624   9.332  0.2775 -0.2770 -1.2084
  178SOPE  H11S20287   5.553   4.524   9.314 -0.5816  2.3156 -0.9000
  178SOPE  C21220288   5.729   4.476   9.181 -0.3949  0.6196 -0.5951
  178SOPE  H12R20289   5.839   4.472   9.195 -0.4812  1.0475  0.2081
  178SOPE  H12S20290   5.721   4.548   9.096  1.5724  0.6125 -0.8421
  178SOPE  C21320291   5.660   4.349   9.126 -0.4175 -0.6094  0.0422
  178SOPE  H13R20292   5.574   4.380   9.064  0.4255  0.2526 -0.7392
  178SOPE  H13S20293   5.634   4.291   9.217  2.6579 -1.6603  0.3854
  178SOPE  C21420294   5.744   4.258   9.040 -0.2044  0.2935  0.3736
  178SOPE  H14R20295   5.687   4.166   9.016 -0.8859  0.2009  2.2087
  178SOPE  H14S20296   5.833   4.218   9.094  1.1213  2.1140 -0.3592
  178SOPE  C21520297   5.806   4.324   8.918 -0.1460  0.6948 -0.1737
  178SOPE  H15R20298   5.877   4.403   8.954 -1.0372  1.0022  0.9767
  178SOPE  H15S20299   5.731   4.385   8.862  0.5437  1.1802 -0.5935
  178SOPE  C21620300   5.865   4.231   8.819 -0.5208 -0.0570 -0.0108
  178SOPE  H16R20301   5.787   4.171   8.768  0.4513 -0.4533 -1.0499
  178SOPE  H16S20302   5.944   4.169   8.867  0.0184  0.3239 -0.4008
  178SOPE  C21720303   5.923   4.300   8.699  0.0657  0.3890  0.3741
  178SOPE  H17R20304   5.844   4.358   8.646  1.0379  2.0071  0.6315
  178SOPE  H17S20305   5.963   4.229   8.623  1.8435  1.3700  0.3240
  178SOPE  C21820306   6.051   4.379   8.728 -0.5151  0.6799 -0.2907
  178SOPE  H18R20307   6.025   4.466   8.793 -2.9003 -0.5128  0.4657
  178SOPE  H18S20308   6.092   4.420   8.634 -2.0447  0.0356 -1.2809
  178SOPE  H18T20309   6.134   4.319   8.770 -1.2797 -1.1352 -1.2842
  178SOPE   C3320310   5.650   3.779   9.940  0.0501 -0.0719  0.4476
  178SOPE   H3X20311   5.545   3.745   9.949 -0.5177  1.3329 -0.5593
  178SOPE   H3Y20312   5.711   3.689   9.917  1.2059  0.3140  1.8039
  178SOPE   C3420313   5.670   3.870   9.813  0.1937 -0.3262  0.1918
  178SOPE   H4X20314   5.747   3.947   9.834  0.3387 -0.5448  0.4781
  178SOPE   H4Y20315   5.568   3.913   9.802 -0.0346 -0.3744  1.8522
  178SOPE   C3520316   5.709   3.782   9.692  0.4705 -0.8550  0.6791
  178SOPE   H5X20317   5.629   3.708   9.673  1.3789 -1.3750 -1.5202
  178SOPE   H5Y20318   5.801   3.721   9.707  0.5592 -0.6321  1.0367
  178SOPE   C3620319   5.731   3.855   9.556 -0.6752 -0.1001 -0.2355
  178SOPE   H6X20320   5.815   3.927   9.567 -1.7685  1.4306 -1.5334
  178SOPE   H6Y20321   5.638   3.910   9.529 -0.9499  2.1611  4.3345
  178SOPE   C3720322   5.762   3.753   9.442 -0.0444  0.7207  0.0714
  178SOPE   H7X20323   5.689   3.669   9.449  0.8766 -0.2077 -0.8704
  178SOPE   H7Y20324   5.861   3.708   9.465  0.6583  2.0314 -0.3169
  178SOPE   C3820325   5.757   3.809   9.302 -0.5016 -0.5099 -0.3752
  178SOPE   H8X20326   5.787   3.734   9.226 -3.5159  0.4938 -2.7716
  178SOPE   H8Y20327   5.816   3.903   9.288 -1.5361  0.0484 -1.0944
  178SOPE   C3920328   5.620   3.848   9.255  0.8402 -0.5934 -0.5778
  178SOPE   H9X20329   5.577   3.928   9.319  2.0634  1.0323 -1.6735
  178SOPE   H9Y20330   5.553   3.761   9.263  2.2245 -1.7144 -0.7041
  178SOPE  C31020331   5.619   3.896   9.112 -0.7167  0.7774 -0.5216
  178SOPE  H10X20332   5.637   3.806   9.050  0.0029  1.0236 -0.6822
  178SOPE  H10Y20333   5.704   3.960   9.080 -0.0161  0.1496  0.0677
  178SOPE  C31120334   5.491   3.966   9.062 -0.0622 -0.2028  0.5889
  178SOPE  H11X20335   5.478   4.064   9.112  1.3632  1.6539 -2.3932
  178SOPE  H11Y20336   5.402   3.909   9.096  1.7075 -2.6255  1.4154
  178SOPE  C31220337   5.493   3.978   8.910 -0.0460 -0.0292 -0.1245
  178SOPE  H12X20338   5.505   3.876   8.867 -0.6425 -0.3128  0.3634
  178SOPE  H12Y20339   5.581   4.038   8.880 -0.4010  0.0980 -0.9351
  178SOPE  C31320340   5.363   4.044   8.857 -0.0029 -0.4153 -0.1615
  178SOPE  H13X20341   5.364   4.146   8.903 -0.2073 -0.0035 -1.0422
  178SOPE  H13Y20342   5.280   3.993   8.909  1.2541  1.1453  3.7999
  178SOPE  C31420343   5.361   4.078   8.712  0.1354 -0.0355  0.3722
  178SOPE  H14X20344   5.357   3.981   8.658 -0.3325  0.7379 -1.0238
  178SOPE  H14Y20345   5.456   4.132   8.689 -0.0913  0.3193  0.2685
  178SOPE  C31520346   5.246   4.166   8.667  0.3220  0.8704  0.7585
  178SOPE  H15X20347   5.251   4.259   8.728 -0.6220 -0.4034  2.8868
  178SOPE  H15Y20348   5.143   4.126   8.684 -0.2503  1.8011 -0.3682
  178SOPE  C31620349   5.252   4.206   8.517  0.1335  0.1586  0.2785
  178SOPE  H16X20350   5.257   4.116   8.451  0.5322  0.3001  0.1103
  178SOPE  H16Y20351   5.353   4.252   8.509  0.1243  0.3157  0.9937
  178SOPE  C31720352   5.152   4.306   8.471 -0.5165 -0.2430  0.2549
  178SOPE  H17X20353   5.134   4.385   8.547 -0.0245  0.4299 -0.3131
  178SOPE  H17Y20354   5.056   4.251   8.469 -0.7025  0.0123  1.5331
  178SOPE  C31820355   5.193   4.362   8.330 -0.0892 -0.4765 -0.0115
  178SOPE  H18X20356   5.269   4.437   8.361 -2.4707  2.0661  0.1279
  178SOPE  H18Y20357   5.099   4.408   8.292 -0.7457 -0.4993  1.5065
  178SOPE  H18Z20358   5.233   4.271   8.282 -0.0199 -0.1687 -0.5452
  179SOPE     N20359   4.974   6.391   6.481 -0.3996  0.6138 -0.1161
  179SOPE   HN120360   4.996   6.295   6.448 -2.3320  0.2191 -0.3429
  179SOPE   HN220361   4.877   6.416   6.454 -0.0956  2.6724  0.4584
  179SOPE   HN320362   5.049   6.443   6.429  0.1006  0.5811  0.5641
  179SOPE   C1220363   5.026   6.385   6.628 -0.6180  0.1147  0.2551
  179SOPE  H12A20364   5.006   6.480   6.682 -1.6308 -0.6126  1.2227
  179SOPE  H12B20365   5.136   6.373   6.617 -0.8735 -0.8804 -1.5563
  179SOPE   C1120366   4.967   6.267   6.699 -0.6767 -0.0810  0.2427
  179SOPE  H11A20367   4.857   6.275   6.683 -0.8487  0.5138  1.5723
  179SOPE  H11B20368   4.997   6.279   6.805  1.6953  0.7852 -0.4652
  179SOPE     P20369   5.152   6.081   6.663  0.3556 -0.2365  0.3494
  179SOPE   O1320370   5.231   6.181   6.732 -0.2503 -0.0676  0.3598
  179SOPE   O1420371   5.199   6.028   6.531 -0.1220  0.3913 -0.3378
  179SOPE   O1220372   5.005   6.147   6.639 -0.3874  0.0459 -0.3236
  179SOPE   O1120373   5.123   5.960   6.754 -0.2015  0.3024  0.1863
  179SOPE    C120374   5.105   5.830   6.699 -0.5177  1.0171 -0.4059
  179SOPE    HA20375   5.193   5.802   6.637  0.2564  1.7024  0.3535
  179SOPE    HB20376   5.019   5.826   6.629  0.4906  3.0006 -1.8848
  179SOPE    C220377   5.082   5.725   6.815  0.1020 -0.3169  0.1076
  179SOPE    HS20378   5.136   5.641   6.767 -0.0360 -1.7345  2.2857
  179SOPE   O2120379   4.943   5.709   6.837  0.6131  0.2711 -0.3325
  179SOPE   C2120380   4.905   5.591   6.882  0.1315 -0.3096  0.0715
  179SOPE   O2220381   4.975   5.494   6.876  0.5778  0.4612  0.7820
  179SOPE   C2220382   4.758   5.593   6.925  0.0044 -0.0501  0.4644
  179SOPE   H2R20383   4.731   5.491   6.960 -0.0891 -0.9028 -1.8991
  179SOPE   H2S20384   4.692   5.620   6.839  0.8653  1.3245  0.2001
  179SOPE    C320385   5.153   5.772   6.934 -0.3795 -0.1844 -0.6830
  179SOPE    HX20386   5.094   5.861   6.966 -0.0279  0.1886 -1.0534
  179SOPE    HY20387   5.261   5.790   6.912  0.6250 -2.3177  1.8623
  179SOPE   O3120388   5.141   5.674   7.043  0.0082  0.5220  0.0681
  179SOPE   C3120389   5.215   5.569   7.039 -0.2027 -0.6710 -0.0431
  179SOPE   O3220390   5.296   5.548   6.948 -0.2971  0.1865 -1.0306
  179SOPE   C3220391   5.173   5.483   7.158 -0.5117 -0.2872 -1.2261
  179SOPE   H2X20392   5.234   5.390   7.150  0.0626 -0.6042  3.8531
  179SOPE   H2Y20393   5.064   5.463   7.146 -0.7152  1.3728 -2.5704
  179SOPE   C2320394   4.737   5.705   7.031  1.4747 -0.0779  0.4541
  179SOPE   H3R20395   4.630   5.703   7.058  1.6330 -1.1897  1.0287
  179SOPE   H3S20396   4.763   5.808   6.998  1.2389 -0.6778 -1.7705
  179SOPE   C2420397   4.802   5.669   7.160 -0.6093 -0.2413  1.1022
  179SOPE   H4R20398   4.773   5.563   7.176 -1.6844 -0.0844  0.2856
  179SOPE   H4S20399   4.911   5.685   7.143 -0.9365 -0.1580 -1.3624
  179SOPE   C2520400   4.751   5.769   7.272 -0.2814 -0.2178 -0.1546
  179SOPE   H5R20401   4.803   5.865   7.254  0.4059 -0.8562 -1.7236
  179SOPE   H5S20402   4.641   5.781   7.270 -0.1616  1.3381 -2.9179
  179SOPE   C2620403   4.783   5.707   7.412  0.0922  0.0666 -0.5446
  179SOPE   H6R20404   4.711   5.628   7.441 -0.4904  0.3499 -1.1922
  179SOPE   H6S20405   4.887   5.668   7.413  0.7735  1.7889 -0.3113
  179SOPE   C2720406   4.791   5.817   7.520  0.2294  0.1115  0.0489
  179SOPE   H7R20407   4.847   5.776   7.607 -1.5276 -0.7653  0.8150
  179SOPE   H7S20408   4.850   5.899   7.474 -1.9913  0.8861 -1.6192
  179SOPE   C2820409   4.657   5.883   7.561 -0.8240 -0.2049 -0.1628
  179SOPE   H8R20410   4.599   5.903   7.469  0.8823 -0.5390 -1.3671
  179SOPE   H8S20411   4.598   5.808   7.617 -1.7211 -0.8822 -1.9247
  179SOPE   C2920412   4.679   6.010   7.644 -0.4492  0.6776  0.0779
  179SOPE   H9120413   4.688   6.101   7.583  0.8473 -0.2063 -1.1111
  179SOPE  C21020414   4.687   6.012   7.779 -0.1879  0.2592 -0.2436
  179SOPE  H10120415   4.696   6.110   7.828 -0.5684  1.1499 -1.8655
  179SOPE  C21120416   4.686   5.888   7.870  0.0322 -0.3475 -0.4450
  179SOPE  H11R20417   4.791   5.862   7.893  0.2670  0.8704 -0.0693
  179SOPE  H11S20418   4.634   5.800   7.825 -1.9248 -0.0581  1.0974
  179SOPE  C21220419   4.626   5.917   8.014  0.1878  0.1981  0.0135
  179SOPE  H12R20420   4.633   5.822   8.071  1.9844  0.0418 -0.3787
  179SOPE  H12S20421   4.523   5.952   7.992 -0.2836 -0.0578  1.6870
  179SOPE  C21320422   4.713   6.026   8.094 -0.0207  0.1908  0.3926
  179SOPE  H13R20423   4.704   6.122   8.040 -0.5756  0.3671  0.7841
  179SOPE  H13S20424   4.819   5.992   8.096  0.1967  0.5571 -2.0421
  179SOPE  C21420425   4.661   6.054   8.237  0.2582 -0.4095  0.1064
  179SOPE  H14R20426   4.551   6.055   8.246  0.0895 -2.8125 -0.8294
  179SOPE  H14S20427   4.681   6.160   8.265  1.1745 -0.2479 -1.0638
  179SOPE  C21520428   4.733   5.961   8.336  0.5383  1.0151  0.1700
  179SOPE  H15R20429   4.842   5.984   8.333  0.9410 -0.7053  0.6569
  179SOPE  H15S20430   4.716   5.855   8.310  1.7179  0.1063  2.6829
  179SOPE  C21620431   4.666   5.979   8.468 -0.0476  0.0649 -0.5578
  179SOPE  H16R20432   4.557   5.986   8.448 -0.6425  0.1775  2.3213
  179SOPE  H16S20433   4.686   6.082   8.505 -0.6373  0.0256 -0.1055
  179SOPE  C21720434   4.717   5.868   8.549 -0.0659  0.1204  0.4864
  179SOPE  H17R20435   4.827   5.879   8.562  0.2095 -1.2043 -0.5166
  179SOPE  H17S20436   4.709   5.764   8.513  2.2748 -0.6807  2.0753
  179SOPE  C21820437   4.652   5.868   8.687  0.2199 -0.2365  0.3308
  179SOPE  H18R20438   4.716   5.814   8.759  0.0819  1.0150  1.4317
  179SOPE  H18S20439   4.556   5.812   8.691 -0.9344  1.7328  1.7536
  179SOPE  H18T20440   4.646   5.971   8.728 -0.0502 -0.5760  1.1726
  179SOPE   C3320441   5.199   5.543   7.298  0.4799  0.0743 -0.1728
  179SOPE   H3X20442   5.109   5.546   7.364 -0.3618  1.1019 -1.3196
  179SOPE   H3Y20443   5.226   5.650   7.287  1.4351 -0.1974 -0.5770
  179SOPE   C3420444   5.308   5.483   7.387 -0.2905 -0.1761 -0.4010
  179SOPE   H4X20445   5.403   5.497   7.332 -0.3739 -3.8965 -1.7211
  179SOPE   H4Y20446   5.304   5.372   7.386  1.7956 -0.2995 -2.3319
  179SOPE   C3520447   5.310   5.532   7.535 -0.2625 -0.8312 -0.1267
  179SOPE   H5X20448   5.218   5.502   7.588  0.2730 -0.9127  0.7749
  179SOPE   H5Y20449   5.294   5.642   7.532  0.3297 -0.7547 -0.7342
  179SOPE   C3620450   5.430   5.492   7.620 -0.1214 -0.6244 -0.6792
  179SOPE   H6X20451   5.522   5.544   7.586  0.9673 -2.0098  0.0338
  179SOPE   H6Y20452   5.461   5.385   7.611 -0.9199 -0.9829  0.6246
  179SOPE   C3720453   5.410   5.519   7.768  0.1559  0.2749  0.4742
  179SOPE   H7X20454   5.320   5.463   7.802  0.1261 -1.2347 -1.8006
  179SOPE   H7Y20455   5.370   5.621   7.782  1.2363  0.6016  1.3310
  179SOPE   C3820456   5.529   5.497   7.854  0.0690  0.3199  0.5160
  179SOPE   H8X20457   5.601   5.571   7.813 -3.2029  2.6485 -1.4005
  179SOPE   H8Y20458   5.559   5.390   7.855  0.8279  0.5166  1.9389
  179SOPE   C3920459   5.507   5.526   7.996 -0.4740  0.2824 -0.1842
  179SOPE   H9X20460   5.436   5.612   7.998  1.1305  1.6754  2.0553
  179SOPE   H9Y20461   5.587   5.579   8.052 -1.3985 -0.2135  1.6861
  179SOPE  C31020462   5.466   5.411   8.091  0.6966  0.3313  0.0690
  179SOPE  H10X20463   5.542   5.333   8.116 -0.5004 -1.0343 -0.4064
  179SOPE  H10Y20464   5.378   5.366   8.040  0.4414  2.3152 -1.3517
  179SOPE  C31120465   5.417   5.458   8.239 -0.1721 -0.5845  0.0578
  179SOPE  H11X20466   5.356   5.380   8.289  0.4619 -0.0796  1.7013
  179SOPE  H11Y20467   5.345   5.541   8.221 -0.4621 -0.5668  1.2266
  179SOPE  C31220468   5.525   5.513   8.342 -0.3081 -0.5356 -0.4722
  179SOPE  H12X20469   5.595   5.584   8.293 -2.0558  1.1348 -0.6448
  179SOPE  H12Y20470   5.582   5.427   8.385 -0.8567  0.5983  2.8108
  179SOPE  C31320471   5.469   5.598   8.462 -0.1908 -0.3973  0.1878
  179SOPE  H13X20472   5.387   5.659   8.418 -0.0106 -0.2830  0.0124
  179SOPE  H13Y20473   5.547   5.661   8.510  1.4628 -3.5915  1.9881
  179SOPE  C31420474   5.390   5.509   8.557 -0.0815  0.6987 -0.3349
  179SOPE  H14X20475   5.457   5.430   8.596 -0.9793 -0.1759 -0.5213
  179SOPE  H14Y20476   5.311   5.457   8.498 -1.2136  0.3375  1.4146
  179SOPE  C31520477   5.324   5.583   8.668  0.0025 -0.2411  0.6911
  179SOPE  H15X20478   5.245   5.523   8.717  1.7021 -1.8880  1.5462
  179SOPE  H15Y20479   5.260   5.668   8.634 -1.9632 -0.7382  2.8807
  179SOPE  C31620480   5.418   5.623   8.784 -0.1029  0.7045  0.3011
  179SOPE  H16X20481   5.366   5.696   8.850 -2.7925 -0.5603 -0.3131
  179SOPE  H16Y20482   5.509   5.675   8.747 -0.0500 -0.0434 -0.6437
  179SOPE  C31720483   5.463   5.493   8.859 -0.5236 -0.3758 -0.2486
  179SOPE  H17X20484   5.558   5.464   8.810 -1.4143 -2.3351 -0.9313
  179SOPE  H17Y20485   5.391   5.409   8.849 -0.7273 -0.3211  0.6649
  179SOPE  C31820486   5.485   5.525   9.009  0.0202  0.5401  0.4550
  179SOPE  H18X20487   5.393   5.565   9.058  0.5540  3.7630 -0.8885
  179SOPE  H18Y20488   5.552   5.612   9.022 -0.6644  1.2655 -0.6745
  179SOPE  H18Z20489   5.524   5.431   9.053  0.1771 -0.2396 -1.2977
  180SOPE     N20490   3.395   1.991   6.214  0.1499 -0.7441 -0.0765
  180SOPE   HN120491   3.395   1.898   6.168 -1.1628 -0.2559 -1.1546
  180SOPE   HN220492   3.447   1.980   6.303  0.6313 -2.8555 -0.5636
  180SOPE   HN320493   3.304   2.030   6.246 -0.3034 -2.0395  0.2726
  180SOPE   C1220494   3.455   2.100   6.119 -0.4943 -0.1726  0.0019
  180SOPE  H12A20495   3.376   2.111   6.042  0.7207 -1.3731 -1.4687
  180SOPE  H12B20496   3.535   2.053   6.059 -0.6647 -2.4212  1.4253
  180SOPE   C1120497   3.482   2.232   6.192 -0.4170  0.2256 -0.0214
  180SOPE  H11A20498   3.554   2.282   6.123  1.9814 -1.8795  0.8091
  180SOPE  H11B20499   3.550   2.230   6.280  1.1612  1.8738 -1.1095
  180SOPE     P20500   3.266   2.299   6.331  0.0720  0.1470  0.4444
  180SOPE   O1320501   3.182   2.180   6.301  0.6884 -0.5102 -0.0059
  180SOPE   O1420502   3.195   2.424   6.370  0.1495 -0.4127 -0.0705
  180SOPE   O1220503   3.366   2.321   6.210 -0.1652  0.0407 -0.3056
  180SOPE   O1120504   3.350   2.255   6.461 -0.6947 -0.6036 -0.1979
  180SOPE    C120505   3.451   2.344   6.520  0.2939  0.5345  0.9886
  180SOPE    HA20506   3.440   2.441   6.468  1.0253  0.7626  1.2541
  180SOPE    HB20507   3.554   2.311   6.494 -0.5346 -1.6152  0.1161
  180SOPE    C220508   3.428   2.370   6.672 -0.0530  0.9542  0.9289
  180SOPE    HS20509   3.496   2.452   6.703  2.0327 -1.1554  2.4108
  180SOPE   O2120510   3.460   2.254   6.753  1.1035 -0.1097 -0.5121
  180SOPE   C2120511   3.590   2.218   6.754  0.0844  0.1432 -0.8118
  180SOPE   O2220512   3.681   2.270   6.694 -0.0430  0.0984 -0.1352
  180SOPE   C2220513   3.600   2.097   6.847 -0.0614 -0.4044  0.2207
  180SOPE   H2R20514   3.693   2.042   6.819  0.1323  1.0413 -2.2999
  180SOPE   H2S20515   3.508   2.039   6.829  1.0120 -2.5707  1.2714
  180SOPE    C320516   3.286   2.407   6.711  0.3326  0.6078  0.3747
  180SOPE    HX20517   3.221   2.319   6.692  0.1134  0.6557  0.9044
  180SOPE    HY20518   3.248   2.488   6.645 -0.7116 -0.8159 -0.8313
  180SOPE   O3120519   3.281   2.445   6.851 -0.7000  0.5817  0.0862
  180SOPE   C3120520   3.163   2.465   6.896 -0.1519 -0.5865  0.1702
  180SOPE   O3220521   3.059   2.451   6.839  0.8759 -0.0869  0.0995
  180SOPE   C3220522   3.178   2.534   7.032 -0.1511 -0.9836 -0.5234
  180SOPE   H2X20523   3.239   2.626   7.019 -0.0688 -1.0524 -0.6245
  180SOPE   H2Y20524   3.237   2.464   7.094  0.7847  0.5439  0.3765
  180SOPE   C2320525   3.628   2.142   6.991  0.1081 -0.2881 -0.3454
  180SOPE   H3R20526   3.722   2.201   6.995  0.0244 -0.1566 -0.2858
  180SOPE   H3S20527   3.643   2.058   7.062 -1.4871  0.1205  0.5122
  180SOPE   C2420528   3.516   2.229   7.059 -0.5753  0.1452 -0.0073
  180SOPE   H4R20529   3.521   2.327   7.006  2.8766 -0.4302 -0.9379
  180SOPE   H4S20530   3.422   2.169   7.058 -0.9125  0.6636 -0.8627
  180SOPE   C2520531   3.559   2.262   7.203 -0.0694  0.4225 -0.4412
  180SOPE   H5R20532   3.645   2.333   7.212  0.6215 -0.6176  2.1231
  180SOPE   H5S20533   3.477   2.325   7.244 -1.2716 -0.5892 -1.2179
  180SOPE   C2620534   3.563   2.137   7.294  0.8718 -0.6232 -0.5675
  180SOPE   H6R20535   3.479   2.073   7.261 -1.3079  0.8062  1.8519
  180SOPE   H6S20536   3.663   2.091   7.278  0.8312 -0.3951 -1.5211
  180SOPE   C2720537   3.559   2.177   7.448  0.2880  0.7104 -0.8334
  180SOPE   H7R20538   3.646   2.246   7.460  0.9390 -0.3454  1.1056
  180SOPE   H7S20539   3.462   2.230   7.459 -0.2910 -0.2082 -1.4078
  180SOPE   C2820540   3.563   2.055   7.550  0.6809 -0.3349 -0.6135
  180SOPE   H8R20541   3.470   1.993   7.548 -0.6320  1.5604 -0.9488
  180SOPE   H8S20542   3.643   1.997   7.499 -0.8215 -0.7566 -2.6084
  180SOPE   C2920543   3.623   2.088   7.685  0.3606 -0.1273 -0.3684
  180SOPE   H9120544   3.728   2.121   7.675  0.4549 -0.8418 -2.2350
  180SOPE  C21020545   3.567   2.068   7.807  0.3972 -0.3153 -0.0460
  180SOPE  H10120546   3.619   2.094   7.900  0.0470 -1.3401  0.4503
  180SOPE  C21120547   3.419   2.021   7.817 -0.2855 -0.0346 -0.7015
  180SOPE  H11R20548   3.419   1.910   7.812  0.2760 -0.0978  0.4404
  180SOPE  H11S20549   3.359   2.062   7.733  0.1902 -0.4341 -1.2471
  180SOPE  C21220550   3.368   2.070   7.953 -0.1211 -1.0821 -0.1003
  180SOPE  H12R20551   3.348   2.178   7.939  1.0534 -0.6175  1.4746
  180SOPE  H12S20552   3.444   2.064   8.034 -0.6842 -0.9694  0.4438
  180SOPE  C21320553   3.245   2.008   8.010 -0.3457  0.4123 -0.1127
  180SOPE  H13R20554   3.158   2.027   7.944  0.7812 -1.1003 -2.1637
  180SOPE  H13S20555   3.226   2.050   8.111 -1.7341 -0.4513  0.0180
  180SOPE  C21420556   3.264   1.860   8.036  0.0564  0.0469 -0.2641
  180SOPE  H14R20557   3.369   1.834   8.064 -0.5754 -2.8529 -0.2207
  180SOPE  H14S20558   3.243   1.807   7.940 -1.8677 -2.1253  1.2510
  180SOPE  C21520559   3.180   1.803   8.148 -0.0214 -0.4314 -0.0348
  180SOPE  H15R20560   3.073   1.802   8.119 -0.0177  2.3348 -0.4441
  180SOPE  H15S20561   3.182   1.869   8.237  1.7164  1.1138 -1.1200
  180SOPE  C21620562   3.226   1.665   8.190 -0.3336  0.2908  0.8461
  180SOPE  H16R20563   3.181   1.650   8.290 -1.2279  0.1620  0.4385
  180SOPE  H16S20564   3.337   1.672   8.198 -0.2875  0.7553 -0.0095
  180SOPE  C21720565   3.173   1.565   8.093 -0.7662  0.5980 -0.4180
  180SOPE  H17R20566   3.233   1.565   7.999 -1.2950 -0.6853 -0.7802
  180SOPE  H17S20567   3.070   1.585   8.058 -0.2865  0.1594 -2.1676
  180SOPE  C21820568   3.181   1.424   8.150 -0.8327 -0.0505  0.8253
  180SOPE  H18R20569   3.277   1.370   8.137 -1.1174 -0.8216  1.7754
  180SOPE  H18S20570   3.097   1.359   8.116 -2.0832  1.0934  1.6184
  180SOPE  H18T20571   3.169   1.423   8.261  1.5385 -1.4829  1.1195
  180SOPE   C3320572   3.051   2.578   7.110 -0.2868 -0.0517 -1.3992
  180SOPE   H3X20573   2.995   2.484   7.132  3.0982 -1.7823  0.6368
  180SOPE   H3Y20574   2.986   2.646   7.050 -1.8232  2.2573  2.5175
  180SOPE   C3420575   3.111   2.638   7.247  0.2482 -0.1735  0.4884
  180SOPE   H4X20576   3.184   2.712   7.208 -1.1008  0.6630 -0.5458
  180SOPE   H4Y20577   3.169   2.558   7.298  1.9904  0.6161 -0.1655
  180SOPE   C3520578   3.009   2.707   7.339 -0.5616  0.4505  0.8740
  180SOPE   H5X20579   2.925   2.637   7.359 -0.3940 -0.2686 -0.8098
  180SOPE   H5Y20580   2.974   2.798   7.285  1.1243  1.7676  1.8833
  180SOPE   C3620581   3.062   2.748   7.477 -0.4947 -0.4849 -0.1283
  180SOPE   H6X20582   3.158   2.803   7.467 -1.8004  1.7782 -0.8519
  180SOPE   H6Y20583   3.078   2.654   7.535 -0.5429  0.2777  1.1669
  180SOPE   C3720584   2.972   2.829   7.563  0.1198  0.3500  0.8078
  180SOPE   H7X20585   2.885   2.766   7.592 -0.6133  0.5774 -0.8061
  180SOPE   H7Y20586   2.928   2.908   7.499  1.0403  0.9372  0.8791
  180SOPE   C3820587   3.022   2.888   7.690 -0.4603  0.2713  0.3253
  180SOPE   H8X20588   2.937   2.938   7.742  1.8022  2.0286  2.5677
  180SOPE   H8Y20589   3.090   2.975   7.676  1.7162 -0.8105  3.1408
  180SOPE   C3920590   3.083   2.805   7.801  0.3129  0.0101 -0.0762
  180SOPE   H9X20591   3.181   2.769   7.763  0.4795 -1.3594  1.5230
  180SOPE   H9Y20592   3.015   2.719   7.813  1.7911 -1.4615 -1.7172
  180SOPE  C31020593   3.101   2.884   7.934  0.1718 -0.5262 -0.0077
  180SOPE  H10X20594   3.001   2.924   7.961  0.5553  0.6805 -0.3408
  180SOPE  H10Y20595   3.158   2.975   7.907 -3.5338  2.2047  0.7463
  180SOPE  C31120596   3.155   2.813   8.057  0.3798  0.7438  0.1375
  180SOPE  H11X20597   3.239   2.750   8.020 -0.7531  0.3838 -1.9864
  180SOPE  H11Y20598   3.081   2.736   8.087  1.3588  0.6577  2.5251
  180SOPE  C31220599   3.203   2.914   8.162  0.9497 -0.7426  0.6929
  180SOPE  H12X20600   3.120   2.985   8.184  1.3799  0.8980 -2.4775
  180SOPE  H12Y20601   3.284   2.979   8.123 -0.5149  1.1132  0.5539
  180SOPE  C31320602   3.236   2.837   8.295  0.7013  0.1198  0.1286
  180SOPE  H13X20603   3.319   2.765   8.277 -0.0693 -0.4083 -1.4862
  180SOPE  H13Y20604   3.149   2.779   8.331  0.9866 -0.2442  0.2409
  180SOPE  C31420605   3.271   2.934   8.407 -0.4929  0.4670 -0.4952
  180SOPE  H14X20606   3.353   3.002   8.374  1.4108 -0.6334  1.6825
  180SOPE  H14Y20607   3.311   2.865   8.484 -1.7670  0.6768  0.3721
  180SOPE  C31520608   3.150   3.007   8.478  0.7103  0.2657  0.0068
  180SOPE  H15X20609   3.088   2.923   8.516  0.6113  0.3847  0.1067
  180SOPE  H15Y20610   3.103   3.073   8.402  3.8012  1.5667 -0.9568
  180SOPE  C31620611   3.196   3.097   8.593 -0.1153 -0.0384  0.6756
  180SOPE  H16X20612   3.279   3.162   8.557 -0.3822  0.4736  0.9797
  180SOPE  H16Y20613   3.223   3.042   8.685 -0.3607 -1.1354  0.1160
  180SOPE  C31720614   3.093   3.203   8.619  0.1408 -0.3727  0.2191
  180SOPE  H17X20615   3.066   3.270   8.534  0.4759 -0.0014  0.4005
  180SOPE  H17Y20616   3.118   3.272   8.703 -2.2009  0.6025  0.1756
  180SOPE  C31820617   2.953   3.151   8.646  0.5120  0.2847 -0.2744
  180SOPE  H18X20618   2.891   3.241   8.666 -0.5535 -0.6247  0.6635
  180SOPE  H18Y20619   2.950   3.090   8.738  2.1877  0.4550 -0.0892
  180SOPE  H18Z20620   2.911   3.092   8.561  0.0951  2.3997 -1.6335
  181SOPE     N20621   3.991   5.039   6.433  0.3832 -0.7977  0.0297
  181SOPE   HN120622   3.888   5.054   6.446  0.7394 -0.3479  3.3965
  181SOPE   HN220623   4.008   4.942   6.465  0.6316 -1.0495 -0.8511
  181SOPE   HN320624   4.037   5.113   6.491 -0.7702 -0.8360  1.0623
  181SOPE   C1220625   4.035   5.046   6.288  0.1963  0.0722  0.1095
  181SOPE  H12A20626   4.139   5.009   6.299  0.8514  2.0270  0.7878
  181SOPE  H12B20627   4.030   5.151   6.253 -1.5552  0.4589  1.3552
  181SOPE   C1120628   3.955   4.962   6.182 -0.5425  0.2005  0.2689
  181SOPE  H11A20629   4.006   4.963   6.083 -1.3323  0.6691 -0.1487
  181SOPE  H11B20630   3.851   4.997   6.163 -0.5321 -0.4585 -1.1860
  181SOPE     P20631   3.921   4.712   6.134 -0.0967  0.1052 -0.6240
  181SOPE   O1320632   4.049   4.670   6.071 -0.1467 -0.2347 -0.1129
  181SOPE   O1420633   3.811   4.742   6.036 -0.1794  0.1361  0.0498
  181SOPE   O1220634   3.946   4.830   6.238  0.0577 -0.4135 -0.6922
  181SOPE   O1120635   3.866   4.600   6.231  0.1153 -0.0051 -0.0716
  181SOPE    C120636   3.756   4.628   6.316  0.0188  0.3763 -0.4348
  181SOPE    HA20637   3.708   4.531   6.344  3.5984 -1.5922 -0.6180
  181SOPE    HB20638   3.675   4.684   6.265 -0.2397 -0.1321 -0.5961
  181SOPE    C220639   3.795   4.693   6.452  0.6899  0.8220 -0.0117
  181SOPE    HS20640   3.834   4.795   6.432 -0.2685  1.3212  0.6017
  181SOPE   O2120641   3.885   4.613   6.530 -0.6046 -0.1881  0.4335
  181SOPE   C2120642   3.983   4.677   6.607  0.3897  0.5383  0.2675
  181SOPE   O2220643   4.000   4.796   6.603 -0.0141  0.0891  0.2891
  181SOPE   C2220644   4.054   4.583   6.708 -0.6471 -0.0902  0.1249
  181SOPE   H2R20645   4.152   4.575   6.654  0.1711  2.2732  1.1364
  181SOPE   H2S20646   4.001   4.486   6.706 -1.4135  0.3287 -0.5777
  181SOPE    C320647   3.664   4.720   6.532 -0.1186 -0.4473  0.0166
  181SOPE    HX20648   3.616   4.623   6.560 -0.1940 -0.0057  1.4922
  181SOPE    HY20649   3.593   4.772   6.465 -0.0947 -0.5995 -0.1290
  181SOPE   O3120650   3.685   4.797   6.656  0.1353 -0.2858  0.5734
  181SOPE   C3120651   3.568   4.836   6.705 -0.6931 -0.1231  0.3324
  181SOPE   O3220652   3.460   4.800   6.664  0.2112 -0.3959 -0.5637
  181SOPE   C3220653   3.596   4.940   6.808  0.0994 -0.9594  0.0964
  181SOPE   H2X20654   3.598   5.036   6.753  1.8807 -1.2558 -0.4471
  181SOPE   H2Y20655   3.700   4.923   6.846 -0.5950 -1.6645  1.7892
  181SOPE   C2320656   4.087   4.646   6.843 -0.0925 -0.4523  0.4057
  181SOPE   H3R20657   4.152   4.733   6.821  0.6357 -1.2682 -0.8374
  181SOPE   H3S20658   4.145   4.568   6.897  1.7386  1.8215  1.9100
  181SOPE   C2420659   3.965   4.669   6.931  0.2463  0.4989  0.3800
  181SOPE   H4R20660   3.886   4.724   6.877 -0.4067 -0.7077  0.0726
  181SOPE   H4S20661   3.915   4.573   6.957 -0.6341  0.9153  0.2417
  181SOPE   C2520662   4.005   4.738   7.067  0.4775  0.3014  0.2262
  181SOPE   H5R20663   4.044   4.839   7.041 -0.3481  0.7693  0.7887
  181SOPE   H5S20664   3.914   4.759   7.126  0.4109 -2.2134  1.1506
  181SOPE   C2620665   4.106   4.658   7.149  0.4014  0.3504 -0.2978
  181SOPE   H6R20666   4.065   4.558   7.172 -1.3742  1.1886  0.3115
  181SOPE   H6S20667   4.198   4.636   7.089  0.7330  0.9973 -0.0428
  181SOPE   C2720668   4.145   4.731   7.278  0.2216 -0.2307 -0.1908
  181SOPE   H7R20669   4.234   4.682   7.323  0.0485 -1.1526 -0.8347
  181SOPE   H7S20670   4.165   4.841   7.275 -2.1497  0.4565  3.1486
  181SOPE   C2820671   4.036   4.720   7.389 -0.0098 -0.2754 -0.2595
  181SOPE   H8R20672   4.071   4.787   7.470  2.1356 -2.7962  1.0591
  181SOPE   H8S20673   3.943   4.760   7.344  1.6065  2.0188 -1.7753
  181SOPE   C2920674   4.018   4.582   7.440 -0.2417 -0.1654 -0.5649
  181SOPE   H9120675   3.974   4.512   7.367  0.7586 -0.5167 -0.8478
  181SOPE  C21020676   4.032   4.535   7.568  0.1226 -0.6270 -0.5064
  181SOPE  H10120677   4.030   4.427   7.587 -2.4699 -0.7236 -0.9889
  181SOPE  C21120678   4.087   4.612   7.687  0.5043 -0.6503  0.1692
  181SOPE  H11R20679   4.046   4.578   7.784  0.9152  1.0715  0.9801
  181SOPE  H11S20680   4.074   4.722   7.684 -1.3199 -0.8017  1.0710
  181SOPE  C21220681   4.239   4.593   7.705 -0.0481  0.3496 -0.0070
  181SOPE  H12R20682   4.283   4.655   7.786  2.1809 -3.4574  1.9536
  181SOPE  H12S20683   4.277   4.636   7.610 -2.7233 -1.1205 -1.8865
  181SOPE  C21320684   4.285   4.451   7.734  0.2844  0.3708 -0.0105
  181SOPE  H13R20685   4.392   4.430   7.715 -0.2268 -0.9778 -1.5590
  181SOPE  H13S20686   4.233   4.390   7.657 -1.7377  2.1868 -0.1866
  181SOPE  C21420687   4.246   4.403   7.873 -0.5632 -0.2572  0.1953
  181SOPE  H14R20688   4.293   4.303   7.881 -0.8266 -0.3820  0.1813
  181SOPE  H14S20689   4.137   4.386   7.885 -0.5620 -1.4296 -1.1641
  181SOPE  C21520690   4.278   4.488   7.990  0.1746 -0.3013  0.4316
  181SOPE  H15R20691   4.221   4.584   7.998  0.4272 -0.2032  1.1019
  181SOPE  H15S20692   4.383   4.523   7.988 -0.4225  1.6707  0.8307
  181SOPE  C21620693   4.241   4.422   8.123  0.7382 -0.1067 -0.1045
  181SOPE  H16R20694   4.292   4.479   8.203  1.3500 -0.9881  0.1439
  181SOPE  H16S20695   4.272   4.315   8.125 -2.8833 -1.2879  1.0994
  181SOPE  C21720696   4.089   4.411   8.152  0.3269  0.1682  0.0453
  181SOPE  H17R20697   4.050   4.343   8.073 -0.7939  0.0619  0.6720
  181SOPE  H17S20698   4.031   4.505   8.139 -1.9088 -1.4071 -2.3007
  181SOPE  C21820699   4.057   4.353   8.294 -0.3225  1.0803 -0.1396
  181SOPE  H18R20700   4.068   4.242   8.296  2.5849  1.3023 -0.0781
  181SOPE  H18S20701   3.952   4.370   8.328 -0.2347 -1.4597  1.7457
  181SOPE  H18T20702   4.115   4.406   8.372 -1.6249 -0.4845  1.9910
  181SOPE   C3320703   3.494   4.946   6.921 -0.1879  0.1066  0.1271
  181SOPE   H3X20704   3.459   4.847   6.957 -2.5921 -0.5831 -3.6235
  181SOPE   H3Y20705   3.399   4.991   6.887 -1.3928 -1.2409  1.5410
  181SOPE   C3420706   3.548   5.027   7.044  0.0696  0.6361  0.3643
  181SOPE   H4X20707   3.475   5.106   7.073 -0.0122 -0.2630  2.8208
  181SOPE   H4Y20708   3.640   5.082   7.015 -0.6336  1.4449 -0.4083
  181SOPE   C3520709   3.572   4.942   7.170 -0.7881  0.3470  0.1652
  181SOPE   H5X20710   3.634   4.852   7.150  1.3272  1.3600  1.8103
  181SOPE   H5Y20711   3.473   4.899   7.198 -0.4318  0.9711  2.6040
  181SOPE   C3620712   3.633   5.019   7.284  0.0158 -0.6400  0.5834
  181SOPE   H6X20713   3.566   5.101   7.317  1.6572  1.8070 -1.7489
  181SOPE   H6Y20714   3.723   5.080   7.258 -0.9935  0.4727 -0.4135
  181SOPE   C3720715   3.663   4.931   7.407 -0.5539  0.4184  0.1091
  181SOPE   H7X20716   3.729   4.847   7.374  1.0988  2.0327 -0.9078
  181SOPE   H7Y20717   3.567   4.889   7.442 -0.6824  1.2387  0.7658
  181SOPE   C3820718   3.752   5.007   7.505  0.5090  0.1704 -0.1069
  181SOPE   H8X20719   3.711   5.110   7.516 -1.3328 -0.5427 -0.0150
  181SOPE   H8Y20720   3.856   5.025   7.470  0.8556 -0.8858  0.3728
  181SOPE   C3920721   3.766   4.938   7.637  0.0256  0.2911  0.7964
  181SOPE   H9X20722   3.774   4.828   7.620  0.4010  0.6025 -1.3721
  181SOPE   H9Y20723   3.673   4.940   7.698 -0.9744 -1.3887 -0.5536
  181SOPE  C31020724   3.889   4.991   7.720  0.4181 -0.1198  0.4869
  181SOPE  H10X20725   3.892   5.102   7.723  0.0837 -0.1187  2.3685
  181SOPE  H10Y20726   3.987   4.966   7.675  0.1593  1.1660 -0.8653
  181SOPE  C31120727   3.886   4.933   7.865  0.1563 -0.7490  0.0095
  181SOPE  H11X20728   3.917   4.827   7.852  1.1539 -0.6193  1.2085
  181SOPE  H11Y20729   3.786   4.941   7.914  1.3576 -0.2296  2.5142
  181SOPE  C31220730   3.990   5.003   7.961  0.4110 -0.4972 -0.1148
  181SOPE  H12X20731   3.954   5.096   8.011  1.8400 -0.1547  0.3302
  181SOPE  H12Y20732   4.066   5.048   7.893  0.4877 -1.9432 -1.0369
  181SOPE  C31320733   4.052   4.900   8.056 -0.0999  0.1870  0.1312
  181SOPE  H13X20734   4.115   4.823   8.007  1.2104  1.2797  0.0588
  181SOPE  H13Y20735   3.971   4.856   8.118 -0.6385 -1.1582 -1.4545
  181SOPE  C31420736   4.140   4.973   8.162 -0.6381  0.0203  1.0882
  181SOPE  H14X20737   4.096   5.071   8.187 -2.3834 -0.3081 -0.4746
  181SOPE  H14Y20738   4.234   5.014   8.119 -1.6867  0.6672 -0.6741
  181SOPE  C31520739   4.174   4.890   8.282  0.2016  0.3324 -0.3776
  181SOPE  H15X20740   4.085   4.836   8.320  1.2311 -0.3268  1.2192
  181SOPE  H15Y20741   4.207   4.954   8.367 -0.2768 -0.5652  0.4978
  181SOPE  C31620742   4.281   4.785   8.251 -0.4318 -0.0882  0.4183
  181SOPE  H16X20743   4.369   4.840   8.211  0.0765 -0.6816  0.6961
  181SOPE  H16Y20744   4.252   4.705   8.180  1.3747 -0.1845 -0.2477
  181SOPE  C31720745   4.340   4.710   8.376 -0.3427  0.2852  0.0041
  181SOPE  H17X20746   4.417   4.633   8.351 -0.2668  0.2368  0.3649
  181SOPE  H17Y20747   4.266   4.639   8.421  0.2808 -1.0736 -1.0524
  181SOPE  C31820748   4.384   4.793   8.497  0.1825 -0.0730 -0.1649
  181SOPE  H18X20749   4.442   4.880   8.460 -0.0113  0.1807  0.1323
  181SOPE  H18Y20750   4.445   4.727   8.563  0.3945  2.2892  2.1637
  181SOPE  H18Z20751   4.300   4.836   8.556  1.2593  0.7167  0.8419
  182SOPE     N20752   4.182   6.470   6.345 -0.0296 -0.5877  0.0074
  182SOPE   HN120753   4.100   6.524   6.379 -0.3507 -1.1504  0.1361
  182SOPE   HN220754   4.253   6.533   6.303  0.4513 -3.0730 -3.2860
  182SOPE   HN320755   4.141   6.415   6.267 -0.6916  0.9322 -0.7590
  182SOPE   C1220756   4.240   6.387   6.449  0.0709 -0.0981  0.4340
  182SOPE  H12A20757   4.167   6.317   6.497 -1.3713  0.3055 -1.0721
  182SOPE  H12B20758   4.288   6.455   6.523  0.3614  0.3033 -0.1175
  182SOPE   C1120759   4.338   6.304   6.372 -0.2344  0.2234 -0.1186
  182SOPE  H11A20760   4.309   6.276   6.269 -1.0629  1.1618 -0.1638
  182SOPE  H11B20761   4.338   6.206   6.425  1.0149  0.0297 -0.4507
  182SOPE     P20762   4.588   6.308   6.431  0.1530  0.0955 -0.3732
  182SOPE   O1320763   4.711   6.384   6.405  0.9123 -0.0831 -0.2121
  182SOPE   O1420764   4.584   6.159   6.419 -0.8091 -0.5170 -0.3040
  182SOPE   O1220765   4.463   6.376   6.365  0.1149 -0.0476 -0.5848
  182SOPE   O1120766   4.550   6.339   6.587 -0.5507  0.0453  0.2612
  182SOPE    C120767   4.535   6.477   6.632  0.5536 -0.2663  0.0519
  182SOPE    HA20768   4.434   6.483   6.677 -1.3697 -0.4865 -3.8009
  182SOPE    HB20769   4.536   6.545   6.544  2.4846  0.3813  0.5152
  182SOPE    C220770   4.643   6.517   6.730 -0.2791  1.1165 -0.0920
  182SOPE    HS20771   4.733   6.544   6.670  0.0293 -1.4218 -0.8850
  182SOPE   O2120772   4.679   6.416   6.819 -0.5772  0.0829  0.2090
  182SOPE   C2120773   4.590   6.357   6.897 -0.5927 -0.0866  1.0227
  182SOPE   O2220774   4.466   6.365   6.896 -0.1704  0.0045  0.0033
  182SOPE   C2220775   4.668   6.266   6.991 -0.0105 -0.1874 -0.2244
  182SOPE   H2R20776   4.739   6.321   7.057 -0.0214 -0.0863 -0.2963
  182SOPE   H2S20777   4.738   6.219   6.919  1.5646  1.0550  0.4341
  182SOPE    C320778   4.595   6.636   6.812 -1.0103 -0.0498 -0.6573
  182SOPE    HX20779   4.498   6.617   6.863 -0.4244 -0.5537  0.2880
  182SOPE    HY20780   4.571   6.716   6.738 -0.7666 -1.2289 -2.0518
  182SOPE   O3120781   4.697   6.681   6.910  0.8228  0.1431 -0.3295
  182SOPE   C3120782   4.669   6.662   7.035 -0.1535 -0.2154  0.1281
  182SOPE   O3220783   4.581   6.594   7.083 -0.3216 -0.0310  0.0928
  182SOPE   C3220784   4.768   6.744   7.113 -0.3674  1.4135 -0.1241
  182SOPE   H2X20785   4.742   6.852   7.113  0.0749  1.7355  4.7339
  182SOPE   H2Y20786   4.867   6.733   7.063 -0.4508  1.0775 -0.2170
  182SOPE   C2320787   4.594   6.152   7.061  0.3333  0.7986 -0.0589
  182SOPE   H3R20788   4.659   6.093   7.128  0.1623  1.2896  0.5505
  182SOPE   H3S20789   4.551   6.092   6.978  1.1324  0.0247  0.0774
  182SOPE   C2420790   4.496   6.197   7.174  0.1018  0.2697  0.1606
  182SOPE   H4R20791   4.405   6.242   7.128  0.2048 -1.1585 -1.5468
  182SOPE   H4S20792   4.447   6.114   7.229 -1.0592  1.2288  0.6129
  182SOPE   C2520793   4.576   6.290   7.273  0.1520 -0.3147 -0.9650
  182SOPE   H5R20794   4.663   6.232   7.312  1.4984  1.6321 -0.9373
  182SOPE   H5S20795   4.610   6.381   7.219  0.2578 -0.5824 -1.3603
  182SOPE   C2620796   4.492   6.316   7.399 -0.1616  0.2222 -0.2745
  182SOPE   H6R20797   4.399   6.372   7.376  0.0835  1.0227  0.6177
  182SOPE   H6S20798   4.462   6.218   7.441  2.2330 -0.0456  0.9828
  182SOPE   C2720799   4.571   6.400   7.507 -0.5941  0.0025 -0.4664
  182SOPE   H7R20800   4.663   6.344   7.537  0.9392  1.0417 -2.9235
  182SOPE   H7S20801   4.602   6.498   7.464 -0.1541  0.3463  0.5837
  182SOPE   C2820802   4.493   6.430   7.638  0.6507 -0.7919 -0.1044
  182SOPE   H8R20803   4.564   6.495   7.693 -2.5614  0.1863  3.2884
  182SOPE   H8S20804   4.399   6.485   7.614 -1.1467 -2.4292  2.5776
  182SOPE   C2920805   4.445   6.310   7.711 -0.4441 -0.0057  0.1681
  182SOPE   H9120806   4.375   6.243   7.660  2.3518 -2.6455 -0.4965
  182SOPE  C21020807   4.472   6.274   7.836 -0.6249  0.2542 -0.2330
  182SOPE  H10120808   4.428   6.186   7.887  0.4383 -1.4214 -2.0741
  182SOPE  C21120809   4.572   6.347   7.926 -0.2936 -0.3810 -0.0685
  182SOPE  H11R20810   4.602   6.445   7.884  0.0056 -0.6911 -0.5913
  182SOPE  H11S20811   4.664   6.285   7.922 -0.0087  0.0157  0.2497
  182SOPE  C21220812   4.533   6.367   8.075 -0.2364 -0.7440 -0.4356
  182SOPE  H12R20813   4.565   6.285   8.142  1.7395  2.5329  3.0759
  182SOPE  H12S20814   4.424   6.380   8.088 -0.6316 -2.1519 -2.0143
  182SOPE  C21320815   4.620   6.482   8.144  0.5487  0.5716 -0.4807
  182SOPE  H13R20816   4.629   6.562   8.066  0.4537  2.1405  1.0477
  182SOPE  H13S20817   4.719   6.434   8.159  0.2180  0.2446  0.7153
  182SOPE  C21420818   4.558   6.544   8.271  0.1231  0.1754  0.2492
  182SOPE  H14R20819   4.520   6.461   8.335 -0.4970 -1.2602 -1.8673
  182SOPE  H14S20820   4.470   6.601   8.233  0.0267  0.1540  0.4417
  182SOPE  C21520821   4.657   6.649   8.337  0.3733 -0.1250 -0.0986
  182SOPE  H15R20822   4.673   6.742   8.278  2.2239 -1.3355 -1.6209
  182SOPE  H15S20823   4.751   6.593   8.357  0.4081  0.1846  0.6170
  182SOPE  C21620824   4.595   6.689   8.470  0.0039 -0.0226 -1.0044
  182SOPE  H16R20825   4.629   6.636   8.561 -0.0260  1.6584  0.0296
  182SOPE  H16S20826   4.486   6.665   8.461  0.1544 -2.1810  1.6627
  182SOPE  C21720827   4.605   6.828   8.505 -0.3950 -0.2633  0.5853
  182SOPE  H17R20828   4.704   6.867   8.472  0.7522 -1.5143  2.3882
  182SOPE  H17S20829   4.599   6.845   8.615  3.0905  0.0800  0.8277
  182SOPE  C21820830   4.500   6.906   8.428 -0.7668 -0.3081  0.1942
  182SOPE  H18R20831   4.518   7.016   8.434  0.8905 -0.5387 -0.0342
  182SOPE  H18S20832   4.399   6.878   8.465 -0.4361 -0.7402  0.7792
  182SOPE  H18T20833   4.512   6.882   8.320  2.1236 -2.9419  0.9723
  182SOPE   C3320834   4.785   6.688   7.260  0.0468 -0.0075 -0.0930
  182SOPE   H3X20835   4.890   6.719   7.277 -0.3287  1.8624 -0.8628
  182SOPE   H3Y20836   4.770   6.580   7.277 -2.3985  0.4903  1.4492
  182SOPE   C3420837   4.694   6.775   7.351  0.2922  0.1046 -0.1939
  182SOPE   H4X20838   4.586   6.752   7.353 -0.2076  2.2166  0.1769
  182SOPE   H4Y20839   4.692   6.868   7.290  0.6239 -0.9385 -1.8480
  182SOPE   C3520840   4.751   6.789   7.491  0.9782 -0.4718  0.2501
  182SOPE   H5X20841   4.858   6.813   7.474  0.8760 -0.9312 -1.1994
  182SOPE   H5Y20842   4.740   6.691   7.542 -0.3692 -0.1338  0.6512
  182SOPE   C3620843   4.671   6.890   7.578 -0.1502  0.0113  0.1667
  182SOPE   H6X20844   4.564   6.859   7.581 -0.4006  0.7877 -0.5504
  182SOPE   H6Y20845   4.665   6.980   7.514  0.2542 -0.4726 -0.5641
  182SOPE   C3720846   4.737   6.926   7.716 -0.2890 -0.3113 -0.4666
  182SOPE   H7X20847   4.684   7.016   7.755 -1.3604 -0.5930 -1.2118
  182SOPE   H7Y20848   4.846   6.940   7.699 -0.0739 -0.6058  0.6128
  182SOPE   C3820849   4.735   6.806   7.812  0.4361 -0.1319 -0.1736
  182SOPE   H8X20850   4.809   6.819   7.894 -0.0308  3.3739 -0.1625
  182SOPE   H8Y20851   4.769   6.714   7.761 -0.7872 -0.1812 -0.9386
  182SOPE   C3920852   4.589   6.777   7.863  0.8529 -0.3217  0.9852
  182SOPE   H9X20853   4.584   6.671   7.895  0.6397 -1.0294 -1.2050
  182SOPE   H9Y20854   4.517   6.793   7.780 -0.2016  0.0086  1.9329
  182SOPE  C31020855   4.527   6.864   7.977  0.4798  0.5223 -0.1960
  182SOPE  H10X20856   4.596   6.853   8.064  0.9776  0.4945 -0.5887
  182SOPE  H10Y20857   4.427   6.824   8.006  0.9595 -0.4777  0.1425
  182SOPE  C31120858   4.523   7.012   7.963 -0.3309  0.2681  0.1740
  182SOPE  H11X20859   4.482   7.052   7.867  0.1119  3.1302  1.0763
  182SOPE  H11Y20860   4.629   7.046   7.962 -0.2219  0.1114  2.3896
  182SOPE  C31220861   4.452   7.083   8.081  0.2732 -0.2953  0.3892
  182SOPE  H12X20862   4.389   7.016   8.143  1.6054 -2.2714 -0.2878
  182SOPE  H12Y20863   4.380   7.157   8.041  1.1950  0.0283 -0.7157
  182SOPE  C31320864   4.554   7.158   8.170 -0.2493  0.1784 -1.2328
  182SOPE  H13X20865   4.625   7.219   8.110 -0.3445  1.4883 -0.0742
  182SOPE  H13Y20866   4.617   7.076   8.210  1.7694  0.9776 -2.5987
  182SOPE  C31420867   4.492   7.253   8.285  0.1922 -0.6139  0.9318
  182SOPE  H14X20868   4.394   7.214   8.318 -0.6393 -0.3965 -1.1059
  182SOPE  H14Y20869   4.466   7.350   8.235  2.3895 -1.5573 -2.3958
  182SOPE  C31520870   4.585   7.274   8.407  0.2788 -0.0903 -0.0112
  182SOPE  H15X20871   4.685   7.313   8.380  0.5421 -1.5132 -1.2709
  182SOPE  H15Y20872   4.618   7.176   8.448 -0.5030  0.0818  1.0585
  182SOPE  C31620873   4.513   7.353   8.523 -0.0170 -0.3617  0.5407
  182SOPE  H16X20874   4.417   7.301   8.542 -0.7319  0.5677 -0.4656
  182SOPE  H16Y20875   4.487   7.452   8.481 -1.7610 -0.2830  1.6996
  182SOPE  C31720876   4.603   7.365   8.646  0.0433  0.8923 -0.1418
  182SOPE  H17X20877   4.698   7.416   8.624  0.5980 -0.1807 -0.3072
  182SOPE  H17Y20878   4.630   7.263   8.681  2.4751  1.4229 -0.3087
  182SOPE  C31820879   4.536   7.436   8.765 -0.6819 -0.1213 -0.1215
  182SOPE  H18X20880   4.515   7.542   8.743  2.2936  0.3470 -1.0954
  182SOPE  H18Y20881   4.610   7.433   8.848  0.3566 -0.7536 -1.0354
  182SOPE  H18Z20882   4.438   7.394   8.795 -0.5708  0.5057  1.1641
  183SOPE     N20883   5.563   4.260   6.079  0.4450  0.8144  0.3301
  183SOPE   HN120884   5.499   4.332   6.039  0.7711 -0.7084 -3.3273
  183SOPE   HN220885   5.599   4.302   6.166 -1.4341  5.9812 -1.0334
  183SOPE   HN320886   5.645   4.249   6.016 -0.4020  0.5632 -0.7699
  183SOPE   C1220887   5.478   4.134   6.093 -0.1052  0.1128 -0.5487
  183SOPE  H12A20888   5.461   4.093   5.991 -0.1330  2.4948 -1.5533
  183SOPE  H12B20889   5.383   4.169   6.139 -0.6455 -2.0022  0.0676
  183SOPE   C1120890   5.550   4.038   6.189 -0.6837 -0.0299  0.1108
  183SOPE  H11A20891   5.654   4.011   6.163 -1.1308 -1.8044  0.0397
  183SOPE  H11B20892   5.493   3.943   6.180 -0.4030 -0.1568 -0.3082
  183SOPE     P20893   5.544   4.006   6.451 -0.0478 -0.0749  0.0949
  183SOPE   O1320894   5.670   3.932   6.459 -0.3586 -0.3379  0.2567
  183SOPE   O1420895   5.429   3.918   6.460 -0.5735 -0.3074 -0.4566
  183SOPE   O1220896   5.532   4.092   6.318 -0.6681 -0.2090  0.0765
  183SOPE   O1120897   5.543   4.107   6.572  0.0245 -0.1234 -0.2695
  183SOPE    C120898   5.632   4.091   6.680 -0.2113  0.1263 -0.6993
  183SOPE    HA20899   5.630   4.178   6.749 -0.3811 -0.2477 -0.2293
  183SOPE    HB20900   5.737   4.096   6.646  0.0470  3.2448  0.1861
  183SOPE    C220901   5.612   3.958   6.765 -0.7491 -0.2545 -0.4516
  183SOPE    HS20902   5.590   3.868   6.704 -0.4543  0.6169 -1.8930
  183SOPE   O2120903   5.498   3.993   6.847  0.1365  0.6282  0.2677
  183SOPE   C2120904   5.460   3.914   6.941  0.8160  0.0104  0.6887
  183SOPE   O2220905   5.506   3.804   6.969 -0.1080 -0.1556  0.4380
  183SOPE   C2220906   5.323   3.969   6.997 -0.4610 -0.5511  0.2688
  183SOPE   H2R20907   5.285   3.899   7.074  0.1548 -2.2720 -0.9227
  183SOPE   H2S20908   5.257   3.963   6.907  0.6656  1.5083 -0.7725
  183SOPE    C320909   5.745   3.916   6.848  0.2050 -0.1185 -0.4709
  183SOPE    HX20910   5.825   3.902   6.771 -1.0632 -2.5362 -1.4499
  183SOPE    HY20911   5.718   3.823   6.903 -0.6050  0.3999  0.0229
  183SOPE   O3120912   5.787   4.018   6.947  0.1717 -0.1282 -0.1822
  183SOPE   C3120913   5.900   3.992   7.013  0.3317  0.3448 -0.5711
  183SOPE   O3220914   5.969   3.888   6.999  0.2943 -0.4129  0.3269
  183SOPE   C3220915   5.925   4.102   7.118  0.2584 -0.6364 -0.5813
  183SOPE   H2X20916   5.829   4.100   7.175  1.6784 -0.3978  1.9513
  183SOPE   H2Y20917   5.930   4.202   7.071  2.5600  0.2348  1.2972
  183SOPE   C2320918   5.315   4.118   7.047  0.0498  0.5557  0.5507
  183SOPE   H3R20919   5.212   4.125   7.088 -0.2374 -2.9829  0.7612
  183SOPE   H3S20920   5.325   4.190   6.963 -1.7109  1.3544  0.9972
  183SOPE   C2420921   5.414   4.152   7.152  0.3939 -1.1193  0.1786
  183SOPE   H4R20922   5.437   4.058   7.206 -0.3289 -1.5687 -0.2835
  183SOPE   H4S20923   5.512   4.172   7.106  0.3989 -0.9216  0.2708
  183SOPE   C2520924   5.371   4.265   7.249 -0.8697  0.0534  0.0559
  183SOPE   H5R20925   5.459   4.279   7.315 -1.4845 -2.0012  1.4295
  183SOPE   H5S20926   5.341   4.357   7.194 -1.2881  0.9631  1.7236
  183SOPE   C2620927   5.262   4.216   7.343  0.1300 -0.3596  0.0848
  183SOPE   H6R20928   5.167   4.226   7.286  0.2425  0.6317  0.0455
  183SOPE   H6S20929   5.283   4.113   7.378  0.5927  0.4783  2.4430
  183SOPE   C2720930   5.237   4.299   7.471  0.2927  0.1783 -0.2819
  183SOPE   H7R20931   5.235   4.408   7.448  4.2330 -0.0118 -2.4767
  183SOPE   H7S20932   5.142   4.258   7.511  0.0680  1.8217  0.9680
  183SOPE   C2820933   5.344   4.280   7.580 -0.2475  0.2280 -0.6152
  183SOPE   H8R20934   5.440   4.294   7.525 -0.6400 -1.0918 -1.7027
  183SOPE   H8S20935   5.319   4.365   7.647  0.6004  0.1534 -0.1848
  183SOPE   C2920936   5.323   4.159   7.668 -0.3444  0.7560  0.4713
  183SOPE   H9120937   5.216   4.141   7.689 -1.0805  0.2655 -2.9838
  183SOPE  C21020938   5.402   4.055   7.715  0.4034 -0.7948 -0.0345
  183SOPE  H10120939   5.353   3.983   7.782 -2.2851  1.1525  0.2873
  183SOPE  C21120940   5.550   4.036   7.681  0.2845 -0.1639  0.8914
  183SOPE  H11R20941   5.605   4.039   7.777  1.0231  1.8297  0.4468
  183SOPE  H11S20942   5.581   4.132   7.636 -1.2976  0.0538  0.2146
  183SOPE  C21220943   5.572   3.919   7.589 -0.3218  0.4042  0.3712
  183SOPE  H12R20944   5.527   3.822   7.617 -0.6724 -0.0638 -1.7079
  183SOPE  H12S20945   5.682   3.903   7.596 -0.4848 -0.7019  0.5730
  183SOPE  C21320946   5.533   3.942   7.444  0.3992  0.5950  0.2433
  183SOPE  H13R20947   5.578   4.040   7.416 -0.6042  1.3048  1.0439
  183SOPE  H13S20948   5.424   3.962   7.432  0.4147  1.3914  1.3049
  183SOPE  C21420949   5.571   3.828   7.344  0.0452  0.4227  0.5438
  183SOPE  H14R20950   5.539   3.864   7.244 -1.1055 -0.9312  0.3967
  183SOPE  H14S20951   5.516   3.734   7.364 -0.5919  0.4694 -0.8818
  183SOPE  C21520952   5.722   3.798   7.338 -0.0022  0.5034 -0.8122
  183SOPE  H15R20953   5.765   3.760   7.433 -1.1541  0.2246 -0.3867
  183SOPE  H15S20954   5.770   3.897   7.322  0.5204  0.5103  0.6670
  183SOPE  C21620955   5.750   3.706   7.224 -0.2436  0.6138  0.9687
  183SOPE  H16R20956   5.725   3.748   7.125  0.3192 -1.5883 -0.1658
  183SOPE  H16S20957   5.693   3.612   7.237  0.3376  0.2558  0.9591
  183SOPE  C21720958   5.897   3.667   7.207  0.2718 -0.2427  0.2564
  183SOPE  H17R20959   5.938   3.627   7.302  0.7782 -1.2479 -0.3707
  183SOPE  H17S20960   5.951   3.760   7.177 -1.6102  0.8781  0.1680
  183SOPE  C21820961   5.916   3.563   7.101  0.0265  0.4573  0.7968
  183SOPE  H18R20962   5.859   3.470   7.123 -0.6992  0.1163 -2.0918
  183SOPE  H18S20963   6.025   3.540   7.098  0.2959  1.7154 -0.4240
  183SOPE  H18T20964   5.877   3.600   7.003  0.9213  0.0634  0.2746
  183SOPE   C3320965   6.041   4.087   7.211 -0.7225  0.6089 -0.1762
  183SOPE   H3X20966   6.125   4.134   7.156  1.3597 -3.1000 -0.4819
  183SOPE   H3Y20967   6.056   3.981   7.240 -0.4574  1.1398  1.7585
  183SOPE   C3420968   6.015   4.163   7.346 -1.1637  0.0465  0.2794
  183SOPE   H4X20969   5.967   4.263   7.340 -0.2248  0.6768  2.4020
  183SOPE   H4Y20970   6.113   4.186   7.391 -0.6352  1.5957 -1.5216
  183SOPE   C3520971   5.926   4.078   7.441 -0.4407  0.3082 -0.1306
  183SOPE   H5X20972   5.966   3.976   7.424  2.7673  1.3318  0.5882
  183SOPE   H5Y20973   5.819   4.087   7.413 -0.5408 -1.3762 -0.3842
  183SOPE   C3620974   5.937   4.109   7.589  0.0551  0.3535 -0.4701
  183SOPE   H6X20975   5.844   4.081   7.643 -0.5063  0.0870 -1.5626
  183SOPE   H6Y20976   5.937   4.219   7.610  0.3585  0.0433  1.3337
  183SOPE   C3720977   6.072   4.051   7.653  1.1303 -0.3249  0.2443
  183SOPE   H7X20978   6.160   4.109   7.618  0.5630  0.2282 -0.2892
  183SOPE   H7Y20979   6.084   3.945   7.624 -1.2364 -0.3763 -0.7240
  183SOPE   C3820980   6.072   4.072   7.806 -0.0360 -0.2612  0.2010
  183SOPE   H8X20981   5.993   4.005   7.844 -0.0120 -0.8794 -0.8101
  183SOPE   H8Y20982   6.038   4.176   7.824  0.8139 -0.3892  2.9899
  183SOPE   C3920983   6.201   4.037   7.865  1.0040 -0.0521 -0.8965
  183SOPE   H9X20984   6.283   4.110   7.845  1.1122 -0.1951 -0.9771
  183SOPE   H9Y20985   6.242   3.948   7.812  1.4326 -0.6219  0.3464
  183SOPE  C31020986   6.181   4.029   8.013 -0.0064  0.0184  0.5091
  183SOPE  H10X20987   6.122   3.936   8.027  0.9809 -0.7032  0.0074
  183SOPE  H10Y20988   6.126   4.117   8.053 -0.1396  0.4995 -0.6990
  183SOPE  C31120989   6.310   3.998   8.086  0.4469 -0.1003  1.0925
  183SOPE  H11X20990   6.387   4.067   8.043  0.1617 -0.8268 -0.6960
  183SOPE  H11Y20991   6.349   3.900   8.051  2.0718  0.7396  0.4177
  183SOPE  C31220992   6.299   4.008   8.239  1.1386  0.0109  0.4743
  183SOPE  H12X20993   6.318   4.109   8.281  0.5183 -0.3278  1.6000
  183SOPE  H12Y20994   6.390   3.952   8.272  1.2453 -2.2761 -3.2191
  183SOPE  C31320995   6.190   3.926   8.305  0.4277 -0.1802 -0.5820
  183SOPE  H13X20996   6.185   3.824   8.260 -1.5908 -0.4865  0.2110
  183SOPE  H13Y20997   6.091   3.974   8.286  0.4501  0.0673 -0.0961
  183SOPE  C31420998   6.219   3.905   8.456  0.1443  0.1584 -0.2238
  183SOPE  H14X20999   6.307   3.839   8.474  0.0294  0.5338  2.0541
  183SOPE  H14Y21000   6.125   3.860   8.494 -0.3981  0.6276 -0.9921
  183SOPE  C31521001   6.239   4.033   8.535  0.9201  0.7108  0.5273
  183SOPE  H15X21002   6.156   4.097   8.498  0.9886 -0.9980 -2.9791
  183SOPE  H15Y21003   6.341   4.063   8.503  0.6480 -0.1132 -1.1862
  183SOPE  C31621004   6.235   4.022   8.690  0.0273  0.4786  0.6084
  183SOPE  H16X21005   6.134   3.987   8.719 -0.2072 -1.5149 -2.1710
  183SOPE  H16Y21006   6.241   4.129   8.718 -0.5761  0.5730  0.3903
  183SOPE  C31721007   6.345   3.933   8.746 -0.2186 -0.0644 -0.2756
  183SOPE  H17X21008   6.341   3.828   8.709 -1.8434 -0.3265  0.5343
  183SOPE  H17Y21009   6.316   3.944   8.853  0.8272  0.0363  0.0026
  183SOPE  C31821010   6.489   3.983   8.738 -0.0160  0.5745  0.0742
  183SOPE  H18X21011   6.499   4.090   8.766 -0.7501  0.2787  1.5250
  183SOPE  H18Y21012   6.530   3.965   8.636 -0.5128  0.0843 -0.0439
  183SOPE  H18Z21013   6.555   3.930   8.810 -0.0359 -0.2604 -0.5050
  184SOPE     N21014   6.468   4.692   6.483 -0.7012  0.4462  0.2839
  184SOPE   HN121015   6.455   4.774   6.421  1.9633 -0.8949 -2.3065
  184SOPE   HN221016   6.552   4.709   6.542  0.3289  0.2776 -1.0914
  184SOPE   HN321017   6.479   4.602   6.432 -0.0819  0.4769  0.3569
  184SOPE   C1221018   6.351   4.672   6.574  0.0918 -0.1475  0.4207
  184SOPE  H12A21019   6.340   4.765   6.634  0.4792 -0.1875  0.5536
  184SOPE  H12B21020   6.363   4.589   6.647  0.8276  0.5312  1.0942
  184SOPE   C1121021   6.221   4.657   6.493 -0.2461  0.4963 -0.4982
  184SOPE  H11A21022   6.145   4.657   6.575 -1.3857 -2.0270 -1.4552
  184SOPE  H11B21023   6.223   4.558   6.444  1.5820 -0.5305  1.4814
  184SOPE     P21024   6.092   4.818   6.327 -0.2456  0.3632  0.2859
  184SOPE   O1321025   6.057   4.733   6.214  0.6355 -0.0211  0.3356
  184SOPE   O1421026   6.123   4.961   6.292 -0.3737  0.1030  0.3847
  184SOPE   O1221027   6.213   4.768   6.401  0.1179 -0.6180  0.2975
  184SOPE   O1121028   5.981   4.810   6.430  0.1484 -0.3465  0.2388
  184SOPE    C121029   5.933   4.924   6.509 -0.0606  0.1957  0.6414
  184SOPE    HA21030   5.847   4.886   6.567 -0.4972 -2.0266 -1.3184
  184SOPE    HB21031   5.914   5.010   6.442  3.1885  1.3967  1.0439
  184SOPE    C221032   6.039   4.968   6.617 -0.2981  0.5863  0.2880
  184SOPE    HS21033   6.132   4.998   6.565 -0.8088  0.3646 -0.7795
  184SOPE   O2121034   6.078   4.866   6.713 -0.2382 -0.0170  0.3401
  184SOPE   C2121035   6.161   4.910   6.807 -0.4872 -0.0346 -0.5891
  184SOPE   O2221036   6.234   5.011   6.794  0.0769 -0.0815 -0.1935
  184SOPE   C2221037   6.166   4.810   6.922 -0.5055 -0.1279  0.1240
  184SOPE   H2R21038   6.274   4.781   6.923 -0.2465  0.7773 -0.4966
  184SOPE   H2S21039   6.096   4.726   6.904 -4.2512  3.0974 -1.8057
  184SOPE    C321040   5.976   5.097   6.688  0.6350  0.9796 -0.7114
  184SOPE    HX21041   5.916   5.157   6.616  0.0106  2.6215  1.0793
  184SOPE    HY21042   6.063   5.162   6.713  1.6516  0.0528 -1.7396
  184SOPE   O3121043   5.906   5.065   6.806 -0.0929 -0.1194 -0.1339
  184SOPE   C3121044   5.771   5.084   6.807  0.3086 -0.0681  0.0792
  184SOPE   O3221045   5.708   5.136   6.719 -0.0607  0.2410 -0.4061
  184SOPE   C3221046   5.712   5.028   6.943  0.1495  0.3877  0.3143
  184SOPE   H2X21047   5.805   5.025   7.004  0.4936 -0.1669 -0.2388
  184SOPE   H2Y21048   5.676   4.926   6.922 -0.0452  0.5043  0.0836
  184SOPE   C2321049   6.107   4.867   7.054  0.2928 -0.4927  0.0358
  184SOPE   H3R21050   6.141   4.795   7.132 -1.7128 -0.0186  1.4352
  184SOPE   H3S21051   5.996   4.875   7.054  0.4289  2.6221 -1.5206
  184SOPE   C2421052   6.162   5.010   7.097  0.0427 -0.8365  0.8951
  184SOPE   H4R21053   6.272   5.002   7.111  0.4262  1.1229 -0.5474
  184SOPE   H4S21054   6.128   5.089   7.027 -1.4285 -1.6216  0.6784
  184SOPE   C2521055   6.093   5.057   7.229  0.0042  0.3920 -0.5141
  184SOPE   H5R21056   6.122   5.163   7.242  0.2300  0.2884 -0.1440
  184SOPE   H5S21057   5.983   5.046   7.221 -0.4850  1.4527  3.0559
  184SOPE   C2621058   6.147   4.996   7.355 -0.3643 -0.3632  0.0387
  184SOPE   H6R21059   6.106   4.893   7.362  1.0180 -0.8035  3.8870
  184SOPE   H6S21060   6.258   4.991   7.352 -0.3026 -1.2066  1.9699
  184SOPE   C2721061   6.103   5.069   7.480 -0.5888  0.3084  0.0249
  184SOPE   H7R21062   6.131   5.177   7.479 -2.4606  1.0106 -5.3515
  184SOPE   H7S21063   5.993   5.054   7.482 -0.3703 -1.5912  2.4040
  184SOPE   C2821064   6.148   4.999   7.609  0.2766  0.2221 -0.2214
  184SOPE   H8R21065   6.095   5.053   7.690 -2.1627 -0.9104 -0.9864
  184SOPE   H8S21066   6.105   4.897   7.608 -1.6198  0.9939 -0.1217
  184SOPE   C2921067   6.295   4.991   7.631 -0.3039  1.2595 -1.0069
  184SOPE   H9121068   6.352   4.999   7.538  0.1517  0.9738 -0.7554
  184SOPE  C21021069   6.356   4.972   7.755  0.2040  0.7700 -0.5493
  184SOPE  H10121070   6.465   4.981   7.763  0.0899  0.6729  1.9318
  184SOPE  C21121071   6.280   4.940   7.883 -0.7844  0.1293 -0.4387
  184SOPE  H11R21072   6.314   4.848   7.934 -1.2166  0.1601 -0.0869
  184SOPE  H11S21073   6.171   4.927   7.867 -0.9609  1.7373 -0.7327
  184SOPE  C21221074   6.284   5.058   7.981 -0.2702 -0.3183 -0.2323
  184SOPE  H12R21075   6.236   5.148   7.937  0.4650 -1.1670 -2.9368
  184SOPE  H12S21076   6.392   5.074   8.002 -0.1593 -0.2141 -0.8861
  184SOPE  C21321077   6.223   5.016   8.117  0.1225 -0.6326  0.3176
  184SOPE  H13R21078   6.277   4.937   8.173 -0.8434 -1.0787  0.6403
  184SOPE  H13S21079   6.116   4.994   8.102 -0.7086  3.7968 -1.8242
  184SOPE  C21421080   6.220   5.144   8.206 -0.0822  0.0237 -0.1780
  184SOPE  H14R21081   6.156   5.140   8.296  1.5175  1.1814  1.0618
  184SOPE  H14S21082   6.178   5.228   8.146 -1.4152 -0.9847 -0.7037
  184SOPE  C21521083   6.352   5.172   8.286 -0.5591  0.7835 -0.6857
  184SOPE  H15R21084   6.440   5.200   8.224  1.0803  0.6881  1.4689
  184SOPE  H15S21085   6.373   5.073   8.332 -1.8836  0.5268 -0.5991
  184SOPE  C21621086   6.326   5.281   8.390 -0.1877  0.2157  0.1181
  184SOPE  H16R21087   6.404   5.265   8.467 -2.2977 -0.0731  2.3318
  184SOPE  H16S21088   6.226   5.276   8.438 -0.4043 -0.8416 -0.4230
  184SOPE  C21721089   6.343   5.417   8.330 -0.3163 -0.0518  0.2741
  184SOPE  H17R21090   6.279   5.433   8.241 -1.2797  0.7018  1.0867
  184SOPE  H17S21091   6.444   5.418   8.283  0.3370 -1.2906  1.5445
  184SOPE  C21821092   6.336   5.533   8.430  1.1766  0.2755 -0.2663
  184SOPE  H18R21093   6.427   5.526   8.494  0.5126 -1.6112  0.5542
  184SOPE  H18S21094   6.243   5.531   8.491 -0.0229 -1.6796 -2.0505
  184SOPE  H18T21095   6.346   5.627   8.371  0.8061 -1.4895 -3.3404
  184SOPE   C3321096   5.600   5.114   7.001 -0.0660 -0.1982  0.2796
  184SOPE   H3X21097   5.522   5.124   6.923 -0.1582 -1.9126  0.1144
  184SOPE   H3Y21098   5.631   5.219   7.020 -0.9705  0.3175 -1.0031
  184SOPE   C3421099   5.535   5.056   7.130  0.4244 -0.2193  0.0919
  184SOPE   H4X21100   5.494   4.958   7.098 -3.9022  1.4230 -0.0221
  184SOPE   H4Y21101   5.439   5.100   7.166  1.4028  1.8474  0.3228
  184SOPE   C3521102   5.630   5.031   7.247  0.3495 -0.2442  0.6874
  184SOPE   H5X21103   5.678   5.127   7.276  0.7291 -0.2111 -0.0310
  184SOPE   H5Y21104   5.715   4.968   7.211 -0.1825 -1.3424  1.2863
  184SOPE   C3621105   5.564   4.969   7.368  0.7416 -0.5459 -0.1570
  184SOPE   H6X21106   5.537   4.862   7.352 -0.2837 -0.7645  2.4917
  184SOPE   H6Y21107   5.468   5.025   7.377 -0.1495 -2.0858  0.4135
  184SOPE   C3721108   5.652   4.965   7.491  1.0448 -0.0540  0.0717
  184SOPE   H7X21109   5.704   5.063   7.499 -0.5717  0.9249 -0.7332
  184SOPE   H7Y21110   5.731   4.887   7.490  0.1398 -1.1928  3.7300
  184SOPE   C3821111   5.556   4.952   7.615 -0.0448 -0.0961 -0.0557
  184SOPE   H8X21112   5.509   4.853   7.630 -3.2314  1.4841  1.3776
  184SOPE   H8Y21113   5.478   5.031   7.617  1.2005  1.1727  1.0846
  184SOPE   C3921114   5.640   4.989   7.735  0.3619 -0.2426  0.2202
  184SOPE   H9X21115   5.696   5.085   7.723 -0.5362 -0.0975 -4.1415
  184SOPE   H9Y21116   5.710   4.903   7.733  0.9006  0.1964 -0.7139
  184SOPE  C31021117   5.569   5.001   7.875 -0.2890 -0.3761 -0.3429
  184SOPE  H10X21118   5.522   4.902   7.898  0.4226 -0.0062  3.4151
  184SOPE  H10Y21119   5.499   5.086   7.861  2.7108  2.1339 -1.2226
  184SOPE  C31121120   5.665   5.036   7.989  0.1222 -0.3807 -0.2304
  184SOPE  H11X21121   5.678   5.145   7.974 -2.5486  0.0884  0.3732
  184SOPE  H11Y21122   5.764   4.989   7.975  0.2778  0.4115 -2.1047
  184SOPE  C31221123   5.609   5.019   8.128  0.7829 -0.1838  0.2517
  184SOPE  H12X21124   5.579   4.915   8.150 -1.7123  0.9541  2.9400
  184SOPE  H12Y21125   5.514   5.077   8.136  1.3327  0.7198  0.4597
  184SOPE  C31321126   5.706   5.066   8.243  0.9269 -0.3928  0.3718
  184SOPE  H13X21127   5.646   5.067   8.337 -2.1407 -2.7566 -1.3575
  184SOPE  H13Y21128   5.718   5.173   8.215 -2.1954  0.0153  0.2597
  184SOPE  C31421129   5.845   5.000   8.240  0.1641  0.9115 -0.2133
  184SOPE  H14X21130   5.892   5.064   8.317 -2.0716  1.7530  0.5087
  184SOPE  H14Y21131   5.909   5.016   8.150  2.1533 -2.1289  0.4739
  184SOPE  C31521132   5.851   4.851   8.286 -0.1080  0.1817  0.2805
  184SOPE  H15X21133   5.960   4.829   8.294 -0.2745 -1.0218 -0.5372
  184SOPE  H15Y21134   5.816   4.781   8.207  1.6165  0.3018 -0.6479
  184SOPE  C31621135   5.774   4.833   8.417 -0.2416 -0.3030  0.7048
  184SOPE  H16X21136   5.666   4.846   8.394  0.1786 -0.1100 -1.3341
  184SOPE  H16Y21137   5.802   4.915   8.487 -1.4922 -1.2449  2.3764
  184SOPE  C31721138   5.822   4.714   8.494 -0.1838 -0.9323  0.4982
  184SOPE  H17X21139   5.932   4.721   8.496 -0.1043 -1.6500 -0.6177
  184SOPE  H17Y21140   5.798   4.621   8.437 -1.0901 -0.2842 -0.2185
  184SOPE  C31821141   5.754   4.697   8.630  0.7314  0.5822 -0.1603
  184SOPE  H18X21142   5.788   4.780   8.695  1.6582 -0.7531  1.1243
  184SOPE  H18Y21143   5.796   4.607   8.678  1.3959  1.5785  1.1824
  184SOPE  H18Z21144   5.644   4.691   8.614  0.7875  0.5283 -0.5528
  185SAPI   C1221145   3.198   2.461  11.226 -0.3616 -0.1611  0.0801
  185SAPI    H221146   3.165   2.364  11.185  0.8640 -0.0660 -1.1921
  185SAPI    O221147   3.123   2.475  11.340  0.0967 -0.3172  0.4709
  185SAPI   HO221148   3.055   2.406  11.344 -0.7506  0.5289  1.1955
  185SAPI   C1321149   3.352   2.459  11.246  0.3082  0.3967  0.5926
  185SAPI    H321150   3.384   2.430  11.144 -2.2697  0.2034 -0.2371
  185SAPI    O321151   3.387   2.352  11.337  0.5003 -0.1057 -0.0277
  185SAPI   HO321152   3.345   2.367  11.422 -0.9198 -2.2814 -0.2801
  185SAPI   C1421153   3.410   2.595  11.285 -0.0225  0.1907  0.8889
  185SAPI    H421154   3.363   2.613  11.384 -1.0709  2.0665  0.1032
  185SAPI    O421155   3.549   2.577  11.308 -0.1124 -0.4331 -0.1681
  185SAPI   HO421156   3.601   2.596  11.230  0.1969  1.2265  0.3964
  185SAPI   C1521157   3.371   2.704  11.189 -0.1951 -0.1850  0.7893
  185SAPI    H521158   3.411   2.684  11.087  0.0928  2.7309  0.2283
  185SAPI    O521159   3.418   2.837  11.232 -0.3733  0.0001 -0.2112
  185SAPI   HO521160   3.504   2.849  11.191 -1.2931  1.8547 -1.7724
  185SAPI   C1621161   3.214   2.710  11.169  0.1153  0.5788  0.1289
  185SAPI    H621162   3.161   2.750  11.258 -0.9773  0.0024 -0.2367
  185SAPI    O621163   3.188   2.810  11.066  0.1066  0.3388 -0.0677
  185SAPI   HO621164   3.241   2.777  10.993 -0.1782 -1.1789  0.3747
  185SAPI   C1121165   3.165   2.573  11.123 -0.8973  0.4672  0.2114
  185SAPI    H121166   3.227   2.543  11.036 -2.4086 -0.4485 -0.5889
  185SAPI     P21167   2.952   2.460  11.001  0.1604  0.4101 -0.4770
  185SAPI   O1321168   2.808   2.470  11.035  0.1026  0.2449 -0.0996
  185SAPI   O1421169   3.007   2.327  11.025  0.2385  0.1584  0.3469
  185SAPI   O1221170   3.030   2.578  11.093  0.1721  0.2102  0.4102
  185SAPI   O1121171   2.975   2.505  10.854  0.1363  0.4643 -0.3529
  185SAPI    C121172   2.950   2.643  10.814  0.4861 -0.1782 -0.1105
  185SAPI    HA21173   2.898   2.700  10.894  1.0690 -2.4352  2.0046
  185SAPI    HB21174   3.046   2.698  10.802 -0.8629  2.7633  1.4683
  185SAPI    C221175   2.865   2.637  10.691 -0.4773 -0.2782  0.1127
  185SAPI    HS21176   2.863   2.742  10.656  1.1732  0.0743  0.9899
  185SAPI   O2121177   2.739   2.577  10.721  0.1506  0.2164 -0.0420
  185SAPI   C2121178   2.643   2.632  10.656  0.1218  0.1544  0.1229
  185SAPI   O2221179   2.645   2.727  10.578 -0.7015 -0.2285 -0.1133
  185SAPI   C2221180   2.510   2.563  10.673  0.4725  0.0416 -0.2136
  185SAPI   H2R21181   2.516   2.469  10.614  0.6600  0.4415 -0.8430
  185SAPI   H2S21182   2.496   2.539  10.780  0.0086  0.7791 -0.1048
  185SAPI    C321183   2.942   2.553  10.582  0.3089  0.4214  0.8110
  185SAPI    HX21184   2.938   2.446  10.608  1.6158  0.1527  0.0133
  185SAPI    HY21185   3.052   2.565  10.595  0.7392 -2.5088  0.4273
  185SAPI   O3121186   2.911   2.575  10.442 -0.1161  0.0252  0.2437
  185SAPI   C3121187   2.803   2.519  10.392 -1.0010 -0.4010  0.5422
  185SAPI   O3221188   2.723   2.449  10.449  0.1901  1.0552 -0.1466
  185SAPI   C3221189   2.801   2.557  10.242  0.7733 -0.4039 -0.1515
  185SAPI   H2X21190   2.910   2.550  10.222  1.2936  1.2804  1.7397
  185SAPI   H2Y21191   2.772   2.663  10.229 -0.6492 -0.9054 -1.3413
  185SAPI   C2321192   2.388   2.642  10.630 -0.5508  0.3305 -0.2426
  185SAPI   H3R21193   2.375   2.635  10.520  0.5785  0.3223 -0.3790
  185SAPI   H3S21194   2.397   2.744  10.674 -0.5994  0.6248 -0.8926
  185SAPI   C2421195   2.259   2.588  10.699  0.1919  0.2959  0.2038
  185SAPI   H4R21196   2.182   2.668  10.701  1.0603  1.1534 -0.2110
  185SAPI   H4S21197   2.289   2.570  10.805 -0.2157  0.5885  0.3733
  185SAPI   C2521198   2.229   2.458  10.629 -0.6265 -0.0334 -0.1387
  185SAPI   H5R21199   2.284   2.370  10.665 -0.9488 -0.7969 -1.4447
  185SAPI   C2621200   2.140   2.447  10.527  0.5286  0.4659 -0.7144
  185SAPI   H6R21201   2.124   2.349  10.481  0.7304  1.7758 -3.8069
  185SAPI   C2721202   2.056   2.552  10.463  0.2245 -0.6014 -0.1597
  185SAPI   H7R21203   2.094   2.572  10.360 -1.0566  0.4477 -0.4534
  185SAPI   H7S21204   2.083   2.646  10.514  1.6871 -1.0856  0.0099
  185SAPI   C2821205   1.906   2.541  10.465  0.7711 -0.0830 -0.0864
  185SAPI   H8R21206   1.862   2.532  10.565 -1.6301  1.6793 -0.8946
  185SAPI   C2921207   1.824   2.544  10.356  0.2981  0.6085 -0.0055
  185SAPI   H9R21208   1.716   2.554  10.375  0.6917  1.2372  2.2736
  185SAPI  C21021209   1.865   2.565  10.208 -0.1676 -0.8207 -0.0843
  185SAPI  H10R21210   1.962   2.620  10.205  0.7970 -2.4535 -0.4483
  185SAPI  H10S21211   1.780   2.628  10.175  0.6774  0.7243  0.5996
  185SAPI  C21121212   1.887   2.433  10.133  0.1586  0.2748  0.9409
  185SAPI  H11R21213   1.895   2.336  10.183 -0.4993 -1.8848 -2.7915
  185SAPI  C21221214   1.911   2.423   9.997  0.7877 -0.0841  0.4965
  185SAPI  H12R21215   1.934   2.323   9.958 -1.4442 -0.9354  1.2037
  185SAPI  C21321216   1.907   2.529   9.896 -0.0007  0.1832 -0.4148
  185SAPI  H13R21217   1.945   2.493   9.798 -1.8311  1.6905 -1.7568
  185SAPI  H13S21218   1.965   2.618   9.928  1.7622 -1.4009  1.0069
  185SAPI  C21421219   1.773   2.576   9.883  0.0899  0.1558 -0.1302
  185SAPI  H14R21220   1.745   2.642   9.967  1.2752 -1.7378  1.8577
  185SAPI  C21521221   1.697   2.577   9.772  0.0780 -0.5749 -0.2526
  185SAPI  H15R21222   1.597   2.622   9.782  0.2002 -0.4667  0.5042
  185SAPI  C21621223   1.712   2.518   9.632 -0.5077  0.7740  0.4701
  185SAPI  H16R21224   1.628   2.446   9.621 -0.8254  1.3306 -0.9753
  185SAPI  H16S21225   1.800   2.451   9.619 -2.0385 -1.2321  0.0971
  185SAPI  C21721226   1.699   2.628   9.518 -0.1522  0.9062  0.0947
  185SAPI  H17R21227   1.793   2.687   9.509 -2.5086  4.6326 -2.7393
  185SAPI  H17S21228   1.613   2.690   9.551 -0.9790 -1.3849  2.5805
  185SAPI  C21821229   1.665   2.567   9.378 -0.5815  0.2037  0.3199
  185SAPI  H18R21230   1.575   2.502   9.369 -0.8271  0.5567  0.2023
  185SAPI  H18S21231   1.757   2.512   9.349  0.2978  1.8523 -0.1581
  185SAPI  C21921232   1.648   2.680   9.269 -0.1099 -0.1156  0.0117
  185SAPI  H19R21233   1.739   2.743   9.264 -0.5285  0.4414 -0.8489
  185SAPI  H19S21234   1.564   2.751   9.288 -0.6351 -0.9635  0.9307
  185SAPI  C22021235   1.620   2.633   9.128 -0.8198 -0.0298  0.8838
  185SAPI  H20R21236   1.602   2.703   9.044 -0.0334 -2.5425 -1.5069
  185SAPI  H20S21237   1.522   2.581   9.128 -1.8412  1.8113  1.3089
  185SAPI  H20T21238   1.696   2.558   9.099  1.2970  0.5355  4.3649
  185SAPI   C3321239   2.708   2.453  10.164 -0.1974  0.0929 -0.2724
  185SAPI   H3X21240   2.615   2.447  10.224 -0.6585  0.7813 -0.8851
  185SAPI   H3Y21241   2.762   2.357  10.176 -0.7148 -0.1101  0.4954
  185SAPI   C3421242   2.676   2.488  10.025 -0.2933  0.5803  0.5613
  185SAPI   H4X21243   2.595   2.564  10.028 -1.3362 -0.2360 -2.5767
  185SAPI   H4Y21244   2.633   2.397   9.978  2.6574 -0.5292 -0.2053
  185SAPI   C3521245   2.775   2.558   9.934  0.1625 -0.1240 -0.0145
  185SAPI   H5X21246   2.744   2.541   9.829  1.2838 -0.1216 -0.3588
  185SAPI   H5Y21247   2.870   2.501   9.933 -0.6440 -1.5548  0.5819
  185SAPI   C3621248   2.792   2.706   9.951 -0.8070 -0.8053 -0.5853
  185SAPI   H6X21249   2.828   2.723  10.055 -0.6658 -2.0437 -0.4141
  185SAPI   H6Y21250   2.699   2.758   9.920 -0.1168 -1.4428 -4.1753
  185SAPI   C3721251   2.891   2.771   9.845  0.0647  0.1854 -0.3445
  185SAPI   H7X21252   2.988   2.719   9.862  0.1240  0.2678 -0.4299
  185SAPI   H7Y21253   2.898   2.879   9.871 -0.0275 -0.1097  1.0195
  185SAPI   C3821254   2.849   2.785   9.697 -0.1469 -0.1248  0.4057
  185SAPI   H8X21255   2.744   2.811   9.675 -0.6992 -0.0883  2.8041
  185SAPI   H8Y21256   2.873   2.683   9.659  0.6265 -0.6870  2.2607
  185SAPI   C3921257   2.946   2.872   9.619 -0.3653 -0.7039 -0.0973
  185SAPI   H9X21258   3.049   2.833   9.636 -0.1311 -2.1440 -3.9280
  185SAPI   H9Y21259   2.953   2.976   9.658  0.2846 -0.4045 -0.9849
  185SAPI  C31021260   2.915   2.885   9.468 -0.3872  0.5850  0.5004
  185SAPI  H10X21261   2.826   2.952   9.461  0.7051  2.0406  0.2016
  185SAPI  H10Y21262   2.889   2.783   9.432  1.5051 -0.1295  1.0571
  185SAPI  C31121263   3.037   2.935   9.397 -0.9953 -0.5682 -0.0556
  185SAPI  H11X21264   3.128   2.871   9.408 -1.5288 -1.1810  0.8560
  185SAPI  H11Y21265   3.051   3.036   9.442 -1.2944  0.1018 -1.4182
  185SAPI  C31221266   2.996   2.964   9.255  0.1725  0.1610  0.1561
  185SAPI  H12X21267   2.912   3.036   9.242 -0.1453 -0.0526  0.9589
  185SAPI  H12Y21268   2.957   2.869   9.213 -1.3106 -0.3547  2.5129
  185SAPI  C31321269   3.114   3.022   9.179  0.4364  0.2143 -0.0378
  185SAPI  H13X21270   3.098   3.024   9.070  0.2565  1.7632 -0.0172
  185SAPI  H13Y21271   3.201   2.958   9.203 -0.3453 -0.9206 -0.1888
  185SAPI  C31421272   3.144   3.166   9.215  0.6415 -0.1353 -0.2531
  185SAPI  H14X21273   3.095   3.180   9.314  0.9302  0.4925 -0.1949
  185SAPI  H14Y21274   3.094   3.229   9.139  0.8190 -0.0698 -0.3154
  185SAPI  C31521275   3.295   3.202   9.218  0.4359 -0.4893 -1.1107
  185SAPI  H15X21276   3.294   3.313   9.222 -0.1398 -0.4819 -1.3233
  185SAPI  H15Y21277   3.350   3.166   9.128 -1.1432 -1.7705 -1.6308
  185SAPI  C31621278   3.365   3.155   9.341 -0.0956 -0.7913  0.1993
  185SAPI  H16X21279   3.369   3.044   9.344  3.0387 -0.7928  0.0607
  185SAPI  H16Y21280   3.300   3.178   9.427  1.3737  0.3941  1.0465
  185SAPI  C31721281   3.510   3.202   9.347 -0.3295 -0.2391 -0.3647
  185SAPI  H17X21282   3.522   3.307   9.313  0.3082 -0.3573 -0.5090
  185SAPI  H17Y21283   3.559   3.142   9.268 -0.2938 -1.6098  0.6456
  185SAPI  C31821284   3.576   3.200   9.483  0.8780 -1.4206 -0.1653
  185SAPI  H18X21285   3.547   3.110   9.540 -3.8478 -0.4981 -0.6890
  185SAPI  H18Y21286   3.554   3.292   9.541  0.5681 -1.3008 -0.4691
  185SAPI  H18Z21287   3.686   3.205   9.469  0.8978  0.7949  0.3448
  186SAPI   C1221288   4.423   6.339  11.213  0.2938 -0.0373 -0.1398
  186SAPI    H221289   4.369   6.260  11.157 -0.7095  0.7954 -0.3746
  186SAPI    O221290   4.419   6.467  11.156  0.2696 -0.3518  0.1610
  186SAPI   HO221291   4.454   6.446  11.069 -2.7248 -2.3450 -0.7006
  186SAPI   C1321292   4.354   6.336  11.353 -0.4487  0.2674 -0.7438
  186SAPI    H321293   4.375   6.236  11.397  0.3880 -0.2893 -2.3582
  186SAPI    O321294   4.214   6.345  11.349 -0.0883  0.0378  0.0030
  186SAPI   HO321295   4.182   6.324  11.437 -0.9247  0.0222 -0.2873
  186SAPI   C1421296   4.429   6.438  11.442  0.9694 -0.2697 -0.6311
  186SAPI    H421297   4.412   6.538  11.397 -1.3327 -0.1188  0.4522
  186SAPI    O421298   4.367   6.439  11.569  0.2484 -0.0070  0.1128
  186SAPI   HO421299   4.350   6.349  11.597 -1.0484  0.7182  1.8678
  186SAPI   C1521300   4.575   6.410  11.449 -0.1255 -0.0432  0.5738
  186SAPI    H521301   4.602   6.321  11.511  0.7690  0.9503  1.6455
  186SAPI    O521302   4.630   6.522  11.516 -0.0964  0.1351 -0.2130
  186SAPI   HO521303   4.599   6.521  11.607 -1.7166  2.3542 -0.6489
  186SAPI   C1621304   4.638   6.395  11.317  0.2270  0.1989 -0.5798
  186SAPI    H621305   4.647   6.492  11.263  1.5605  1.0446  1.0441
  186SAPI    O621306   4.776   6.357  11.338  0.3023  0.1380 -0.2644
  186SAPI   HO621307   4.826   6.420  11.286  0.4731 -1.1305 -1.6904
  186SAPI   C1121308   4.565   6.296  11.230  0.4947 -0.0832  0.2930
  186SAPI    H121309   4.572   6.197  11.279 -0.1164 -0.9407 -1.2591
  186SAPI     P21310   4.606   6.173  10.997 -0.3442  0.2498 -0.1618
  186SAPI   O1321311   4.569   6.054  11.072  0.0291  0.2302 -0.3293
  186SAPI   O1421312   4.726   6.166  10.914  0.5259  0.6362  0.2916
  186SAPI   O1221313   4.631   6.301  11.101  0.1486  0.4103  0.0821
  186SAPI   O1121314   4.487   6.227  10.917  0.1380  0.1521  0.0871
  186SAPI    C121315   4.377   6.161  10.858  0.4471  0.9726  0.2298
  186SAPI    HA21316   4.383   6.053  10.881 -0.1946  0.7453 -0.6490
  186SAPI    HB21317   4.280   6.196  10.900 -0.8720 -1.6175 -0.4720
  186SAPI    C221318   4.363   6.186  10.707  0.4095  0.0099 -0.0150
  186SAPI    HS21319   4.263   6.156  10.670  0.0292 -0.6499  1.4499
  186SAPI   O2121320   4.466   6.114  10.629 -0.0121  0.2354 -0.6453
  186SAPI   C2121321   4.456   5.983  10.620  0.7596 -0.2941  0.1769
  186SAPI   O2221322   4.376   5.911  10.677  0.5889 -0.2674  0.0399
  186SAPI   C2221323   4.563   5.944  10.519 -0.0913  0.0344 -0.3165
  186SAPI   H2R21324   4.641   6.023  10.514 -2.4081  2.7236  2.3242
  186SAPI   H2S21325   4.607   5.852  10.562  0.9270  0.3956 -0.5589
  186SAPI    C321326   4.358   6.343  10.668 -0.0565 -0.2181  0.3341
  186SAPI    HX21327   4.453   6.379  10.714  0.1236 -0.6203  0.2835
  186SAPI    HY21328   4.275   6.391  10.724  0.1564  0.7951 -0.1838
  186SAPI   O3121329   4.348   6.354  10.532 -0.4998  0.1785 -0.4282
  186SAPI   C3121330   4.402   6.460  10.482 -0.0049 -0.7784 -0.6843
  186SAPI   O3221331   4.441   6.558  10.549 -0.2296 -0.1753 -0.6027
  186SAPI   C3221332   4.398   6.466  10.334  0.7434  0.2574  0.2137
  186SAPI   H2X21333   4.499   6.500  10.304 -0.1407  2.1473 -0.7719
  186SAPI   H2Y21334   4.325   6.545  10.306 -0.8015 -0.8003  1.0892
  186SAPI   C2321335   4.497   5.900  10.387  0.4778  0.0033 -0.2722
  186SAPI   H3R21336   4.452   5.994  10.349 -2.4595 -0.7945  0.9093
  186SAPI   H3S21337   4.409   5.834  10.406  0.4208  0.3796  0.8319
  186SAPI   C2421338   4.584   5.833  10.291  0.2325  0.7711 -0.3273
  186SAPI   H4R21339   4.674   5.897  10.285  0.2440  0.9455  1.3691
  186SAPI   H4S21340   4.552   5.841  10.185 -0.0247  1.2283 -0.2197
  186SAPI   C2521341   4.625   5.693  10.327 -0.6429  0.2420 -0.6710
  186SAPI   H5R21342   4.706   5.683  10.401 -1.1329  1.4613  0.0470
  186SAPI   C2621343   4.564   5.582  10.275 -0.5263 -0.7947 -0.0450
  186SAPI   H6R21344   4.610   5.483  10.287  1.8814  0.0417 -1.6569
  186SAPI   C2721345   4.452   5.578  10.172 -1.0571  0.1267 -0.3594
  186SAPI   H7R21346   4.490   5.576  10.068  0.6032 -1.5750  0.2296
  186SAPI   H7S21347   4.392   5.669  10.193  0.5672  1.2140 -0.1997
  186SAPI   C2821348   4.362   5.456  10.198  0.0660  0.1502 -0.3627
  186SAPI   H8R21349   4.309   5.455  10.295 -0.9369  1.0569 -0.8830
  186SAPI   C2921350   4.331   5.351  10.111 -0.1517  0.4571 -0.0667
  186SAPI   H9R21351   4.257   5.275  10.138  0.4428 -1.3269 -2.9321
  186SAPI  C21021352   4.384   5.315   9.975 -0.2120 -0.0359  0.6912
  186SAPI  H10R21353   4.439   5.221   9.997 -1.5900 -0.6754  1.5993
  186SAPI  H10S21354   4.466   5.382   9.943  0.4057 -0.7114  0.8376
  186SAPI  C21121355   4.283   5.313   9.862  0.1469 -0.8550  0.0620
  186SAPI  H11R21356   4.195   5.377   9.877  1.5530  1.1839 -0.1052
  186SAPI  C21221357   4.296   5.264   9.743 -0.1683 -0.2741  0.1552
  186SAPI  H12R21358   4.222   5.302   9.670  1.7709  1.9436 -0.8007
  186SAPI  C21321359   4.423   5.205   9.685 -0.0858 -0.1794  0.3694
  186SAPI  H13R21360   4.391   5.108   9.642  0.8673 -0.5158  0.3977
  186SAPI  H13S21361   4.496   5.184   9.766 -0.5045  2.7241  1.6258
  186SAPI  C21421362   4.482   5.288   9.565  0.6610 -0.4097 -0.2274
  186SAPI  H14R21363   4.405   5.310   9.490  1.4154 -1.9501 -1.5108
  186SAPI  C21521364   4.615   5.323   9.556 -0.3319  0.5938  0.0887
  186SAPI  H15R21365   4.645   5.392   9.476  2.2089  0.7663  1.1115
  186SAPI  C21621366   4.724   5.286   9.654 -0.7073 -0.7455 -0.0401
  186SAPI  H16R21367   4.826   5.280   9.608 -0.2493 -1.7535  1.0534
  186SAPI  H16S21368   4.702   5.188   9.700 -0.6295 -0.4399  0.6539
  186SAPI  C21721369   4.719   5.393   9.771  0.4560  0.0482  0.8548
  186SAPI  H17R21370   4.615   5.401   9.810 -0.0920 -1.0831 -0.3111
  186SAPI  H17S21371   4.763   5.489   9.738  1.5021 -0.8278 -0.3532
  186SAPI  C21821372   4.817   5.349   9.883 -0.9918  0.4927 -0.3241
  186SAPI  H18R21373   4.910   5.321   9.829 -1.9452 -0.0548 -1.7410
  186SAPI  H18S21374   4.789   5.261   9.944  1.2976 -0.2932 -0.2842
  186SAPI  C21921375   4.846   5.464   9.978 -0.7546  0.5560 -0.4696
  186SAPI  H19R21376   4.748   5.461  10.030  1.1246  1.5699  3.5445
  186SAPI  H19S21377   4.867   5.568   9.943 -1.5494  0.6991 -0.5393
  186SAPI  C22021378   4.951   5.427  10.086 -0.0564 -0.2609  0.2830
  186SAPI  H20R21379   4.922   5.339  10.148 -0.8129 -0.4159 -0.2748
  186SAPI  H20S21380   4.951   5.506  10.164  0.4864 -0.4669  0.4936
  186SAPI  H20T21381   5.055   5.413  10.051 -0.0732 -2.9398  1.0561
  186SAPI   C3321382   4.349   6.330  10.277 -0.2709  0.0912  0.4010
  186SAPI   H3X21383   4.244   6.315  10.311 -0.6857 -1.3321 -1.3943
  186SAPI   H3Y21384   4.402   6.246  10.327 -0.4010 -0.5433 -0.5160
  186SAPI   C3421385   4.352   6.303  10.122  0.4385 -0.3732 -0.3588
  186SAPI   H4X21386   4.304   6.391  10.074  0.2104  0.5429  1.4797
  186SAPI   H4Y21387   4.300   6.209  10.095  3.6015 -2.0336 -1.1014
  186SAPI   C3521388   4.487   6.288  10.049 -0.0716 -0.3993 -0.1522
  186SAPI   H5X21389   4.540   6.201  10.093 -2.7079 -1.5693  0.9228
  186SAPI   H5Y21390   4.551   6.378  10.066  3.5995 -2.8675  0.2993
  186SAPI   C3621391   4.478   6.281   9.893  0.0575 -0.2070 -0.9919
  186SAPI   H6X21392   4.465   6.380   9.845 -2.2053 -0.1237 -0.3327
  186SAPI   H6Y21393   4.388   6.218   9.875 -0.5430  0.4248 -0.2769
  186SAPI   C3721394   4.604   6.217   9.830 -0.4844 -1.0471  0.0388
  186SAPI   H7X21395   4.620   6.115   9.871  0.8332 -1.1692 -0.7515
  186SAPI   H7Y21396   4.690   6.283   9.853  1.3850 -3.5072  0.4939
  186SAPI   C3821397   4.609   6.197   9.676 -0.0167  0.2673 -0.5839
  186SAPI   H8X21398   4.545   6.107   9.663 -0.7498  0.9042 -1.5098
  186SAPI   H8Y21399   4.711   6.168   9.643 -1.2845 -2.1377 -2.7461
  186SAPI   C3921400   4.559   6.323   9.597 -0.1046  0.2906  0.0605
  186SAPI   H9X21401   4.629   6.405   9.623  1.7953 -1.3357  0.3409
  186SAPI   H9Y21402   4.457   6.350   9.631  0.4568 -0.1248  2.2244
  186SAPI  C31021403   4.557   6.309   9.441 -0.3054  0.0394 -0.5854
  186SAPI  H10X21404   4.664   6.294   9.412 -1.0345 -1.2437 -2.8695
  186SAPI  H10Y21405   4.528   6.402   9.387 -1.9183 -0.1020 -0.0051
  186SAPI  C31121406   4.482   6.195   9.377 -1.3130  0.1985  0.2714
  186SAPI  H11X21407   4.540   6.100   9.375 -0.4069  0.7292  0.6273
  186SAPI  H11Y21408   4.468   6.223   9.270 -0.8822 -1.6108 -0.2901
  186SAPI  C31221409   4.355   6.150   9.448  1.0833  0.5901  0.2883
  186SAPI  H12X21410   4.294   6.242   9.465 -0.3683  0.1910 -2.2841
  186SAPI  H12Y21411   4.372   6.111   9.551 -1.5887  1.6347  1.2126
  186SAPI  C31321412   4.266   6.045   9.379 -0.0045 -0.4565  0.1299
  186SAPI  H13X21413   4.169   6.036   9.431  0.0424  0.1410  0.3247
  186SAPI  H13Y21414   4.321   5.951   9.400 -1.0578 -0.8079  1.4311
  186SAPI  C31421415   4.240   6.078   9.229 -0.1537 -0.5375  0.1791
  186SAPI  H14X21416   4.337   6.088   9.176  0.1476 -0.3393  0.7578
  186SAPI  H14Y21417   4.204   6.183   9.222  0.2592 -0.4934 -1.7906
  186SAPI  C31521418   4.155   5.983   9.148 -0.2617  0.4600 -0.3210
  186SAPI  H15X21419   4.059   5.982   9.204 -0.5151  0.3815 -0.7549
  186SAPI  H15Y21420   4.205   5.884   9.138  1.3182  0.6347  3.9352
  186SAPI  C31621421   4.136   6.039   9.004 -0.1712  0.1142  0.7815
  186SAPI  H16X21422   4.242   6.044   8.970  0.4481 -0.6994  2.4813
  186SAPI  H16Y21423   4.083   6.136   9.008 -0.7807 -0.2516  2.1479
  186SAPI  C31721424   4.065   5.930   8.918  0.3001  0.0461 -0.5955
  186SAPI  H17X21425   4.112   5.833   8.944  0.5927  0.6241  1.1765
  186SAPI  H17Y21426   4.094   5.950   8.813  0.8690 -0.1563 -0.4794
  186SAPI  C31821427   3.912   5.923   8.937  0.0646  0.8290 -0.3787
  186SAPI  H18X21428   3.892   5.897   9.044 -1.4523  1.4465 -0.4894
  186SAPI  H18Y21429   3.874   5.847   8.865  0.3254  2.3590 -2.2033
  186SAPI  H18Z21430   3.860   6.018   8.914 -1.2596  0.2532  0.1048
  187SAPI   C1221431   4.186   0.421   6.514 -0.0272  0.5652  0.3575
  187SAPI    H221432   4.140   0.376   6.604  2.0106 -1.1485  0.5925
  187SAPI    O221433   4.107   0.412   6.393  0.3262 -0.0201  0.1970
  187SAPI   HO221434   4.139   0.330   6.355  1.6807  0.7516 -0.4130
  187SAPI   C1321435   4.212   0.565   6.562 -0.0228 -0.3291  0.3789
  187SAPI    H321436   4.283   0.575   6.646 -0.6594 -0.0262  0.8857
  187SAPI    O321437   4.096   0.634   6.593  0.2867  0.1474 -0.0204
  187SAPI   HO321438   4.124   0.724   6.611 -2.1343  0.7240  1.2393
  187SAPI   C1421439   4.298   0.637   6.459 -0.2894 -0.3103 -0.0154
  187SAPI    H421440   4.245   0.631   6.362 -0.5408  0.6081  0.0500
  187SAPI    O421441   4.315   0.778   6.484 -0.6367  0.3961 -0.1460
  187SAPI   HO421442   4.267   0.835   6.423  0.6643 -0.2137 -1.8042
  187SAPI   C1521443   4.435   0.566   6.444 -0.4140 -0.1230 -0.6184
  187SAPI    H521444   4.467   0.559   6.550 -2.8675 -2.5747  0.0946
  187SAPI    O521445   4.532   0.638   6.369 -0.1564  0.1400  0.8770
  187SAPI   HO521446   4.482   0.719   6.353 -0.2494  0.3662  2.1994
  187SAPI   C1621447   4.412   0.423   6.397 -0.0729  0.1493  0.4202
  187SAPI    H621448   4.376   0.431   6.292 -0.7073 -0.5224  0.5779
  187SAPI    O621449   4.535   0.355   6.401  0.0013  0.2176  0.0690
  187SAPI   HO621450   4.523   0.275   6.453  0.7423 -0.4395 -0.7369
  187SAPI   C1121451   4.316   0.344   6.492  0.4364 -0.3686 -0.2700
  187SAPI    H121452   4.374   0.341   6.587 -0.6278 -0.2684  0.3915
  187SAPI     P21453   4.357   0.074   6.499 -0.0807 -0.3821 -0.0545
  187SAPI   O1321454   4.499   0.109   6.531 -0.1001 -0.8022  0.4638
  187SAPI   O1421455   4.340  -0.030   6.394  0.6266  0.3416 -0.2074
  187SAPI   O1221456   4.277   0.212   6.447 -0.6055 -0.2215 -0.6039
  187SAPI   O1121457   4.282   0.026   6.630  0.3716 -0.3691 -0.3492
  187SAPI    C121458   4.147   0.045   6.646  0.8415 -0.6286  0.0909
  187SAPI    HA21459   4.105   0.124   6.581  3.3750 -0.5904 -1.6428
  187SAPI    HB21460   4.094  -0.051   6.629  0.7494 -0.5722  0.0573
  187SAPI    C221461   4.113   0.087   6.789 -0.3002  1.2179 -0.7347
  187SAPI    HS21462   4.006   0.064   6.802  0.3111 -0.9134  1.0929
  187SAPI   O2121463   4.146   0.223   6.817  0.5515 -0.9178  0.8758
  187SAPI   C2121464   4.088   0.286   6.911  0.4504 -0.5792 -0.3558
  187SAPI   O2221465   3.985   0.250   6.970  0.6042 -0.1841  0.4999
  187SAPI   C2221466   4.158   0.421   6.938 -0.2257 -0.3752  0.3422
  187SAPI   H2R21467   4.229   0.405   7.022  1.2475  0.3984 -0.7236
  187SAPI   H2S21468   4.198   0.446   6.838 -0.6501 -3.1719 -0.6132
  187SAPI    C321469   4.182  -0.013   6.897  0.1125 -0.2733  0.2138
  187SAPI    HX21470   4.292   0.001   6.899  0.6071 -3.1654 -1.3321
  187SAPI    HY21471   4.169  -0.116   6.858 -2.1472  0.3453 -0.8407
  187SAPI   O3121472   4.111  -0.007   7.025  0.0952 -0.2749  0.7931
  187SAPI   C3121473   4.175   0.077   7.107  0.1331 -0.2993 -0.0384
  187SAPI   O3221474   4.278   0.139   7.087  0.4614 -0.3411 -0.4074
  187SAPI   C3221475   4.086   0.083   7.230 -0.2566  0.0060 -0.1240
  187SAPI   H2X21476   4.052  -0.022   7.246  1.2574 -0.3438  1.0872
  187SAPI   H2Y21477   4.001   0.145   7.195  1.5280  0.7776 -3.5421
  187SAPI   C2321478   4.062   0.535   6.981 -0.4213 -0.8590  0.0456
  187SAPI   H3R21479   4.021   0.513   7.082  1.8976  0.3670  1.3232
  187SAPI   H3S21480   3.979   0.536   6.907  1.0705 -2.3539 -1.7362
  187SAPI   C2421481   4.139   0.671   6.984 -0.2265  0.1676  0.2213
  187SAPI   H4R21482   4.167   0.688   6.878  1.6114 -1.9485  0.2930
  187SAPI   H4S21483   4.233   0.652   7.039  1.8222 -0.1184 -3.1285
  187SAPI   C2521484   4.064   0.786   7.038  0.2111  0.1059 -0.1756
  187SAPI   H5R21485   4.052   0.869   6.966 -1.7542  0.0716  0.0671
  187SAPI   C2621486   4.024   0.795   7.169 -0.0738 -0.0193  0.1195
  187SAPI   H6R21487   3.971   0.889   7.192  0.2424  0.4827 -1.1290
  187SAPI   C2721488   4.047   0.689   7.280  0.0148 -0.6134 -0.2688
  187SAPI   H7R21489   4.099   0.742   7.363 -1.9767  2.8154 -0.9894
  187SAPI   H7S21490   4.121   0.613   7.247 -0.5101 -0.0085 -3.1793
  187SAPI   C2821491   3.921   0.619   7.324 -0.2458 -0.4856  0.9898
  187SAPI   H8R21492   3.852   0.599   7.240 -1.9888 -2.1225  2.7256
  187SAPI   C2921493   3.881   0.565   7.448 -0.7339  0.4367  1.1642
  187SAPI   H9R21494   3.779   0.525   7.455 -0.2496 -0.6300  2.4443
  187SAPI  C21021495   3.954   0.578   7.580 -0.0706 -0.0107  0.9014
  187SAPI  H10R21496   3.884   0.566   7.665 -0.9254  0.2644  0.2646
  187SAPI  H10S21497   4.004   0.677   7.583  1.8407 -0.8668 -0.5624
  187SAPI  C21121498   4.071   0.475   7.593  0.2054 -0.1595  0.3905
  187SAPI  H11R21499   4.089   0.421   7.498  0.5815 -2.7193  1.8361
  187SAPI  C21221500   4.131   0.437   7.706 -0.2721 -0.2673  0.3624
  187SAPI  H12R21501   4.212   0.362   7.708 -0.8179 -0.8703  0.3595
  187SAPI  C21321502   4.106   0.488   7.839 -0.5104 -0.4305 -0.8098
  187SAPI  H13R21503   4.011   0.546   7.844  0.7762  1.6940  1.0725
  187SAPI  H13S21504   4.197   0.546   7.866 -1.4162 -0.6474  3.3901
  187SAPI  C21421505   4.099   0.379   7.938  0.7950  0.3114 -0.5630
  187SAPI  H14R21506   4.161   0.291   7.916 -0.4101 -0.8852  0.6638
  187SAPI  C21521507   4.063   0.383   8.070  0.1778  0.2182 -0.1728
  187SAPI  H15R21508   4.097   0.293   8.123  2.8536 -0.2727 -2.4939
  187SAPI  C21621509   4.016   0.502   8.156  0.3315  0.0577  0.0905
  187SAPI  H16R21510   3.919   0.478   8.204  1.1979 -2.0438  0.9265
  187SAPI  H16S21511   3.997   0.588   8.088 -1.1073 -0.0751  0.2980
  187SAPI  C21721512   4.116   0.547   8.271  0.0697  0.2893  0.3531
  187SAPI  H17R21513   4.094   0.643   8.321  1.5361 -0.5146  2.6818
  187SAPI  H17S21514   4.218   0.563   8.231  0.6946 -1.9585  0.9168
  187SAPI  C21821515   4.129   0.450   8.391  0.3391  0.4415 -0.4254
  187SAPI  H18R21516   4.215   0.491   8.448  0.9529 -0.1673 -0.8941
  187SAPI  H18S21517   4.167   0.354   8.348  0.0987  1.2193 -2.5109
  187SAPI  C21921518   3.999   0.447   8.469  0.5838  0.1465  0.0428
  187SAPI  H19R21519   3.915   0.420   8.401  2.2839  1.3260 -2.7103
  187SAPI  H19S21520   3.985   0.550   8.506  1.2977 -0.1099  1.0884
  187SAPI  C22021521   3.997   0.357   8.589 -0.4452 -0.0095  0.0582
  187SAPI  H20R21522   4.081   0.379   8.659 -3.3891  3.6956  2.8444
  187SAPI  H20S21523   4.001   0.251   8.556 -2.3703  0.5361 -2.1778
  187SAPI  H20T21524   3.914   0.391   8.654 -0.3687  1.8786 -0.7721
  187SAPI   C3321525   4.151   0.146   7.354  0.3465 -0.3531  0.1371
  187SAPI   H3X21526   4.074   0.158   7.433  0.6930 -1.0869  0.6005
  187SAPI   H3Y21527   4.188   0.249   7.334  0.5678 -0.3722  0.4469
  187SAPI   C3421528   4.262   0.067   7.412 -0.4206 -0.2078  0.3988
  187SAPI   H4X21529   4.356   0.075   7.353  1.8970 -1.0474  3.7109
  187SAPI   H4Y21530   4.228  -0.036   7.389 -1.4006 -0.1889  1.6184
  187SAPI   C3521531   4.297   0.087   7.561 -0.5583 -0.3005  0.2831
  187SAPI   H5X21532   4.337   0.191   7.565 -0.7144 -0.2775  1.8364
  187SAPI   H5Y21533   4.377   0.016   7.592  0.3038  1.3826  2.1453
  187SAPI   C3621534   4.189   0.054   7.654  0.5356  0.6442 -0.0186
  187SAPI   H6X21535   4.137  -0.039   7.624 -1.2484  1.8168 -0.7527
  187SAPI   H6Y21536   4.110   0.132   7.650  0.3738  0.5321  0.9258
  187SAPI   C3721537   4.242   0.056   7.798  0.4694 -0.4837 -0.1081
  187SAPI   H7X21538   4.278   0.155   7.833 -0.7858  0.7417 -2.0559
  187SAPI   H7Y21539   4.319  -0.023   7.811 -0.7244 -1.6806 -0.1091
  187SAPI   C3821540   4.125   0.019   7.888 -0.0508 -0.0895  0.1196
  187SAPI   H8X21541   4.077  -0.072   7.845  0.5312  0.6187 -2.2128
  187SAPI   H8Y21542   4.039   0.089   7.892  0.7496  0.9060  0.1534
  187SAPI   C3921543   4.169   0.010   8.032 -0.3373  0.6428  1.0963
  187SAPI   H9X21544   4.217   0.109   8.046  3.5182 -0.3419 -2.8165
  187SAPI   H9Y21545   4.253  -0.062   8.039 -0.5166  0.1301 -1.3767
  187SAPI  C31021546   4.047  -0.013   8.121  0.1223 -1.1050  0.4785
  187SAPI  H10X21547   3.977  -0.092   8.085 -0.4604 -0.0114 -0.9114
  187SAPI  H10Y21548   3.986   0.080   8.120  1.1934 -0.3916 -0.6664
  187SAPI  C31121549   4.078  -0.028   8.271  0.6183  0.2860 -0.4442
  187SAPI  H11X21550   4.120   0.068   8.308 -0.6294  0.9879 -0.7963
  187SAPI  H11Y21551   4.148  -0.111   8.294  2.3327  1.8408  0.2151
  187SAPI  C31221552   3.950  -0.044   8.358 -0.2176  0.3189  0.1884
  187SAPI  H12X21553   3.881   0.036   8.323 -2.5945 -1.1694  1.2560
  187SAPI  H12Y21554   3.972  -0.025   8.465  1.4215  0.9652 -0.2189
  187SAPI  C31321555   3.880  -0.177   8.322 -0.1439 -0.5213  0.0947
  187SAPI  H13X21556   3.954  -0.260   8.322  0.1319 -0.2766  0.1229
  187SAPI  H13Y21557   3.853  -0.172   8.215 -3.2619 -0.2110  0.7904
  187SAPI  C31421558   3.752  -0.200   8.392 -0.3355  0.2983  0.0647
  187SAPI  H14X21559   3.695  -0.280   8.340  0.6273  0.1477 -0.7999
  187SAPI  H14Y21560   3.686  -0.113   8.379 -0.3167 -0.0483 -2.9270
  187SAPI  C31521561   3.767  -0.242   8.541 -0.1867  0.3974 -0.3855
  187SAPI  H15X21562   3.673  -0.249   8.600 -0.3605 -2.2080 -0.8278
  187SAPI  H15Y21563   3.816  -0.159   8.596 -3.2816  1.3586  1.1591
  187SAPI  C31621564   3.832  -0.379   8.566  0.0265  0.9715  0.0217
  187SAPI  H16X21565   3.871  -0.395   8.669 -1.1348 -2.9198  0.0254
  187SAPI  H16Y21566   3.932  -0.375   8.518  0.0897  1.9681  0.2200
  187SAPI  C31721567   3.749  -0.505   8.511 -0.1983  0.4171  0.2015
  187SAPI  H17X21568   3.750  -0.498   8.400  1.6486  1.5766  0.2436
  187SAPI  H17Y21569   3.647  -0.502   8.554  0.2657  0.7381  1.3285
  187SAPI  C31821570   3.813  -0.641   8.541 -0.2716  0.7489  0.0756
  187SAPI  H18X21571   3.756  -0.689   8.623 -0.1754  0.2593 -0.1411
  187SAPI  H18Y21572   3.921  -0.626   8.562 -0.3141 -0.2214  1.0909
  187SAPI  H18Z21573   3.807  -0.718   8.461  1.5640 -2.2517  2.5866
  188SAPI   C1221574   0.060   4.749   6.554 -0.0056 -0.1658 -0.2176
  188SAPI    H221575   0.053   4.675   6.637  0.7212  0.2089  0.1875
  188SAPI    O221576  -0.005   4.689   6.445 -0.2309  0.1333 -0.3084
  188SAPI   HO221577   0.028   4.598   6.440 -0.7526 -0.3250  2.7719
  188SAPI   C1321578  -0.007   4.882   6.590  0.3455 -0.3325 -0.5549
  188SAPI    H321579   0.053   4.922   6.674  1.0679 -1.1605 -0.6608
  188SAPI    O321580  -0.145   4.873   6.625  0.2827  0.8641 -0.4940
  188SAPI   HO321581  -0.188   4.959   6.623 -2.1497 -0.2795 -1.0488
  188SAPI   C1421582   0.014   4.976   6.476 -0.2753 -0.0881 -0.2317
  188SAPI    H421583  -0.036   4.938   6.385  1.6600 -0.8410 -1.0397
  188SAPI    O421584  -0.038   5.111   6.504 -0.6519  0.2260  0.4773
  188SAPI   HO421585  -0.119   5.128   6.455  0.3684  0.0517 -1.3451
  188SAPI   C1521586   0.166   4.981   6.443 -0.7219 -0.5593  0.1228
  188SAPI    H521587   0.209   5.025   6.535  0.4144  0.7128 -0.9751
  188SAPI    O521588   0.194   5.071   6.337  0.1051 -0.0971 -0.0991
  188SAPI   HO521589   0.290   5.068   6.329  0.0862  1.4962 -1.4974
  188SAPI   C1621590   0.231   4.847   6.418 -0.4407  0.0974  0.3366
  188SAPI    H621591   0.185   4.801   6.328  1.2935 -2.2809  0.5601
  188SAPI    O621592   0.371   4.867   6.397  0.2148  0.2053 -0.8455
  188SAPI   HO621593   0.422   4.815   6.459 -1.5533 -0.3349  0.2267
  188SAPI   C1121594   0.210   4.760   6.534  1.2428 -0.2963  0.0957
  188SAPI    H121595   0.239   4.809   6.629 -1.7871 -0.6516  1.3220
  188SAPI     P21596   0.410   4.592   6.585  0.1067  0.1112  0.1672
  188SAPI   O1321597   0.501   4.705   6.569 -0.5790 -0.3505  0.2584
  188SAPI   O1421598   0.450   4.467   6.514  0.0806  0.1092  0.0267
  188SAPI   O1221599   0.265   4.633   6.524  0.6322 -0.0942  0.3317
  188SAPI   O1121600   0.378   4.562   6.739  0.2989  0.2874 -0.4694
  188SAPI    C121601   0.279   4.468   6.772 -0.7918 -0.1342  0.1396
  188SAPI    HA21602   0.186   4.521   6.803 -0.1896 -0.0782  1.9270
  188SAPI    HB21603   0.252   4.405   6.684  0.0469 -0.2120 -0.0728
  188SAPI    C221604   0.335   4.374   6.877  0.3183 -0.0180  0.1586
  188SAPI    HS21605   0.264   4.289   6.893 -1.4193  1.2668 -0.3918
  188SAPI   O2121606   0.363   4.443   6.999 -0.3725  0.7466 -0.1736
  188SAPI   C2121607   0.253   4.457   7.073  0.1387  0.1772  0.1618
  188SAPI   O2221608   0.143   4.414   7.048 -0.5537  0.4798 -0.6498
  188SAPI   C2221609   0.287   4.524   7.201 -0.3638 -0.0164 -0.5052
  188SAPI   H2R21610   0.392   4.561   7.201 -0.2524 -0.3232 -1.2323
  188SAPI   H2S21611   0.231   4.618   7.186 -0.0722  0.2459  0.0327
  188SAPI    C321612   0.452   4.302   6.821 -0.8322  0.4301 -0.2170
  188SAPI    HX21613   0.534   4.377   6.813 -1.0891  0.5014 -4.0029
  188SAPI    HY21614   0.436   4.277   6.713 -0.6665 -0.3657 -0.0584
  188SAPI   O3121615   0.481   4.186   6.898 -1.1182 -0.4069  0.4154
  188SAPI   C3121616   0.611   4.138   6.873 -0.2069 -0.2126  0.0041
  188SAPI   O3221617   0.681   4.171   6.786 -0.2828  0.3523  0.3367
  188SAPI   C3221618   0.659   4.055   6.989 -0.8436 -0.5152 -0.1718
  188SAPI   H2X21619   0.758   4.014   6.961 -1.0815 -0.7013 -0.7585
  188SAPI   H2Y21620   0.598   3.964   7.008  1.7119 -1.8417  2.4441
  188SAPI   C2321621   0.227   4.449   7.325  0.6877  0.4870  0.0462
  188SAPI   H3R21622   0.116   4.441   7.319  0.5582  1.7451  0.6351
  188SAPI   H3S21623   0.245   4.505   7.419  2.8384 -1.8166  1.1488
  188SAPI   C2421624   0.283   4.303   7.345 -0.6176 -0.1426 -0.2326
  188SAPI   H4R21625   0.252   4.248   7.253  1.9066 -0.1429 -1.1795
  188SAPI   H4S21626   0.221   4.264   7.428 -0.3469  0.1423  0.1033
  188SAPI   C2521627   0.428   4.297   7.379 -0.3105 -0.2680 -0.1052
  188SAPI   H5R21628   0.502   4.348   7.315 -1.2583  1.6332  0.2428
  188SAPI   C2621629   0.470   4.237   7.497  0.1451 -0.5448  1.1432
  188SAPI   H6R21630   0.578   4.221   7.510  0.6373 -0.4045 -2.0132
  188SAPI   C2721631   0.384   4.181   7.605  0.2299 -0.6699 -0.0756
  188SAPI   H7R21632   0.453   4.112   7.658  0.4001  0.2880  0.9672
  188SAPI   H7S21633   0.308   4.113   7.559 -0.5520  0.2217 -0.1234
  188SAPI   C2821634   0.318   4.273   7.694 -0.2918 -0.6193 -0.0725
  188SAPI   H8R21635   0.255   4.346   7.640 -0.4179  0.5903  1.6436
  188SAPI   C2921636   0.301   4.275   7.822 -0.0102 -0.0222  0.3735
  188SAPI   H9R21637   0.249   4.366   7.858  1.1424 -0.3852  3.2584
  188SAPI  C21021638   0.352   4.167   7.915 -0.8722 -0.4304  0.1573
  188SAPI  H10R21639   0.457   4.196   7.940 -1.1801  1.2258 -0.3333
  188SAPI  H10S21640   0.361   4.067   7.867  1.7002 -0.6809  0.9987
  188SAPI  C21121641   0.268   4.150   8.037 -0.2783 -0.2012  0.0094
  188SAPI  H11R21642   0.162   4.135   8.013 -0.3958 -2.7329  1.6882
  188SAPI  C21221643   0.307   4.144   8.169  0.9041 -0.1075  0.7809
  188SAPI  H12R21644   0.230   4.149   8.249  1.3057  2.9315  1.0879
  188SAPI  C21321645   0.451   4.147   8.214 -0.6636 -0.0886 -0.7394
  188SAPI  H13R21646   0.479   4.235   8.275  2.9857 -0.2892 -1.9275
  188SAPI  H13S21647   0.512   4.149   8.121 -2.2435  1.2902 -1.8229
  188SAPI  C21421648   0.486   4.017   8.290 -0.2025  0.3430 -0.7266
  188SAPI  H14R21649   0.455   3.920   8.249 -0.0293 -0.6266  1.3154
  188SAPI  C21521650   0.564   4.015   8.404 -0.2307  0.9780 -0.3601
  188SAPI  H15R21651   0.596   3.921   8.452  2.7995  1.1030 -1.8932
  188SAPI  C21621652   0.621   4.139   8.478 -0.3646 -0.2714  0.1885
  188SAPI  H16R21653   0.539   4.195   8.528 -0.3534 -0.6426  0.6339
  188SAPI  H16S21654   0.682   4.208   8.416 -0.0963  1.9395  2.6868
  188SAPI  C21721655   0.720   4.103   8.586  0.1674  0.3894  0.6780
  188SAPI  H17R21656   0.800   4.037   8.545 -0.6153  1.0323 -2.0479
  188SAPI  H17S21657   0.664   4.070   8.676 -1.4722  0.2202 -0.3705
  188SAPI  C21821658   0.796   4.227   8.635  0.3770 -0.4160  0.6762
  188SAPI  H18R21659   0.720   4.297   8.677  1.3045 -0.8863  3.3145
  188SAPI  H18S21660   0.856   4.272   8.554  0.5120  0.5087  1.2739
  188SAPI  C21921661   0.870   4.196   8.763 -0.2841  0.6800 -0.2747
  188SAPI  H19R21662   0.927   4.291   8.772  2.4056 -0.9500  1.1171
  188SAPI  H19S21663   0.945   4.115   8.750  0.6004  1.1592  1.4809
  188SAPI  C22021664   0.779   4.179   8.882  0.5381 -0.0013  0.5208
  188SAPI  H20R21665   0.835   4.168   8.978 -2.3284 -2.8335  2.0692
  188SAPI  H20S21666   0.719   4.085   8.879  1.6516 -0.8727  2.9056
  188SAPI  H20T21667   0.716   4.267   8.906  0.6986  0.2010  0.2147
  188SAPI   C3321668   0.674   4.138   7.118  0.6948 -0.2217 -0.2952
  188SAPI   H3X21669   0.572   4.161   7.155  1.3823  0.4701  1.2874
  188SAPI   H3Y21670   0.729   4.234   7.102 -3.1791  1.9523 -1.9151
  188SAPI   C3421671   0.739   4.064   7.237  0.3874 -0.2834 -0.0968
  188SAPI   H4X21672   0.761   4.145   7.310  0.8177  0.0453 -0.5833
  188SAPI   H4Y21673   0.832   4.016   7.200  1.3630  0.5560  1.1645
  188SAPI   C3521674   0.642   3.967   7.304  0.1722 -1.1087  0.0514
  188SAPI   H5X21675   0.592   3.908   7.223 -2.2329 -1.4387  1.6821
  188SAPI   H5Y21676   0.555   4.019   7.349 -3.1483 -4.3831 -1.9711
  188SAPI   C3621677   0.703   3.870   7.407 -1.0288 -0.5275  0.5593
  188SAPI   H6X21678   0.779   3.806   7.357  1.9311  2.4324  0.9062
  188SAPI   H6Y21679   0.628   3.808   7.460  1.3814 -1.5596  2.9174
  188SAPI   C3721680   0.762   3.942   7.532  1.2533 -0.2954 -0.4512
  188SAPI   H7X21681   0.682   4.000   7.582  1.1089 -0.9593  0.1124
  188SAPI   H7Y21682   0.844   4.008   7.497 -1.3668  2.4071 -1.8732
  188SAPI   C3821683   0.822   3.850   7.639 -0.1237  0.4009  0.3971
  188SAPI   H8X21684   0.907   3.792   7.597  0.0789  0.4285  0.7662
  188SAPI   H8Y21685   0.746   3.770   7.656  0.7802 -0.1668  1.9799
  188SAPI   C3921686   0.859   3.921   7.768 -0.1499 -0.0113  0.1606
  188SAPI   H9X21687   0.919   4.014   7.765  0.6661 -0.5272 -0.2108
  188SAPI   H9Y21688   0.921   3.844   7.820  1.4207  1.5711  0.7275
  188SAPI  C31021689   0.739   3.948   7.865  0.6898  0.1024 -0.4378
  188SAPI  H10X21690   0.707   3.853   7.913  0.9405  0.4049  0.3314
  188SAPI  H10Y21691   0.661   3.998   7.804 -1.1175 -1.3670  0.5764
  188SAPI  C31121692   0.792   4.051   7.972  0.0907 -0.4149  0.0182
  188SAPI  H11X21693   0.704   4.085   8.031 -1.6386  0.0169 -2.6371
  188SAPI  H11Y21694   0.834   4.138   7.917  2.9022 -0.8959  1.2613
  188SAPI  C31221695   0.900   3.983   8.060 -0.3382  0.4120 -0.4655
  188SAPI  H12X21696   0.993   3.962   8.003  0.6730  0.7049  1.0463
  188SAPI  H12Y21697   0.862   3.887   8.101  1.8019  0.1360  0.9953
  188SAPI  C31321698   0.931   4.073   8.181 -0.0524 -0.7209  0.5315
  188SAPI  H13X21699   0.972   4.010   8.264 -1.3954 -2.2541  0.0874
  188SAPI  H13Y21700   0.829   4.109   8.206  0.1426  1.6823 -1.7669
  188SAPI  C31421701   1.021   4.192   8.159  0.6118 -0.5491  0.0154
  188SAPI  H14X21702   0.997   4.259   8.073  1.1819 -1.4393 -0.8545
  188SAPI  H14Y21703   1.124   4.153   8.145  0.0416 -1.9700 -0.4257
  188SAPI  C31521704   1.042   4.289   8.277 -0.0093 -0.5580  0.6730
  188SAPI  H15X21705   1.114   4.227   8.334  2.1016 -0.7457 -1.9383
  188SAPI  H15Y21706   0.942   4.314   8.318 -0.1147 -2.8673  1.9342
  188SAPI  C31621707   1.107   4.421   8.216 -0.0734  0.5513  0.0860
  188SAPI  H16X21708   1.039   4.464   8.139 -0.7810 -2.1276 -0.8817
  188SAPI  H16Y21709   1.198   4.385   8.164 -0.5228  0.6168 -0.7691
  188SAPI  C31721710   1.154   4.529   8.305 -0.0086 -0.2630 -0.0143
  188SAPI  H17X21711   1.195   4.608   8.239 -1.2194 -0.5752 -1.1798
  188SAPI  H17Y21712   1.232   4.490   8.374 -1.0748  1.5935  2.4087
  188SAPI  C31821713   1.060   4.601   8.400  0.1651  0.2813  0.0427
  188SAPI  H18X21714   1.117   4.671   8.466  2.0187  0.1114 -1.3015
  188SAPI  H18Y21715   1.009   4.523   8.460  0.9914 -0.9524 -0.8300
  188SAPI  H18Z21716   0.982   4.660   8.347  0.2093 -1.4604 -2.0633
  189POPC     N21717   2.653   3.594  11.488 -0.0626 -0.2738  0.1621
  189POPC   C1221718   2.751   3.704  11.446  0.4225  0.7093  0.7775
  189POPC  H12A21719   2.764   3.769  11.531  2.1676 -0.7099  1.6558
  189POPC  H12B21720   2.709   3.769  11.370  2.2445 -0.0110 -0.9443
  189POPC   C1321721   2.530   3.654  11.534  0.1791 -0.9238 -0.5286
  189POPC  H13A21722   2.540   3.730  11.610 -0.1037  0.1252 -1.5097
  189POPC  H13B21723   2.476   3.698  11.451  3.3063  0.8399 -1.8283
  189POPC  H13C21724   2.462   3.577  11.565  0.6901 -2.1220 -2.2200
  189POPC   C1421725   2.621   3.502  11.374  0.1404 -0.3462  0.5580
  189POPC  H14A21726   2.552   3.555  11.311 -1.2789  0.2677  2.5344
  189POPC  H14B21727   2.714   3.484  11.322  0.1801 -0.3711  0.6369
  189POPC  H14C21728   2.574   3.410  11.404 -0.8407 -0.3706 -0.9784
  189POPC   C1521729   2.709   3.515  11.603  0.0409 -0.2274 -0.0420
  189POPC  H15A21730   2.718   3.577  11.690  1.2357 -2.4718  1.5428
  189POPC  H15B21731   2.809   3.480  11.581  0.5586 -0.0944  1.9225
  189POPC  H15C21732   2.661   3.422  11.631  1.9362 -1.4582 -0.6753
  189POPC   C1121733   2.887   3.657  11.381  0.7790 -0.0539  0.4650
  189POPC  H11A21734   2.926   3.573  11.443  1.8456  0.4326  0.4789
  189POPC  H11B21735   2.963   3.738  11.388 -1.4409  2.0932  0.8258
  189POPC     P21736   2.824   3.718  11.130 -0.1460  0.3969  0.2574
  189POPC   O1321737   2.911   3.696  11.016  0.0351  0.5702 -0.1695
  189POPC   O1421738   2.808   3.859  11.185 -0.0700 -0.2228  0.1052
  189POPC   O1221739   2.869   3.614  11.247  0.4897 -0.4024  0.4560
  189POPC   O1121740   2.674   3.668  11.102 -0.1281  0.3403  0.0178
  189POPC    C121741   2.650   3.541  11.024  0.2147  0.1146 -0.2197
  189POPC    HA21742   2.566   3.498  11.083  0.0415  1.1840  0.3559
  189POPC    HB21743   2.730   3.466  11.036  0.3264 -0.2966 -3.0659
  189POPC    C221744   2.617   3.560  10.878 -0.8213  0.4499  0.3771
  189POPC    HS21745   2.716   3.588  10.836  0.7664  0.7998  3.9974
  189POPC   O2121746   2.518   3.657  10.853 -0.6963  0.0672  0.2318
  189POPC   C2121747   2.522   3.716  10.729  0.2430 -0.3083  0.0340
  189POPC   O2221748   2.616   3.704  10.650  0.0255 -0.6516  0.0330
  189POPC   C2221749   2.377   3.769  10.703 -0.6117 -0.1358  0.7027
  189POPC   H2R21750   2.338   3.801  10.802  1.8628  0.4226  1.5554
  189POPC   H2S21751   2.318   3.678  10.675  0.8267 -0.8842  0.0014
  189POPC    C321752   2.576   3.422  10.818  0.5802  0.5194  0.9349
  189POPC    HX21753   2.473   3.407  10.858  0.1295 -1.0396 -0.7004
  189POPC    HY21754   2.638   3.336  10.853 -0.4994 -0.6929 -0.0454
  189POPC   O3121755   2.568   3.424  10.674  0.4228  0.0854 -0.4216
  189POPC   C3121756   2.452   3.403  10.612  0.6420  0.5393  0.1288
  189POPC   O3221757   2.339   3.397  10.662 -0.4785  0.4561 -0.1016
  189POPC   C3221758   2.484   3.392  10.456 -0.0619  0.2145 -0.7058
  189POPC   H2X21759   2.543   3.298  10.445 -1.8388 -0.8737 -1.3834
  189POPC   H2Y21760   2.530   3.489  10.430 -0.6863  0.0822 -2.4025
  189POPC   C2321761   2.377   3.874  10.592  0.1100 -1.0533  0.7338
  189POPC   H3R21762   2.472   3.932  10.585 -0.7615  0.2057 -2.3142
  189POPC   H3S21763   2.298   3.950  10.615  1.2387  0.5939 -0.6019
  189POPC   C2421764   2.353   3.814  10.449  0.0073  0.9125  1.0240
  189POPC   H4R21765   2.248   3.792  10.419 -0.3534  2.5029  0.9899
  189POPC   H4S21766   2.406   3.718  10.434  0.5183  1.1285  1.4202
  189POPC   C2521767   2.399   3.918  10.344  0.9485 -0.2737 -0.3830
  189POPC   H5R21768   2.509   3.914  10.328  1.6644 -0.0028  3.4358
  189POPC   H5S21769   2.365   4.011  10.394 -1.2575 -0.7653 -0.8531
  189POPC   C2621770   2.332   3.893  10.203 -0.0432  0.1439  0.9213
  189POPC   H6R21771   2.222   3.900  10.215  0.1293  1.7306  1.8869
  189POPC   H6S21772   2.370   3.802  10.153  0.0220  1.8705 -2.4792
  189POPC   C2721773   2.368   4.011  10.113  0.0942  0.4346  0.3326
  189POPC   H7R21774   2.474   4.043  10.121 -0.1084  1.4761 -0.8695
  189POPC   H7S21775   2.297   4.088  10.149  0.4914  1.7296 -1.5053
  189POPC   C2821776   2.327   3.995   9.958  0.0101 -0.7283 -1.0518
  189POPC   H8R21777   2.326   4.103   9.931  0.1239 -0.4057  0.1514
  189POPC   H8S21778   2.226   3.948   9.956  0.0810 -0.8520 -1.8044
  189POPC   C2921779   2.418   3.911   9.867 -0.3213  0.1670  0.1267
  189POPC   H9121780   2.493   3.851   9.922  0.2309  2.0524  1.5350
  189POPC  C21021781   2.431   3.925   9.734 -0.3900  0.6109  0.0661
  189POPC  H10121782   2.507   3.862   9.685  3.3753  2.1405  3.3234
  189POPC  C21121783   2.347   4.007   9.648  0.1281  0.2783  0.6638
  189POPC  H11R21784   2.412   4.026   9.560 -1.3468  1.9321 -0.1240
  189POPC  H11S21785   2.323   4.109   9.683 -2.2041 -0.7270  2.1836
  189POPC  C21221786   2.222   3.933   9.593  0.3697  0.1117 -0.3153
  189POPC  H12R21787   2.143   3.937   9.670 -0.8093 -0.5964 -1.4654
  189POPC  H12S21788   2.246   3.826   9.574  0.2343 -0.3027  1.7068
  189POPC  C21321789   2.161   4.005   9.468  0.4472 -0.0964 -0.0350
  189POPC  H13R21790   2.153   4.114   9.484 -0.6660  0.0138 -1.2221
  189POPC  H13S21791   2.059   3.963   9.455  0.0519  1.4394 -2.5113
  189POPC  C21421792   2.232   3.976   9.336 -0.0241 -0.3722 -0.2643
  189POPC  H14R21793   2.281   3.877   9.333  3.4828  1.2058 -0.5677
  189POPC  H14S21794   2.316   4.050   9.341 -0.5289  0.2742 -1.0368
  189POPC  C21521795   2.149   3.995   9.210  0.1640 -0.0752 -0.2161
  189POPC  H15R21796   2.099   4.094   9.215 -1.1370 -0.7811  2.7790
  189POPC  H15S21797   2.064   3.925   9.198  0.6121 -0.9291  1.3550
  189POPC  C21621798   2.239   3.992   9.081 -0.3623 -0.2091 -0.4861
  189POPC  H16R21799   2.291   3.895   9.066 -0.9334 -0.4995 -0.5967
  189POPC  H16S21800   2.315   4.073   9.093  0.7220 -0.9228 -2.2610
  189POPC  C21721801   2.156   4.027   8.956  0.1892 -0.6187  0.3986
  189POPC  H17R21802   2.227   4.034   8.871 -1.3391 -2.5303 -1.1206
  189POPC  H17S21803   2.116   4.129   8.973 -1.9590 -1.2954 -0.2717
  189POPC  C21821804   2.047   3.933   8.907 -0.4311 -0.7997  0.6737
  189POPC  H18R21805   2.080   3.829   8.887  1.2762  0.2057 -2.4204
  189POPC  H18S21806   1.982   3.968   8.824  0.7994 -1.7623 -0.7390
  189POPC  H18T21807   1.978   3.925   8.994  0.5590 -1.5207  1.4308
  189POPC   C3321808   2.358   3.366  10.365  0.0465  0.4398 -0.6534
  189POPC   H3X21809   2.285   3.450  10.363  0.5138  0.8310 -1.4010
  189POPC   H3Y21810   2.305   3.277  10.406  0.4069  0.2210 -0.6624
  189POPC   C3421811   2.396   3.348  10.214 -0.1752  0.8071 -0.0593
  189POPC   H4X21812   2.381   3.240  10.195 -0.4412  0.7855  0.2627
  189POPC   H4Y21813   2.505   3.364  10.206  0.1310 -0.7777  0.6315
  189POPC   C3521814   2.321   3.435  10.111 -0.0098  0.8060  0.0599
  189POPC   H5X21815   2.347   3.542  10.124 -0.1252  0.9139 -0.5559
  189POPC   H5Y21816   2.213   3.423  10.133 -0.0695  0.5139 -0.3866
  189POPC   C3621817   2.369   3.398   9.972 -0.5788  0.3666  0.6650
  189POPC   H6X21818   2.355   3.290   9.951 -0.5071  0.0504  2.1716
  189POPC   H6Y21819   2.477   3.422   9.961 -0.2687 -1.3092 -0.2923
  189POPC   C3721820   2.313   3.494   9.872  0.1625  0.0241  0.8646
  189POPC   H7X21821   2.346   3.599   9.888 -1.3536  0.8273 -0.9136
  189POPC   H7Y21822   2.202   3.496   9.872  0.1136  0.2669 -1.4408
  189POPC   C3821823   2.363   3.459   9.731 -0.2439 -0.3013  0.1168
  189POPC   H8X21824   2.329   3.354   9.721  0.3789 -0.3667 -1.7572
  189POPC   H8Y21825   2.474   3.463   9.724 -0.2431  1.9163  0.8558
  189POPC   C3921826   2.305   3.549   9.623 -0.7689  0.2120 -0.1867
  189POPC   H9X21827   2.349   3.650   9.635  2.8120 -1.2629  0.2769
  189POPC   H9Y21828   2.195   3.551   9.635 -0.6428 -2.0137  2.2931
  189POPC  C31021829   2.342   3.491   9.485  0.0828 -0.0343  0.6500
  189POPC  H10X21830   2.319   3.383   9.473  2.0682 -0.3998 -0.3704
  189POPC  H10Y21831   2.452   3.509   9.478  0.7987 -2.7511  2.8026
  189POPC  C31121832   2.265   3.561   9.369  0.4425  1.0845  0.0927
  189POPC  H11X21833   2.251   3.670   9.382  2.1644  1.3340  0.1341
  189POPC  H11Y21834   2.175   3.497   9.358  0.2944  1.1600  0.8211
  189POPC  C31221835   2.338   3.552   9.229  0.1122  0.4624  0.0054
  189POPC  H12X21836   2.366   3.447   9.204 -0.3396  0.3802 -0.1681
  189POPC  H12Y21837   2.438   3.600   9.233  1.4194 -1.9471 -1.2873
  189POPC  C31321838   2.248   3.588   9.109  0.9194 -0.2105 -0.6442
  189POPC  H13X21839   2.317   3.595   9.022 -0.5641  1.5086 -1.7662
  189POPC  H13Y21840   2.212   3.692   9.128  3.5608  0.4128  1.6586
  189POPC  C31421841   2.118   3.512   9.084  0.1361  0.4270  0.0364
  189POPC  H14X21842   2.045   3.553   9.011 -2.6950 -0.8857  1.9519
  189POPC  H14Y21843   2.064   3.488   9.178  1.4546 -2.9958  0.0431
  189POPC  C31521844   2.146   3.365   9.030 -0.1165  0.9832  0.3441
  189POPC  H15X21845   2.052   3.308   9.048  0.6712 -0.1933  0.8556
  189POPC  H15Y21846   2.225   3.319   9.094 -0.0430 -0.0102 -0.4347
  189POPC  C31621847   2.181   3.362   8.881  0.4845  0.2384 -0.4549
  189POPC  H16X21848   2.198   3.256   8.852  0.7069 -0.4802  2.0103
  189POPC  H16Y21849   2.275   3.419   8.867 -0.4762  2.5631  1.7088
  189POPC  H16Z21850   2.105   3.414   8.820  0.0766  0.0249 -0.1322
  190POPC     N21851   3.645   6.292  11.500  0.1952  0.4132 -0.2124
  190POPC   C1221852   3.785   6.261  11.446 -0.3131 -0.2301  0.1622
  190POPC  H12A21853   3.790   6.156  11.424  1.2974 -0.2402  0.5018
  190POPC  H12B21854   3.850   6.268  11.532  1.3681  0.6205 -1.1198
  190POPC   C1321855   3.543   6.264  11.391 -0.0882  0.4904 -0.2361
  190POPC  H13A21856   3.557   6.333  11.309  2.2926  1.2923  0.7733
  190POPC  H13B21857   3.558   6.169  11.341  0.0766  1.4894 -2.1889
  190POPC  H13C21858   3.444   6.263  11.433 -0.0726  0.7979 -0.1883
  190POPC   C1421859   3.618   6.207  11.616  0.1343  0.5494  0.2759
  190POPC  H14A21860   3.628   6.101  11.602  0.7588  0.5407  0.7338
  190POPC  H14B21861   3.682   6.241  11.697  0.8303 -0.3813  0.1336
  190POPC  H14C21862   3.518   6.212  11.658 -0.0372 -0.8137  0.0475
  190POPC   C1521863   3.635   6.437  11.544  0.4092  0.7523 -0.1532
  190POPC  H15A21864   3.549   6.467  11.602 -0.0376 -1.3562  0.3619
  190POPC  H15B21865   3.636   6.494  11.452  1.5771 -0.2165 -0.7772
  190POPC  H15C21866   3.720   6.463  11.606 -0.2487 -0.6986  1.4191
  190POPC   C1121867   3.850   6.348  11.335 -0.1645 -0.3913 -0.5304
  190POPC  H11A21868   3.950   6.307  11.306 -0.0365 -1.7447  1.6008
  190POPC  H11B21869   3.873   6.446  11.382  1.8080 -0.4778 -1.2237
  190POPC     P21870   3.765   6.252  11.104  0.0757  0.1221  0.3921
  190POPC   O1321871   3.663   6.292  10.999  0.0032  0.1850 -0.1260
  190POPC   O1421872   3.757   6.113  11.154  0.6171  0.0035 -0.0230
  190POPC   O1221873   3.757   6.353  11.225 -0.5785 -0.3114  0.2491
  190POPC   O1121874   3.915   6.273  11.041 -0.2792 -0.0875  0.3575
  190POPC    C121875   3.963   6.401  11.001 -0.0238  0.3470 -1.1242
  190POPC    HA21876   4.074   6.408  11.009 -0.1650  1.6965  0.2626
  190POPC    HB21877   3.924   6.483  11.066 -0.9317 -1.7933  1.2053
  190POPC    C221878   3.937   6.422  10.855 -0.4434  1.0929 -0.4859
  190POPC    HS21879   3.828   6.431  10.834 -0.3077  1.0805 -1.2462
  190POPC   O2121880   3.991   6.309  10.787 -0.8158  0.0874  0.2602
  190POPC   C2121881   3.911   6.276  10.690 -0.4615  0.6357  0.7109
  190POPC   O2221882   3.805   6.334  10.652 -0.2086  0.6582 -0.2434
  190POPC   C2221883   3.966   6.152  10.629 -0.0531 -0.2283  0.8880
  190POPC   H2R21884   3.881   6.082  10.618  1.0075 -1.3345 -0.7342
  190POPC   H2S21885   4.035   6.105  10.703 -1.9061 -2.1823  1.4691
  190POPC    C321886   4.007   6.550  10.799  0.2350 -0.4025 -0.3789
  190POPC    HX21887   4.116   6.543  10.820  0.1500  0.0395  0.2298
  190POPC    HY21888   3.989   6.643  10.857 -0.8658 -1.3265  0.8072
  190POPC   O3121889   4.003   6.556  10.650  0.0494 -0.2528  0.2099
  190POPC   C3121890   3.909   6.643  10.602  0.5191  0.2186 -0.8203
  190POPC   O3221891   3.833   6.713  10.670 -0.2738  0.6173  0.0596
  190POPC   C3221892   3.920   6.655  10.452 -0.6528 -0.5605  0.3774
  190POPC   H2X21893   4.011   6.603  10.412 -0.5812  0.3624 -0.7189
  190POPC   H2Y21894   3.939   6.762  10.433 -1.5594 -0.7984 -2.3870
  190POPC   C2321895   4.036   6.170  10.490 -0.9760 -0.1852  0.2446
  190POPC   H3R21896   4.131   6.228  10.497  0.0126 -1.8461  1.4096
  190POPC   H3S21897   3.971   6.232  10.425 -1.5052  1.3428  2.1121
  190POPC   C2421898   4.067   6.022  10.423  0.3789 -0.1616  0.4198
  190POPC   H4R21899   3.972   5.965  10.424  0.4917 -0.3645  1.8837
  190POPC   H4S21900   4.143   5.975  10.489  1.6020  1.9464  0.6165
  190POPC   C2521901   4.114   6.017  10.277 -0.0741 -0.3663 -0.3559
  190POPC   H5R21902   4.220   6.050  10.287 -0.4881  0.4960  1.5680
  190POPC   H5S21903   4.055   6.092  10.220  0.3340 -1.1323 -1.8462
  190POPC   C2621904   4.110   5.875  10.220  0.3975  0.0360  0.2714
  190POPC   H6R21905   4.008   5.832  10.209 -0.4336  1.2670  2.5837
  190POPC   H6S21906   4.168   5.810  10.288  1.7829  0.5242 -0.4120
  190POPC   C2721907   4.184   5.890  10.088  0.2703  0.7681  0.3615
  190POPC   H7R21908   4.291   5.915  10.105  1.1262 -2.3962  0.2675
  190POPC   H7S21909   4.143   5.977  10.033 -2.3254 -1.3716 -1.3327
  190POPC   C2821910   4.175   5.762   9.995 -0.0029 -0.0260 -0.5788
  190POPC   H8R21911   4.069   5.749   9.962  0.5338  1.2034 -3.0919
  190POPC   H8S21912   4.196   5.673  10.058  3.8772  0.3503 -1.1282
  190POPC   C2921913   4.278   5.771   9.884 -0.3629 -0.2936  0.7941
  190POPC   H9121914   4.381   5.788   9.918  0.8480  1.1507 -3.0670
  190POPC  C21021915   4.264   5.729   9.758  0.3341 -0.0378 -0.1291
  190POPC  H10121916   4.352   5.749   9.694  1.4307 -1.7532  0.7573
  190POPC  C21121917   4.138   5.670   9.683  0.4763 -0.1689  0.5707
  190POPC  H11R21918   4.045   5.671   9.744 -0.6176  1.2514 -1.0322
  190POPC  H11S21919   4.166   5.566   9.656 -0.5726 -1.0092  2.5030
  190POPC  C21221920   4.105   5.747   9.556  0.3519 -0.1290  0.0978
  190POPC  H12R21921   4.200   5.748   9.499  0.3141 -1.6293 -0.0254
  190POPC  H12S21922   4.067   5.849   9.579  0.0076  0.2505 -1.9622
  190POPC  C21321923   3.998   5.677   9.469 -0.4680  0.2665 -0.0508
  190POPC  H13R21924   3.899   5.694   9.515 -0.2691 -1.7122  1.2165
  190POPC  H13S21925   4.023   5.569   9.476  0.5858  0.4983 -0.0566
  190POPC  C21421926   3.995   5.720   9.329 -0.1071 -0.8723 -0.0010
  190POPC  H14R21927   4.103   5.713   9.301  0.5558 -0.6298  2.3143
  190POPC  H14S21928   3.956   5.822   9.311  0.2844 -0.3899  1.7582
  190POPC  C21521929   3.923   5.617   9.244 -0.0548 -0.1464 -0.9140
  190POPC  H15R21930   3.889   5.670   9.153  1.0787 -2.2928 -2.7063
  190POPC  H15S21931   3.839   5.574   9.302  1.5316 -1.4263  0.5418
  190POPC  C21621932   4.014   5.498   9.196  0.0388 -0.0664  0.0536
  190POPC  H16R21933   4.056   5.438   9.280 -0.8728  0.3423  0.8206
  190POPC  H16S21934   4.094   5.550   9.139 -1.9295  3.0202 -0.0859
  190POPC  C21721935   3.947   5.395   9.095  0.1563 -0.7553  0.4261
  190POPC  H17R21936   3.924   5.452   9.003  0.9308  2.0491  1.8743
  190POPC  H17S21937   3.852   5.359   9.142 -0.0541 -1.1382 -0.2697
  190POPC  C21821938   4.047   5.282   9.074 -0.7294 -0.6658  0.7015
  190POPC  H18R21939   4.136   5.319   9.020 -0.1913 -1.3090  1.1326
  190POPC  H18S21940   3.996   5.210   9.006  2.2749 -0.0986 -2.3505
  190POPC  H18T21941   4.069   5.210   9.157 -1.5711 -1.1588  0.5170
  190POPC   C3321942   3.791   6.609  10.379  0.3737  0.6938  0.0768
  190POPC   H3X21943   3.704   6.675  10.396  0.4780  0.9865 -0.5054
  190POPC   H3Y21944   3.760   6.506  10.406  1.6206 -0.4938 -2.6244
  190POPC   C3421945   3.801   6.594  10.220 -0.1401 -0.1424 -0.0232
  190POPC   H4X21946   3.858   6.681  10.182 -1.7611  0.4641 -1.2283
  190POPC   H4Y21947   3.702   6.603  10.169  0.5833  0.4532 -1.3729
  190POPC   C3521948   3.857   6.459  10.179 -0.8084  0.8218 -0.2061
  190POPC   H5X21949   3.776   6.383  10.186 -0.3101  0.3176  0.1534
  190POPC   H5Y21950   3.924   6.426  10.260 -1.9006 -2.6544 -0.5366
  190POPC   C3621951   3.929   6.470  10.048 -0.3251  0.5676  0.2242
  190POPC   H6X21952   4.014   6.541  10.053 -0.4286  0.6597  0.8125
  190POPC   H6Y21953   3.853   6.507   9.977  0.5046  1.3878 -0.2455
  190POPC   C3721954   3.976   6.324  10.016 -0.0446 -0.3869 -0.5472
  190POPC   H7X21955   3.887   6.259  10.006 -1.1540  0.6259  1.8440
  190POPC   H7Y21956   4.037   6.279  10.097  0.0801  0.2647 -0.2670
  190POPC   C3821957   4.058   6.324   9.887 -0.7066  0.1448 -0.3495
  190POPC   H8X21958   4.071   6.216   9.869 -1.8481  0.2456 -2.0139
  190POPC   H8Y21959   4.156   6.376   9.894 -0.2660 -0.6133 -0.7713
  190POPC   C3921960   3.987   6.377   9.768  1.1483 -1.0138  0.1367
  190POPC   H9X21961   3.993   6.488   9.778  2.9342 -0.9996 -0.7121
  190POPC   H9Y21962   3.877   6.360   9.764  0.1126  4.0007  0.0213
  190POPC  C31021963   4.036   6.333   9.636  0.0611  0.2624  0.8560
  190POPC  H10X21964   4.047   6.224   9.620 -0.7450  0.4369 -1.0337
  190POPC  H10Y21965   4.136   6.373   9.607  0.3941 -1.2833 -0.2156
  190POPC  C31121966   3.936   6.393   9.532  0.1067  0.2122  0.1736
  190POPC  H11X21967   3.956   6.501   9.519  1.6619 -0.2728 -1.9042
  190POPC  H11Y21968   3.828   6.377   9.552  0.5052 -0.9353  1.5783
  190POPC  C31221969   3.945   6.325   9.398 -0.1473  0.4227 -0.0296
  190POPC  H12X21970   3.953   6.215   9.412 -0.6501  0.4997  1.0064
  190POPC  H12Y21971   4.037   6.354   9.344 -1.2229 -0.7848 -2.7150
  190POPC  C31321972   3.835   6.363   9.294 -0.2427 -0.0765 -0.1588
  190POPC  H13X21973   3.850   6.471   9.269 -0.2997 -0.0726 -0.1777
  190POPC  H13Y21974   3.735   6.350   9.342  0.1144 -0.7498  0.4229
  190POPC  C31421975   3.846   6.281   9.164 -0.3930 -0.3940 -0.1135
  190POPC  H14X21976   3.788   6.186   9.168 -0.2497 -0.5521 -1.5088
  190POPC  H14Y21977   3.951   6.249   9.145  0.0177  0.4316  0.6754
  190POPC  C31521978   3.802   6.361   9.046 -0.2764 -0.1199  0.6468
  190POPC  H15X21979   3.871   6.447   9.041  0.5636 -0.6206  2.6282
  190POPC  H15Y21980   3.702   6.408   9.059 -0.5002 -0.3254 -0.2652
  190POPC  C31621981   3.804   6.285   8.914 -0.1315  0.0302 -0.3019
  190POPC  H16X21982   3.761   6.350   8.835  0.1351  2.3166  1.3094
  190POPC  H16Y21983   3.738   6.198   8.929  0.6416 -0.8597 -1.8161
  190POPC  H16Z21984   3.907   6.253   8.886  0.0751  0.7752 -0.4213
  191POPC     N21985   3.576   1.268   6.015 -0.3678  0.1378 -0.8553
  191POPC   C1221986   3.655   1.336   6.130  0.5906 -0.1014  0.1661
  191POPC  H12A21987   3.734   1.270   6.161 -0.2196 -1.5037 -0.6506
  191POPC  H12B21988   3.590   1.353   6.215 -1.1394 -0.3245 -1.0643
  191POPC   C1321989   3.460   1.356   5.977 -0.2197  0.2759  0.0750
  191POPC  H13A21990   3.386   1.370   6.054 -1.0346  0.3076 -0.6938
  191POPC  H13B21991   3.487   1.457   5.952 -1.2439  0.8536  1.2198
  191POPC  H13C21992   3.413   1.318   5.888 -0.8341  0.3721  0.3578
  191POPC   C1421993   3.663   1.229   5.900  0.6056 -0.6217  0.4570
  191POPC  H14A21994   3.743   1.165   5.934 -0.5261 -1.5057  1.5784
  191POPC  H14B21995   3.609   1.180   5.820  3.3799  0.2662 -2.1470
  191POPC  H14C21996   3.705   1.320   5.860 -0.1121 -0.6107 -0.3103
  191POPC   C1521997   3.510   1.144   6.060  0.2647 -0.3299 -0.3570
  191POPC  H15A21998   3.575   1.074   6.110 -1.3885 -2.6271 -1.2141
  191POPC  H15B21999   3.461   1.102   5.973  0.0522 -0.8424  0.0096
  191POPC  H15C22000   3.437   1.170   6.136  1.0054  3.9492 -0.8408
  191POPC   C1122001   3.723   1.475   6.099  0.4677 -0.3942  0.6199
  191POPC  H11A22002   3.794   1.460   6.014 -0.3121  0.9774 -0.3030
  191POPC  H11B22003   3.781   1.507   6.188 -0.7769 -0.8752  1.6437
  191POPC     P22004   3.590   1.701   6.149 -0.4412 -0.2456  0.0110
  191POPC   O1322005   3.446   1.729   6.113  0.2835 -0.4589 -0.3852
  191POPC   O1422006   3.694   1.808   6.120  0.1168 -0.4229  0.2683
  191POPC   O1222007   3.631   1.572   6.055  0.4666 -0.1381 -0.1313
  191POPC   O1122008   3.609   1.647   6.296  0.3132 -0.4821  0.4833
  191POPC    C122009   3.516   1.563   6.359 -0.2941 -0.7331  0.4642
  191POPC    HA22010   3.566   1.465   6.375  0.0534 -1.0035 -1.9910
  191POPC    HB22011   3.413   1.551   6.321  0.0894 -2.3446 -0.1456
  191POPC    C222012   3.488   1.622   6.497  0.6231  0.0436  0.0783
  191POPC    HS22013   3.476   1.731   6.481  0.4081  0.2623  1.5594
  191POPC   O2122014   3.590   1.591   6.584 -0.3656  0.6935  0.0211
  191POPC   C2122015   3.614   1.675   6.685  0.4134  0.2040  0.2024
  191POPC   O2222016   3.561   1.783   6.703  0.3999 -0.0190  0.0633
  191POPC   C2222017   3.726   1.609   6.771 -0.0236 -0.2449 -0.0060
  191POPC   H2R22018   3.785   1.689   6.821  0.2390  0.0320 -0.7401
  191POPC   H2S22019   3.794   1.556   6.700 -0.9884 -0.4185 -0.8307
  191POPC    C322020   3.357   1.565   6.553 -0.3195  0.0500 -0.3074
  191POPC    HX22021   3.373   1.457   6.577 -0.4617 -0.0571 -0.6849
  191POPC    HY22022   3.279   1.572   6.475 -0.1914  0.7851 -0.3715
  191POPC   O3122023   3.319   1.637   6.669  0.0200  0.7636 -0.8481
  191POPC   C3122024   3.256   1.752   6.656  0.3869  0.5195  0.3423
  191POPC   O3222025   3.242   1.814   6.553  0.2729  0.1305 -0.0979
  191POPC   C3222026   3.239   1.805   6.802  0.0919 -0.4964  0.5944
  191POPC   H2X22027   3.335   1.791   6.857  0.1500  2.6889  1.5207
  191POPC   H2Y22028   3.180   1.730   6.858  0.3612 -0.6817  0.6328
  191POPC   C2322029   3.666   1.519   6.875  0.0866 -0.1036  0.1224
  191POPC   H3R22030   3.737   1.472   6.947 -0.1065  1.0069  1.0566
  191POPC   H3S22031   3.635   1.429   6.817  2.8919 -1.6923  0.8929
  191POPC   C2422032   3.561   1.591   6.972  0.1471 -0.7875  0.0227
  191POPC   H4R22033   3.532   1.517   7.050 -0.6659 -2.5569 -1.8694
  191POPC   H4S22034   3.475   1.631   6.913 -1.2957 -0.7890  2.0270
  191POPC   C2522035   3.625   1.715   7.040 -0.1429 -0.2660 -0.3789
  191POPC   H5R22036   3.664   1.786   6.964  1.1975 -0.8853 -0.2865
  191POPC   H5S22037   3.712   1.673   7.095  1.1748  0.0034 -2.1696
  191POPC   C2622038   3.528   1.798   7.134  0.0217  0.4519 -0.5993
  191POPC   H6R22039   3.455   1.847   7.066 -0.3323 -0.5905 -0.9961
  191POPC   H6S22040   3.592   1.880   7.174  2.2586 -0.5970 -1.8253
  191POPC   C2722041   3.452   1.725   7.240  0.4855  0.5203  0.3398
  191POPC   H7R22042   3.378   1.669   7.179  1.0698 -1.0581  1.0356
  191POPC   H7S22043   3.389   1.793   7.301  0.8438  0.1574  1.1267
  191POPC   C2822044   3.525   1.616   7.324 -0.3522  0.2310 -0.6370
  191POPC   H8R22045   3.597   1.558   7.262 -0.1891 -1.4924  1.0726
  191POPC   H8S22046   3.443   1.554   7.365 -0.5694  0.5230 -0.6276
  191POPC   C2922047   3.599   1.674   7.444  0.8190  0.0895  0.7591
  191POPC   H9122048   3.695   1.726   7.434  0.4159  1.5117  3.4558
  191POPC  C21022049   3.538   1.705   7.557 -0.4076 -0.8139 -0.0808
  191POPC  H10122050   3.604   1.753   7.631 -0.6933  0.0661 -0.3827
  191POPC  C21122051   3.397   1.680   7.595  0.0272  0.4143 -0.2267
  191POPC  H11R22052   3.330   1.636   7.518  0.0620  0.6762 -0.4086
  191POPC  H11S22053   3.355   1.781   7.613  1.2131  0.7543  0.7218
  191POPC  C21222054   3.375   1.595   7.723  0.2738 -0.5714 -0.0461
  191POPC  H12R22055   3.268   1.592   7.754  0.7502 -2.3309  1.6024
  191POPC  H12S22056   3.436   1.637   7.806  0.8582  2.3606 -1.7960
  191POPC  C21322057   3.415   1.450   7.688 -0.9962 -0.0087 -0.1502
  191POPC  H13R22058   3.513   1.446   7.636 -1.3902 -3.0315 -0.8641
  191POPC  H13S22059   3.338   1.423   7.613  0.1011 -0.0946 -1.2807
  191POPC  C21422060   3.440   1.357   7.809 -1.0210 -0.2428  0.0282
  191POPC  H14R22061   3.471   1.260   7.763  0.8361 -0.5664  1.8283
  191POPC  H14S22062   3.349   1.340   7.871  0.2513  0.1454  2.0986
  191POPC  C21522063   3.548   1.407   7.903 -0.1708 -0.1713  0.1624
  191POPC  H15R22064   3.530   1.515   7.921 -1.3454  0.1772 -2.5382
  191POPC  H15S22065   3.644   1.401   7.846 -1.1423 -1.7914 -1.4131
  191POPC  C21622066   3.579   1.335   8.038 -0.0199  0.0118 -0.4640
  191POPC  H16R22067   3.647   1.247   8.032  1.0137  0.7004  0.9219
  191POPC  H16S22068   3.485   1.305   8.089  0.4055  3.0785  2.4190
  191POPC  C21722069   3.631   1.422   8.141  0.1075  0.0605 -0.4917
  191POPC  H17R22070   3.557   1.503   8.158  0.5938 -0.0888  2.9740
  191POPC  H17S22071   3.725   1.466   8.101 -0.2617 -0.9947 -2.6409
  191POPC  C21822072   3.647   1.357   8.279 -0.2820  0.4775 -0.7691
  191POPC  H18R22073   3.691   1.255   8.275 -0.3978  0.3870  0.0602
  191POPC  H18S22074   3.546   1.341   8.322  0.0490  0.3447 -0.0345
  191POPC  H18T22075   3.711   1.420   8.344  0.1795 -1.6178  0.9237
  191POPC   C3322076   3.177   1.944   6.815 -0.2774  0.5813 -0.6672
  191POPC   H3X22077   3.076   1.947   6.769 -0.8382 -0.8427  0.4124
  191POPC   H3Y22078   3.230   2.024   6.758  0.8347  0.8162  0.6524
  191POPC   C3422079   3.157   1.976   6.964  0.2694  0.2236  0.7098
  191POPC   H4X22080   3.251   1.953   7.020  1.2347  0.7421 -0.6307
  191POPC   H4Y22081   3.074   1.907   6.989 -0.7368  1.0845 -0.1722
  191POPC   C3522082   3.120   2.122   6.988 -0.4375 -0.0228  0.7207
  191POPC   H5X22083   3.050   2.158   6.910 -1.1819 -0.6234  1.0991
  191POPC   H5Y22084   3.206   2.193   6.989 -1.5387  1.3635  0.2554
  191POPC   C3622085   3.056   2.142   7.129  0.2556 -0.3752  0.7329
  191POPC   H6X22086   2.966   2.076   7.132 -2.4555  3.0691  3.1182
  191POPC   H6Y22087   3.009   2.242   7.139  0.6540 -0.0506 -0.4715
  191POPC   C3722088   3.145   2.125   7.252  0.4407  0.0800 -0.3052
  191POPC   H7X22089   3.239   2.183   7.245  0.5455  0.2089  1.6030
  191POPC   H7Y22090   3.175   2.019   7.265  0.8458  0.2390  0.0656
  191POPC   C3822091   3.081   2.161   7.384 -0.1889 -1.0930  0.5247
  191POPC   H8X22092   3.129   2.098   7.462  0.9127 -0.7020  0.1858
  191POPC   H8Y22093   2.974   2.133   7.390 -0.1106 -1.4235  0.4330
  191POPC   C3922094   3.103   2.307   7.430 -0.2741  0.0382 -0.8359
  191POPC   H9X22095   3.062   2.368   7.347  1.7022  0.4473 -1.5703
  191POPC   H9Y22096   3.204   2.351   7.449 -0.5743 -0.1447  1.4015
  191POPC  C31022097   3.020   2.326   7.564 -0.3332 -0.5798 -0.7807
  191POPC  H10X22098   2.915   2.293   7.549 -0.5168 -0.0974 -0.5798
  191POPC  H10Y22099   3.001   2.435   7.567  0.3529 -0.4742 -0.0293
  191POPC  C31122100   3.073   2.267   7.699  0.4421 -0.7971  0.1644
  191POPC  H11X22101   3.184   2.266   7.704  0.4591  1.3543  1.9899
  191POPC  H11Y22102   3.038   2.163   7.714 -4.5403  0.6318  0.4446
  191POPC  C31222103   3.019   2.355   7.818 -0.2624  0.3632  0.3701
  191POPC  H12X22104   2.909   2.344   7.830 -0.0140 -1.4272  1.3179
  191POPC  H12Y22105   3.041   2.464   7.812  1.9351  0.0417  1.5974
  191POPC  C31322106   3.082   2.326   7.956 -0.1814 -0.3731  0.4776
  191POPC  H13X22107   3.191   2.307   7.952 -0.4011 -1.8468  0.9619
  191POPC  H13Y22108   3.026   2.235   7.986 -0.2539 -0.2647  0.6782
  191POPC  C31422109   3.062   2.432   8.066  0.1513  0.3828  0.2754
  191POPC  H14X22110   3.094   2.531   8.028  0.3176  0.8073  1.4746
  191POPC  H14Y22111   3.129   2.403   8.150 -0.6854 -1.8557  0.2373
  191POPC  C31522112   2.916   2.432   8.112 -0.0247 -1.0526 -0.1057
  191POPC  H15X22113   2.845   2.428   8.026 -0.2665 -0.4344  0.0567
  191POPC  H15Y22114   2.896   2.524   8.171  1.3664 -0.0336 -1.1475
  191POPC  C31622115   2.875   2.311   8.198  0.1095  0.3558 -0.2046
  191POPC  H16X22116   2.890   2.220   8.136 -1.7745  1.1020 -1.8588
  191POPC  H16Y22117   2.771   2.333   8.229  0.8204  1.4031  1.6164
  191POPC  H16Z22118   2.945   2.305   8.284 -0.9929 -0.3945  0.6541
  192POPC     N22119   0.897   4.607   5.991  0.8142  0.0025  0.2474
  192POPC   C1222120   0.872   4.753   6.019  0.0984 -0.2576  0.1990
  192POPC  H12A22121   0.821   4.799   5.935  0.9159  0.1977 -0.0669
  192POPC  H12B22122   0.969   4.799   6.031 -0.0905  0.1497  0.1989
  192POPC   C1322123   0.764   4.542   5.976 -0.4276 -0.2000  0.1527
  192POPC  H13A22124   0.703   4.560   6.063  1.0197  3.1470  0.6406
  192POPC  H13B22125   0.706   4.575   5.891  0.3051  0.5672 -0.0637
  192POPC  H13C22126   0.770   4.435   5.968  2.3139 -0.3705  2.6521
  192POPC   C1422127   0.971   4.584   5.862 -0.5824 -0.0480  0.2685
  192POPC  H14A22128   0.917   4.636   5.785  0.3593  2.2894  1.1013
  192POPC  H14B22129   1.075   4.612   5.870  0.0972 -1.2970 -2.6740
  192POPC  H14C22130   0.972   4.478   5.841  0.1236 -0.2435  1.1998
  192POPC   C1522131   0.970   4.539   6.099  0.7003  0.5955  0.2804
  192POPC  H15A22132   0.984   4.441   6.055  2.0975  1.0385 -0.3143
  192POPC  H15B22133   0.906   4.529   6.185 -0.4921 -0.1299 -0.6667
  192POPC  H15C22134   1.069   4.574   6.125  1.1381 -0.0857 -0.4041
  192POPC   C1122135   0.786   4.806   6.140 -0.0318  0.4395 -0.0750
  192POPC  H11A22136   0.677   4.791   6.124 -0.3422  2.4410 -0.0646
  192POPC  H11B22137   0.808   4.915   6.141  2.8326 -0.0675  0.5691
  192POPC     P22138   0.955   4.806   6.338  0.0633 -0.1079 -0.0979
  192POPC   O1322139   1.055   4.856   6.246  0.0836 -0.1346 -0.0008
  192POPC   O1422140   1.011   4.714   6.439  0.4675 -0.6344  0.0338
  192POPC   O1222141   0.831   4.741   6.262 -0.5969 -0.3047 -0.5234
  192POPC   O1122142   0.883   4.930   6.415 -0.4544 -0.7544  0.2416
  192POPC    C122143   0.752   4.919   6.478 -0.2865 -0.2663 -0.1706
  192POPC    HA22144   0.729   4.814   6.505  1.7147 -0.6615  0.1638
  192POPC    HB22145   0.674   4.962   6.412 -0.4533  1.1704  0.9092
  192POPC    C222146   0.734   5.013   6.611  0.6297  0.2478  0.2954
  192POPC    HS22147   0.722   5.119   6.577 -0.0021  0.2372  0.4711
  192POPC   O2122148   0.854   4.987   6.686 -0.1115 -0.1214 -0.3424
  192POPC   C2122149   0.942   5.090   6.695  0.5424  0.8374  0.3462
  192POPC   O2222150   0.929   5.197   6.643  0.4009  0.4139  0.4578
  192POPC   C2222151   1.062   5.043   6.775 -0.5217 -0.5340 -0.3269
  192POPC   H2R22152   1.116   5.138   6.791 -1.4216 -0.0084 -0.3261
  192POPC   H2S22153   1.126   4.967   6.725 -1.2394  0.0803 -2.2826
  192POPC    C322154   0.604   4.974   6.696 -0.2511 -0.4746  1.0958
  192POPC    HX22155   0.616   4.867   6.723  0.3843 -1.2906 -2.0969
  192POPC    HY22156   0.518   4.986   6.627  0.0550  0.4060  0.8474
  192POPC   O3122157   0.597   5.065   6.803  0.8198  0.3168 -0.1907
  192POPC   C3122158   0.498   5.032   6.886 -0.3559 -0.2781 -0.4129
  192POPC   O3222159   0.422   4.938   6.871 -0.1340  1.2641 -0.0113
  192POPC   C3222160   0.482   5.133   7.003 -0.4262 -0.7775 -0.1373
  192POPC   H2X22161   0.457   5.230   6.954  1.2243  0.5244  1.4298
  192POPC   H2Y22162   0.581   5.142   7.052 -1.1789  1.7768  1.1228
  192POPC   C2322163   1.019   4.981   6.913  0.3994  0.5822  0.4241
  192POPC   H3R22164   1.099   4.933   6.972 -0.5345 -1.6878 -0.0635
  192POPC   H3S22165   0.943   4.906   6.885 -0.2092  1.3828 -0.1371
  192POPC   C2422166   0.953   5.086   7.007  0.4869 -0.1701  0.3454
  192POPC   H4R22167   0.859   5.114   6.954  1.3423  0.0408 -1.1403
  192POPC   H4S22168   1.021   5.172   7.028  0.3672  0.5222 -1.8313
  192POPC   C2522169   0.917   5.022   7.145  0.5659  0.4921  0.2337
  192POPC   H5R22170   1.012   4.981   7.187  0.5899 -0.8629 -1.0567
  192POPC   H5S22171   0.852   4.936   7.118 -0.4754  0.9894  1.1247
  192POPC   C2622172   0.852   5.111   7.247  0.1547  0.6223 -0.4625
  192POPC   H6R22173   0.774   5.172   7.197  1.2588  2.5851  0.1102
  192POPC   H6S22174   0.934   5.175   7.286  1.6622 -0.2903 -2.0225
  192POPC   C2722175   0.789   5.025   7.359 -0.4560 -0.4526  0.2475
  192POPC   H7R22176   0.867   4.959   7.403  0.2508  1.2466  1.6195
  192POPC   H7S22177   0.709   4.959   7.318 -0.9574 -0.3896  1.0920
  192POPC   C2822178   0.711   5.104   7.473  0.5202 -0.4462 -0.3255
  192POPC   H8R22179   0.629   5.163   7.426 -0.9818 -0.1780  2.3907
  192POPC   H8S22180   0.787   5.169   7.522 -0.0238  0.5702 -0.7957
  192POPC   C2922181   0.638   5.017   7.573 -0.3423  0.2442 -0.5808
  192POPC   H9122182   0.573   4.949   7.517 -0.9810  2.0763 -2.1904
  192POPC  C21022183   0.633   5.038   7.709 -0.2096 -0.7336  0.0450
  192POPC  H10122184   0.580   4.974   7.781 -1.9721 -0.7892 -1.2445
  192POPC  C21122185   0.708   5.149   7.790 -0.5516  0.1101  0.3574
  192POPC  H11R22186   0.632   5.228   7.806 -0.0108  0.8545 -0.6543
  192POPC  H11S22187   0.793   5.196   7.736 -0.5205 -1.8300 -1.4366
  192POPC  C21222188   0.758   5.116   7.930  0.1898  0.6039  0.3470
  192POPC  H12R22189   0.809   5.205   7.974 -0.5646  1.5887 -0.7213
  192POPC  H12S22190   0.837   5.039   7.919 -0.5831 -0.0273 -1.0936
  192POPC  C21322191   0.662   5.060   8.038 -0.4859  0.2490  0.2863
  192POPC  H13R22192   0.726   5.037   8.125  1.2199  1.9604 -0.4359
  192POPC  H13S22193   0.618   4.966   7.997  2.5732 -0.5566 -1.3954
  192POPC  C21422194   0.550   5.147   8.080 -1.0926 -0.0236  0.1593
  192POPC  H14R22195   0.500   5.191   7.991 -1.7467  0.3642  0.7137
  192POPC  H14S22196   0.603   5.223   8.141  0.9825 -0.7649 -0.5948
  192POPC  C21522197   0.445   5.082   8.169  0.8564  0.3884 -0.1849
  192POPC  H15R22198   0.494   5.034   8.256 -0.4486 -1.9615 -0.6442
  192POPC  H15S22199   0.392   5.000   8.115 -2.0612  0.2485  2.6100
  192POPC  C21622200   0.343   5.176   8.214 -0.3891 -0.4771 -0.7839
  192POPC  H16R22201   0.268   5.209   8.139  0.5063  0.4837 -1.2641
  192POPC  H16S22202   0.396   5.263   8.258  1.5890 -1.9962 -0.0234
  192POPC  C21722203   0.276   5.113   8.335  0.0411 -0.0092  0.5222
  192POPC  H17R22204   0.356   5.106   8.411  0.7832  2.0846 -0.0121
  192POPC  H17S22205   0.246   5.008   8.315  1.9487 -0.1802 -1.8892
  192POPC  C21822206   0.148   5.195   8.386  0.6087 -0.4671 -0.0675
  192POPC  H18R22207   0.112   5.144   8.478 -0.8695 -1.7348 -1.2959
  192POPC  H18S22208   0.072   5.175   8.308  0.6740  1.2464 -0.6068
  192POPC  H18T22209   0.174   5.303   8.386  0.5122 -0.4253  1.4650
  192POPC   C3322210   0.383   5.089   7.113  0.2519  0.5164  0.4957
  192POPC   H3X22211   0.418   5.000   7.170 -0.1053 -0.6162 -0.9769
  192POPC   H3Y22212   0.292   5.052   7.061  0.7813 -1.5776  0.9403
  192POPC   C3422213   0.335   5.194   7.215 -0.0621 -0.6851  0.1652
  192POPC   H4X22214   0.264   5.266   7.168 -0.4869  0.3033  2.2010
  192POPC   H4Y22215   0.424   5.254   7.245 -0.2491 -0.2704 -0.0988
  192POPC   C3522216   0.264   5.127   7.333  0.6342  0.4084 -0.2607
  192POPC   H5X22217   0.337   5.051   7.370 -3.1092 -3.3589  0.1313
  192POPC   H5Y22218   0.171   5.072   7.308 -0.0168  0.6626  1.4364
  192POPC   C3622219   0.245   5.221   7.450 -0.0440 -0.5467  0.1538
  192POPC   H6X22220   0.160   5.288   7.424 -1.4697 -1.6511  1.6786
  192POPC   H6Y22221   0.343   5.269   7.469 -0.0044 -1.1352  1.5761
  192POPC   C3722222   0.203   5.143   7.573 -0.2561 -0.1143  0.7223
  192POPC   H7X22223   0.281   5.066   7.591  0.3645 -0.3033 -2.2202
  192POPC   H7Y22224   0.105   5.091   7.558  0.3920 -1.2755  0.3526
  192POPC   C3822225   0.200   5.238   7.692 -0.2958 -0.3487  0.8233
  192POPC   H8X22226   0.112   5.306   7.690  0.0524  0.1020 -0.5371
  192POPC   H8Y22227   0.285   5.308   7.681 -0.3845 -0.6424 -3.2477
  192POPC   C3922228   0.195   5.172   7.832  0.0167  0.1514  0.0041
  192POPC   H9X22229   0.204   5.258   7.901  0.4879  2.2939 -2.5804
  192POPC   H9Y22230   0.275   5.100   7.863 -2.2751 -2.0154  1.2272
  192POPC  C31022231   0.064   5.101   7.852 -0.2521 -0.1639  0.2827
  192POPC  H10X22232   0.034   5.036   7.767 -2.0729  0.3003  0.5313
  192POPC  H10Y22233  -0.019   5.174   7.859  0.8746  1.0466  1.7044
  192POPC  C31122234   0.072   5.024   7.985  0.2267  0.3382 -0.2215
  192POPC  H11X22235   0.103   5.091   8.069  0.0040  0.0140  0.1252
  192POPC  H11Y22236   0.150   4.945   7.977 -1.3167 -1.0746 -2.6625
  192POPC  C31222237  -0.060   4.944   8.034  0.6777 -0.4738 -0.3991
  192POPC  H12X22238  -0.091   4.870   7.957  0.5414 -1.4709  0.5915
  192POPC  H12Y22239  -0.130   5.030   8.040  3.3019  1.7747  0.0407
  192POPC  C31322240  -0.034   4.870   8.163  0.4811  1.1077 -0.1109
  192POPC  H13X22241   0.056   4.917   8.209 -0.2305  1.0526  1.4270
  192POPC  H13Y22242  -0.017   4.761   8.154 -0.3076  1.1675 -3.5069
  192POPC  C31422243  -0.155   4.885   8.264  0.0155  0.5477 -0.1685
  192POPC  H14X22244  -0.246   4.853   8.209  0.4256 -2.5433  0.7505
  192POPC  H14Y22245  -0.164   4.990   8.300  1.3741  0.0395  1.8117
  192POPC  C31522246  -0.143   4.788   8.373  0.0883 -0.7772  0.2234
  192POPC  H15X22247  -0.038   4.796   8.408 -0.1892  1.3614  0.7212
  192POPC  H15Y22248  -0.174   4.688   8.335  0.8811 -0.3039 -1.7846
  192POPC  C31622249  -0.229   4.825   8.493  0.3763 -0.3021  0.1542
  192POPC  H16X22250  -0.195   4.916   8.547 -0.8209  0.8931 -1.0328
  192POPC  H16Y22251  -0.229   4.739   8.564 -0.9254  0.3253  0.9359
  192POPC  H16Z22252  -0.333   4.843   8.458  1.0944  0.0391 -1.9276
  193SOD    SOD22253   6.337   0.584   5.183 -0.1769 -0.2580  0.2288
  194SOD    SOD22254   0.972   2.129   0.198  0.4933  0.5104 -0.3581
  195SOD    SOD22255   1.827   0.717   4.590  0.2035 -0.3085 -0.3606
  196SOD    SOD22256   1.635   3.974   1.712 -0.0375  0.3111  0.0154
  197SOD    SOD22257   4.967   1.317   0.270  0.0651 -0.1422 -0.4738
  198SOD    SOD22258   1.783   4.410   5.300 -0.2146 -0.1567 -0.0724
  199SOD    SOD22259   5.948   5.262  11.749 -0.6281 -0.0920  0.7112
  200SOD    SOD22260   3.205   4.284   2.879 -0.2028 -0.0437  0.3446
  201SOD    SOD22261   2.816   3.291  16.185  0.7369 -0.4274 -0.4246
  202SOD    SOD22262   5.806   2.946   6.215  0.2282 -0.2667  0.1481
  203SOD    SOD22263   4.006   0.155   5.977 -0.5204 -0.2865 -0.1239
  204SOD    SOD22264   2.320   6.128   1.688 -0.0940 -0.6045 -0.5994
  205SOD    SOD22265   0.935   0.927  14.652  0.1897 -0.0445  0.4050
  206SOD    SOD22266   0.788   3.813  14.076  0.5428 -0.4587 -0.0716
  207SOD    SOD22267   1.517   5.750  11.484 -0.0371 -0.4568  0.8127
  208SOD    SOD22268   0.623   2.694  13.588 -0.3416  0.2676  0.3319
  209SOD    SOD22269   0.145   0.518  15.546  0.0719  0.4382  0.0746
  210SOD    SOD22270   1.097   5.258   0.188 -0.3010 -0.2537 -0.0637
  211SOD    SOD22271   5.802   5.751   1.931 -0.8004  0.1783 -0.1069
  212SOD    SOD22272   2.164   4.058   1.415 -0.1675 -0.5049  0.2025
  213SOD    SOD22273   6.303   6.713   6.286 -0.5591 -0.1349  0.0388
  214SOD    SOD22274   0.205   1.669   4.592 -0.0526 -0.1659 -0.3403
  215SOD    SOD22275   5.557   2.347  11.423  0.0395 -0.2121  0.0707
  216SOD    SOD22276   4.554   1.375   1.020  0.2673  0.5377 -0.1804
  217SOD    SOD22277   1.859   0.644  15.009 -0.2304  0.2070 -0.1645
  218SOD    SOD22278   1.676   1.594  16.763 -0.0020  0.1633  0.1340
  219SOD    SOD22279   1.181   1.747  11.073 -0.0841  0.1496  0.1373
  220SOD    SOD22280   6.125   2.111  14.966 -0.6643  0.4434  0.3296
  221SOD    SOD22281   1.946   4.382  16.167  0.1078 -0.4033 -0.5134
  222SOD    SOD22282   4.374   4.860   3.719  0.2591 -0.9138  0.0757
  223SOD    SOD22283   5.185   4.516   5.372  0.7250 -0.0646 -0.1343
  224SOD    SOD22284   0.004   1.238   2.341 -0.5017  0.0801 -0.2204
  225SOD    SOD22285   4.749   3.536  11.504 -0.0244  0.2819  0.1673
  226SOD    SOD22286   5.942   2.811  11.699 -0.5044 -0.1284  0.7925
  227SOD    SOD22287   4.261   4.731   6.025 -0.2929  0.1825 -0.4733
  228SOD    SOD22288   0.172   3.504  11.247 -0.0410 -0.0944 -0.2173
  229SOD    SOD22289   0.640   4.263   2.450  0.1006  0.1437  0.3084
  230SOD    SOD22290   1.119   4.310   2.131 -0.1333 -0.1313  0.0971
  231SOD    SOD22291   2.601   4.531  11.128 -0.1626 -0.1556 -0.1597
  232SOD    SOD22292   3.559   0.506   5.716  0.4988 -0.1130 -0.2431
  233SOD    SOD22293   2.690   4.595   6.109 -0.3868  0.2181  0.3488
  234SOD    SOD22294   0.663   3.820  11.139  0.2793 -0.0807 -0.0605
  235SOD    SOD22295   0.008   1.370   3.631 -0.1095  0.0545 -0.3161
  236SOD    SOD22296   5.881   3.600   4.019 -0.2539 -0.0152 -0.9611
  237SOD    SOD22297   3.436   6.037   5.407  0.1591  0.0205  0.3797
  238SOD    SOD22298   3.173   2.657   6.345 -0.4696  0.0229 -0.8250
  239SOD    SOD22299   4.457   3.531  14.013  0.4657  0.1214  0.2619
  240SOD    SOD22300   1.222   4.601  12.634  0.5129  0.1620 -0.1367
  241SOD    SOD22301   6.492   2.671   6.355 -0.0812 -0.4564  0.0003
  242SOD    SOD22302   5.779   6.178   1.129 -0.0298 -0.2021  0.0921
  243SOD    SOD22303   2.005   1.700   1.038 -0.3487 -0.4108 -0.1808
  244SOD    SOD22304   5.748   5.915  15.059  0.2694 -0.3943 -0.1251
  245SOD    SOD22305   5.131   0.542  15.116 -0.0819 -0.1574 -0.3178
  246SOD    SOD22306   0.663   6.409   6.212  0.2272 -0.2351 -0.0340
  247SOD    SOD22307   3.441   6.694  11.289  0.6677 -0.4975  0.1057
  248SOD    SOD22308   4.913   1.171   4.555 -0.3583 -0.1503 -0.0841
  249SOD    SOD22309   5.521   6.577  11.584 -0.1841 -0.2068 -0.4098
  250SOD    SOD22310   6.042   6.378  11.814 -0.0092  0.2451  0.0120
  251SOD    SOD22311   3.616   6.000  17.138  0.2819  0.3476 -0.2539
  252SOD    SOD22312   4.090   4.889  14.694  0.2437 -0.2364  0.1901
  253SOD    SOD22313   4.817   4.216  10.621  0.3914 -0.0749 -0.1589
  254SOD    SOD22314   5.139   0.530   3.711 -0.1370  0.0255 -0.3457
  255SOD    SOD22315   0.140   4.594  11.749  0.4357  0.0719 -0.0520
  256SOD    SOD22316   3.107   3.034  14.961 -0.1637  0.3485  0.2979
  257SOD    SOD22317   0.069   2.550  13.324 -0.3233  0.3225  0.3788
  258SOD    SOD22318   6.399   1.033  16.823  0.3705 -0.0015  0.9471
  259SOD    SOD22319   5.885   2.710   3.984 -0.1210  0.1618  0.5881
  260SOD    SOD22320   5.842   0.887   6.305 -0.0591 -0.0705  0.0289
  261SOD    SOD22321   4.997   5.308   6.746  0.4014 -0.1564  0.6662
  262SOD    SOD22322   3.947   0.566  14.627 -0.0314  0.1135  0.5087
  263SOD    SOD22323   4.258   2.175  12.040  0.2662 -0.1038  0.3595
  264SOD    SOD22324   3.818   2.623  16.354  0.2440  0.3777  0.0115
  265SOD    SOD22325   5.054   2.250  11.258 -0.1693 -0.1419  0.2482
  266SOD    SOD22326   1.715   5.194  15.648  1.0456  0.3033  0.0870
  267SOD    SOD22327   2.584   5.083  12.382  0.1221 -0.0008 -0.3787
  268SOD    SOD22328   2.770   0.541   6.828  0.3661 -0.2694 -0.0491
  269SOD    SOD22329   3.167   3.144   4.059  0.4191 -0.1821  0.3661
  270CLA    CLA22330   4.688   1.537   0.591  0.5882 -0.5164 -0.3068
  271CLA    CLA22331   2.130   0.473   0.124  0.1649 -0.0926 -0.1574
  272CLA    CLA22332   1.887   3.691   1.215  0.2200  0.1309 -0.4444
  273CLA    CLA22333   1.285   5.554  12.615  0.0926  0.2240  0.0404
  274CLA    CLA22334   2.128   1.128  14.671  0.3886 -0.1410 -0.2344
  275CLA    CLA22335   0.644   4.177  15.632  0.3656 -0.1642 -0.3038
  276CLA    CLA22336   2.136   2.581  16.725 -0.7704  0.0865 -0.0195
  277CLA    CLA22337   0.840   3.196  14.337  0.1911 -0.1990  0.1608
  278CLA    CLA22338   1.902   6.707  14.727 -0.2008  0.5445  0.1430
  279CLA    CLA22339   4.973   0.898   4.943 -0.1963  0.4481  0.5327
  280CLA    CLA22340   1.423   6.018  12.059  0.3284  0.0815 -0.4236
  281CLA    CLA22341   0.378   0.622   2.199  0.3578  0.2374  0.2720
  282CLA    CLA22342   2.410   4.445  14.598  0.1817  0.1142 -0.6165
  283CLA    CLA22343   1.096   4.784  12.468  0.1406 -0.2097 -0.0275
  284CLA    CLA22344   4.453   4.841  16.770 -0.5825  0.2771  0.4444
  285CLA    CLA22345   6.363   0.266  16.567 -0.0774  0.0951 -0.3286
  286CLA    CLA22346   0.532   0.532  13.726  0.2069 -0.1325 -0.2639
  287CLA    CLA22347   6.208   4.998  13.210 -0.1054 -0.1186  0.2006
  288CLA    CLA22348   3.700   1.174  14.899  0.0596 -0.0796  0.1180
  289CLA    CLA22349   4.079   5.274   1.088  0.2143  0.2721 -0.2292
  290CLA    CLA22350   5.495   0.899  14.642  0.6081 -0.1837  0.1506
  291CLA    CLA22351   5.821   5.516   3.408  0.1768 -0.0678  0.4591
  292CLA    CLA22352   4.001   1.769   3.353 -0.2137 -0.0401 -0.4890
  293CLA    CLA22353   0.392   5.990  14.544 -0.0803 -0.1140 -0.4418
  294CLA    CLA22354   0.786   5.229  16.649  0.1863 -0.1174 -0.3077
  295CLA    CLA22355   5.645   6.333   2.293  0.0087  0.0727  0.2234
  296CLA    CLA22356   3.725   2.294  16.011 -0.1630 -0.2874 -0.1716
  297CLA    CLA22357   4.699   5.688  15.911 -0.5493  0.0497  0.2620
  298CLA    CLA22358   1.787   2.437  15.049  0.0284  0.0843 -0.1362
  299CLA    CLA22359   4.544   0.592   4.107  0.1709  0.0215 -0.0907
  300CLA    CLA22360   4.101   6.411   5.407  0.3248  0.0699 -0.2056
  301CLA    CLA22361   1.590   1.031   1.332 -0.2096 -0.3252 -0.0430
  302CLA    CLA22362   5.648   2.273   3.531 -0.2883  0.1555 -0.1592
  303CLA    CLA22363   6.118   2.268  12.909 -0.1525  0.0667  0.1965
  304CLA    CLA22364   4.290   3.414   1.300  0.4259 -0.2305 -0.1693
  305CLA    CLA22365   3.328   6.096  12.000 -0.1305  0.4782 -0.1263
  306CLA    CLA22366   5.753   5.167   2.519 -0.2525 -0.3515  0.1499
  307CLA    CLA22367   4.534   1.177   5.529  0.2119  0.1239 -0.3953
  308CLA    CLA22368   2.864   6.619   3.627 -0.1628 -0.2595 -0.0477
  309CLA    CLA22369   0.575   6.251   0.842 -0.5958  0.2543  0.3880
  310CLA    CLA22370   3.043   3.190   3.192 -0.2997 -0.4851  0.0794
  311CLA    CLA22371   0.479   3.301   3.953 -0.2799 -0.0853 -0.2611
  312CLA    CLA22372   0.373   6.660  15.619 -0.1863 -0.0587  0.1305
  313CLA    CLA22373   3.259   6.375   2.101  0.0997 -0.0591 -0.0857
  314CLA    CLA22374   2.229   3.205   3.747 -0.1062 -0.0099  0.6141
  315CLA    CLA22375   3.933   4.225  12.026  0.3224 -0.0157 -0.0054
  316CLA    CLA22376   5.827   3.201  13.130  0.4319  0.2937 -0.1068
  317CLA    CLA22377   2.296   6.572  15.262 -0.2191  0.2311  0.4147
  318CLA    CLA22378   5.244   5.180   5.299 -0.0273  0.2539  0.0290
  319CLA    CLA22379   1.155   0.112  11.650 -0.2492  0.0060 -0.1388
  320CLA    CLA22380   3.993   4.319   4.334  0.1927 -0.1874  0.2701
  321CLA    CLA22381   2.546   6.142   5.201 -0.1779  0.0486 -0.0091
  322CLA    CLA22382   1.798   2.918   1.869  0.3880  0.2401  0.1684
  323TIP3   OH222383   2.070   5.530   3.710  0.2040 -0.2269 -0.2248
  323TIP3    H122384   2.041   5.519   3.800 -0.6839  0.9610 -0.3378
  323TIP3    H222385   2.013   5.472   3.659  0.7452 -0.9427 -0.0283
  324TIP3   OH222386   6.483   4.627   2.074  0.6082 -0.1130  0.0391
  324TIP3    H122387   6.541   4.668   2.138 -0.0773  0.2478  0.4367
  324TIP3    H222388   6.538   4.563   2.030  1.1864 -0.1105  0.7410
  325TIP3   OH222389   6.543   0.936  15.392  0.1190  0.4418  0.5138
  325TIP3    H122390   6.475   0.995  15.424  0.1258 -0.4033  2.1447
  325TIP3    H222391   6.535   0.941  15.296 -1.8010  0.8372  0.6563
  326TIP3   OH222392   1.384   6.450   6.130  0.6002  0.1121 -0.5806
  326TIP3    H122393   1.313   6.486   6.183  0.9394  0.8653 -0.6289
  326TIP3    H222394   1.458   6.507   6.147  0.4819  0.9154 -2.5285
  327TIP3   OH222395   4.717   4.290  15.428 -0.2305 -0.2949 -0.2100
  327TIP3    H122396   4.767   4.318  15.504  2.3718 -3.1337 -0.6639
  327TIP3    H222397   4.748   4.346  15.357 -2.7151  2.4070  0.6365
  328TIP3   OH222398   1.584   5.346   2.162  0.4499  0.2817  0.0366
  328TIP3    H122399   1.566   5.291   2.085  0.2813  0.0921  0.2087
  328TIP3    H222400   1.649   5.296   2.211 -0.5486 -0.3392  0.7854
  329TIP3   OH222401   0.671   1.149   0.327  0.0599 -0.3518 -0.2057
  329TIP3    H122402   0.668   1.165   0.421 -0.7126 -0.3906 -0.2220
  329TIP3    H222403   0.751   1.193   0.298 -0.8083  1.5321  0.1331
  330TIP3   OH222404   5.478   0.202   0.268  0.5029  0.0703 -0.5462
  330TIP3    H122405   5.536   0.146   0.320 -1.3115 -0.5840  0.8715
  330TIP3    H222406   5.411   0.230   0.330  0.2181  2.1819 -1.7292
  331TIP3   OH222407   0.927   0.806  15.292  0.2783 -0.6103 -0.0513
  331TIP3    H122408   0.866   0.785  15.221 -0.5868  2.5406 -0.3568
  331TIP3    H222409   1.014   0.796  15.253 -0.1796  1.5282 -1.8045
  332TIP3   OH222410   2.673   2.698  12.956 -0.6156  0.0928 -0.4857
  332TIP3    H122411   2.689   2.789  12.981 -1.5366  0.0856  0.1787
  332TIP3    H222412   2.589   2.700  12.910  0.4946 -0.0737 -2.6767
  333TIP3   OH222413   5.913   6.724   4.457 -0.2971 -0.3695  0.0912
  333TIP3    H122414   6.007   6.724   4.437 -0.2566  0.5513  0.2322
  333TIP3    H222415   5.872   6.756   4.377 -0.3401  0.8288  0.5640
  334TIP3   OH222416   0.568   5.062   0.404  0.0875  0.1736  0.2666
  334TIP3    H122417   0.627   4.992   0.379 -0.4313  0.0836 -0.7720
  334TIP3    H222418   0.482   5.021   0.407 -0.2702  0.8214 -0.6836
  335TIP3   OH222419   4.001   3.172   0.568 -0.4335  0.0559 -1.0712
  335TIP3    H122420   3.955   3.253   0.591  1.3878  1.1381 -1.0338
  335TIP3    H222421   3.942   3.102   0.595 -2.3193  1.3606 -1.6593
  336TIP3   OH222422   0.913   1.697  14.458  0.0227  0.5027  0.0575
  336TIP3    H122423   0.838   1.727  14.408  0.4052 -1.4784 -1.8384
  336TIP3    H222424   0.972   1.773  14.461 -2.1084  2.2220  1.9364
  337TIP3   OH222425   2.170   0.059   1.286 -0.3033 -0.0955 -0.1229
  337TIP3    H122426   2.133   0.020   1.207 -0.6511  0.6019 -0.3098
  337TIP3    H222427   2.137   0.148   1.287 -0.3868 -0.1256  0.8755
  338TIP3   OH222428   2.326   1.994  16.563 -0.5758 -0.4962 -0.0737
  338TIP3    H122429   2.268   1.929  16.524  0.3136 -1.4139  0.1177
  338TIP3    H222430   2.267   2.067  16.587 -2.2478 -2.6373  3.0432
  339TIP3   OH222431   5.246   4.091  13.363  0.5788  0.1086 -0.0822
  339TIP3    H122432   5.296   4.081  13.282  0.8944 -0.0650  0.1308
  339TIP3    H222433   5.234   4.185  13.373  1.2909  0.1909  0.1141
  340TIP3   OH222434   2.135   0.956   2.378 -0.7893  0.3205  0.4739
  340TIP3    H122435   2.050   0.911   2.378 -0.5083 -0.5365  4.1648
  340TIP3    H222436   2.120   1.035   2.429  0.0146  1.7448 -1.3961
  341TIP3   OH222437   4.040   4.138   1.089  0.4730 -0.7839 -0.0099
  341TIP3    H122438   4.056   4.067   1.027  0.0208 -0.8910 -0.0113
  341TIP3    H222439   3.980   4.197   1.044 -0.6579 -1.3700  0.6663
  342TIP3   OH222440   1.374   4.499  14.598 -0.0724  0.1613 -0.2347
  342TIP3    H122441   1.373   4.548  14.680  1.9551  0.6017 -0.4324
  342TIP3    H222442   1.447   4.536  14.548 -1.1880 -0.1436 -2.2270
  343TIP3   OH222443   0.658   0.815   4.312  0.8081 -0.2562  0.2368
  343TIP3    H122444   0.670   0.795   4.405 -1.4256  0.9333  0.8402
  343TIP3    H222445   0.567   0.793   4.294  0.9854  0.2568 -1.4966
  344TIP3   OH222446   5.793   4.489  16.779 -0.1681 -0.2511 -0.2996
  344TIP3    H122447   5.814   4.540  16.857  1.5928 -2.1794  0.5607
  344TIP3    H222448   5.841   4.532  16.708 -1.6626  1.4219 -0.3719
  345TIP3   OH222449   6.072   3.390  10.714 -0.2544 -0.1682  0.0022
  345TIP3    H122450   6.068   3.313  10.771 -3.2443  0.5239  0.9384
  345TIP3    H222451   6.075   3.354  10.625 -0.2913 -1.3547  0.4586
  346TIP3   OH222452   6.472   4.232   4.563  0.6793  0.6527 -0.4155
  346TIP3    H122453   6.524   4.309   4.538  0.3918  1.1423  0.4651
  346TIP3    H222454   6.526   4.158   4.535  1.4827  1.1593 -0.2499
  347TIP3   OH222455   4.552   2.640   1.887  0.6870 -0.3131  0.4170
  347TIP3    H122456   4.646   2.656   1.878  0.6417 -1.0515 -1.8039
  347TIP3    H222457   4.537   2.555   1.846 -0.9956 -0.1111  0.5248
  348TIP3   OH222458   2.019   2.965   1.138 -0.0613 -0.3652  0.0828
  348TIP3    H122459   2.041   2.915   1.217 -0.3510 -0.7337 -0.0651
  348TIP3    H222460   1.949   3.024   1.165 -2.2880 -2.5365 -0.5530
  349TIP3   OH222461   0.988   2.679   5.563 -0.1796 -0.2490 -0.6629
  349TIP3    H122462   0.939   2.761   5.554 -1.7724 -0.9570  0.9408
  349TIP3    H222463   0.963   2.627   5.487 -0.4047  0.1313 -0.8520
  350TIP3   OH222464   0.853   0.576   0.808  0.0814 -0.2471 -0.4796
  350TIP3    H122465   0.912   0.523   0.754  0.6985 -1.7319  1.5320
  350TIP3    H222466   0.770   0.529   0.806 -0.4108  0.6107 -1.4404
  351TIP3   OH222467   3.921   2.849  12.185  0.6999  0.1136 -0.6789
  351TIP3    H122468   4.009   2.824  12.214  0.7653  1.2716  0.2097
  351TIP3    H222469   3.865   2.835  12.261 -0.1038 -1.5876 -1.5475
  352TIP3   OH222470   3.828   3.395   5.775  0.0104  0.4675 -0.0568
  352TIP3    H122471   3.807   3.451   5.701 -0.3417  1.4803  0.7905
  352TIP3    H222472   3.786   3.437   5.850  0.7457 -0.2826  0.7971
  353TIP3   OH222473   0.587   6.244  14.905  1.0262  0.0948 -0.0591
  353TIP3    H122474   0.599   6.335  14.933 -1.2111  0.6052 -0.5694
  353TIP3    H222475   0.578   6.249  14.810  1.7590 -0.7960 -0.1912
  354TIP3   OH222476   4.607   6.423   0.381  0.1716  0.0793 -0.5549
  354TIP3    H122477   4.577   6.354   0.321  2.0772 -1.2582 -0.0656
  354TIP3    H222478   4.638   6.375   0.458 -0.4987  1.6548  0.7443
  355TIP3   OH222479   1.470   1.159  11.325  0.0827  0.2998 -0.0174
  355TIP3    H122480   1.462   1.067  11.350  0.7208  0.5003  0.9744
  355TIP3    H222481   1.546   1.191  11.375  1.1654  0.8319 -1.9016
  356TIP3   OH222482   6.672   5.066  16.465  0.1670 -0.1094 -0.5187
  356TIP3    H122483   6.653   5.104  16.379  1.3213  0.4159 -0.5594
  356TIP3    H222484   6.633   4.979  16.462 -1.8402  0.7277 -0.7203
  357TIP3   OH222485   4.987   3.183   5.035 -0.1719 -0.2965  0.8076
  357TIP3    H122486   5.014   3.104   5.082 -1.1054  0.8719  3.4638
  357TIP3    H222487   4.891   3.182   5.037 -0.2060  0.6713  0.4499
  358TIP3   OH222488   2.580   1.551  12.870 -0.6315  0.1611  0.4621
  358TIP3    H122489   2.505   1.522  12.818 -0.6347  0.0132  0.5483
  358TIP3    H222490   2.561   1.519  12.959 -0.5682  0.3069  0.5274
  359TIP3   OH222491   3.198   2.882  14.110 -0.1477 -0.1522 -0.4598
  359TIP3    H122492   3.212   2.865  14.017  0.7035 -2.0538 -0.0259
  359TIP3    H222493   3.274   2.844  14.154 -0.0137  1.6099  0.9734
  360TIP3   OH222494   2.932   1.499   5.601 -0.3406 -0.2449  0.1098
  360TIP3    H122495   2.839   1.478   5.616 -0.7841  1.6900  0.2327
  360TIP3    H222496   2.953   1.566   5.665  0.8307  0.1811 -0.6901
  361TIP3   OH222497   4.531   5.315  15.572  0.0656 -0.1176  0.0213
  361TIP3    H122498   4.607   5.355  15.615 -0.2567 -0.1220  0.5926
  361TIP3    H222499   4.463   5.382  15.576 -0.5231 -0.7649  1.1092
  362TIP3   OH222500   2.431   1.903   5.016 -0.0067 -0.5221 -0.0701
  362TIP3    H122501   2.397   1.814   5.028 -1.0450 -0.1587 -0.2720
  362TIP3    H222502   2.520   1.899   5.052 -0.7559 -1.1057  1.8092
  363TIP3   OH222503   0.881   2.812  16.306  0.4848  0.1481  0.2757
  363TIP3    H122504   0.815   2.880  16.289  0.6038 -0.0217 -1.0319
  363TIP3    H222505   0.891   2.811  16.401 -1.8248 -0.2315  0.5667
  364TIP3   OH222506   0.185   5.811   2.597  0.3892  0.6307  0.6227
  364TIP3    H122507   0.150   5.814   2.508 -0.0722  0.7858  0.8072
  364TIP3    H222508   0.128   5.749   2.643 -0.1404  1.4878  1.1375
  365TIP3   OH222509   6.206   2.826   1.500 -0.2455 -0.1483 -0.5212
  365TIP3    H122510   6.153   2.748   1.515  0.1830 -0.3041  0.2245
  365TIP3    H222511   6.154   2.898   1.536 -0.9838  0.0427 -1.8835
  366TIP3   OH222512   1.931   4.158  10.626  0.6885 -0.4510  0.1515
  366TIP3    H122513   1.899   4.200  10.706 -1.9320 -0.1349 -0.9506
  366TIP3    H222514   1.884   4.075  10.622  2.3360 -1.4249 -0.0651
  367TIP3   OH222515   5.265   5.754  13.075  0.3406 -0.0753  0.2832
  367TIP3    H122516   5.188   5.700  13.056  0.0899 -0.0935  1.2860
  367TIP3    H222517   5.229   5.839  13.099  0.7478  0.6720 -1.5873
  368TIP3   OH222518   4.089   6.755   2.847 -0.0831 -0.4561  0.4172
  368TIP3    H122519   4.095   6.680   2.788 -0.2428 -1.1295  1.2264
  368TIP3    H222520   4.041   6.821   2.798 -2.0445 -1.7389  0.4848
  369TIP3   OH222521   1.856   0.393   2.463 -0.6341  0.0659 -0.3239
  369TIP3    H122522   1.900   0.420   2.544 -0.3514 -0.9870 -0.1126
  369TIP3    H222523   1.765   0.380   2.489 -0.4184 -0.8934 -0.0157
  370TIP3   OH222524   4.546   1.051   5.226  0.0540  0.2748  0.0975
  370TIP3    H122525   4.575   1.069   5.316  0.3328 -0.0873  0.0808
  370TIP3    H222526   4.533   1.138   5.188  0.7299  0.4460  0.2322
  371TIP3   OH222527   2.262   1.324  12.932  0.0860  0.2416  0.2072
  371TIP3    H122528   2.233   1.242  12.892 -0.4089  0.7653 -0.5235
  371TIP3    H222529   2.286   1.380  12.858 -0.5558  1.1224  0.6481
  372TIP3   OH222530   1.885   0.222   2.804 -0.6187 -0.2133  0.0235
  372TIP3    H122531   1.950   0.172   2.754 -0.1748  1.4230 -1.0992
  372TIP3    H222532   1.931   0.246   2.885 -0.8257 -1.5254  0.5647
  373TIP3   OH222533   4.530   3.653  12.421  0.1895 -0.7547 -0.1116
  373TIP3    H122534   4.533   3.748  12.409 -1.1043 -0.9975 -3.4777
  373TIP3    H222535   4.620   3.628  12.443  0.6399  1.1677  0.3946
  374TIP3   OH222536   5.674   1.569  16.620 -0.5088 -0.3529  0.3831
  374TIP3    H122537   5.703   1.581  16.710 -0.4853  0.4662  0.2732
  374TIP3    H222538   5.753   1.541  16.573 -0.3930 -0.2577  0.5196
  375TIP3   OH222539   0.563   6.098   1.111 -0.2386 -0.6481  0.0506
  375TIP3    H122540   0.630   6.097   1.179 -1.0743  1.0694  0.9737
  375TIP3    H222541   0.607   6.134   1.034 -0.0974  0.5291  0.6709
  376TIP3   OH222542   4.712   0.419   0.924  0.1496 -0.1665  0.0001
  376TIP3    H122543   4.784   0.415   0.987  0.0913  0.9376  0.1566
  376TIP3    H222544   4.707   0.511   0.899 -0.4642 -0.4267 -0.8834
  377TIP3   OH222545   1.276   3.806  16.945  0.6819 -0.2675 -0.8543
  377TIP3    H122546   1.211   3.871  16.971 -0.3766 -1.3251 -0.7416
  377TIP3    H222547   1.349   3.857  16.909 -0.4098  0.9396 -1.4387
  378TIP3   OH222548   2.342   4.998  16.501 -0.3051  0.3407 -0.4665
  378TIP3    H122549   2.347   5.057  16.426  0.2457  0.0834 -0.6327
  378TIP3    H222550   2.323   5.055  16.575  0.6862  0.7916 -0.5485
  379TIP3   OH222551   2.183   1.152  12.424 -0.2742  0.0266 -0.2376
  379TIP3    H122552   2.277   1.159  12.442 -0.6439  1.3657  1.3745
  379TIP3    H222553   2.152   1.086  12.486 -0.4458 -0.3196 -0.6819
  380TIP3   OH222554   4.887   6.551   0.348 -0.3011 -0.2741  0.5198
  380TIP3    H122555   4.943   6.599   0.287 -2.0291  1.1598 -0.0142
  380TIP3    H222556   4.808   6.532   0.297 -0.1725 -2.6772  1.0965
  381TIP3   OH222557   4.895   1.746  15.330  0.5018  0.0346 -0.2689
  381TIP3    H122558   4.899   1.763  15.236  0.5446  0.7829 -0.1333
  381TIP3    H222559   4.820   1.797  15.360 -1.2018 -2.2392 -0.3095
  382TIP3   OH222560   4.168   1.508   2.527  0.4542 -0.0181  0.2553
  382TIP3    H122561   4.126   1.441   2.580  0.6972  0.5036  1.1157
  382TIP3    H222562   4.261   1.501   2.549  0.8122 -0.9234 -1.3594
  383TIP3   OH222563   5.930   6.158  12.734 -0.2081  0.2693 -0.4760
  383TIP3    H122564   5.989   6.221  12.776  0.5306 -0.7403  0.0433
  383TIP3    H222565   5.917   6.090  12.799 -1.0876 -0.0665 -0.9866
  384TIP3   OH222566   4.074   0.752  12.359  0.2253 -0.2457 -0.0709
  384TIP3    H122567   4.058   0.707  12.441 -2.3015  0.8772  0.1471
  384TIP3    H222568   4.147   0.704  12.319 -0.0565 -2.2902  1.6917
  385TIP3   OH222569   3.268   0.876  14.654 -0.6453  0.4700  0.1520
  385TIP3    H122570   3.344   0.848  14.705  0.3040 -0.2610 -1.5717
  385TIP3    H222571   3.262   0.970  14.667 -2.2742  0.0135  3.9611
  386TIP3   OH222572   1.218   0.572   1.427 -0.6349 -0.1168 -0.1995
  386TIP3    H122573   1.172   0.501   1.382  1.6455 -0.9766 -1.3171
  386TIP3    H222574   1.205   0.555   1.520 -0.8068 -1.5335 -0.4703
  387TIP3   OH222575   5.706   3.122   3.968  1.0319  0.3705 -0.0476
  387TIP3    H122576   5.731   3.212   3.986  1.5908  0.1938  0.0646
  387TIP3    H222577   5.786   3.071   3.979  0.3070 -0.4377  1.9726
  388TIP3   OH222578   3.851   6.621  15.355 -0.2136  0.1436 -0.0580
  388TIP3    H122579   3.776   6.637  15.413  0.0443  0.9972  0.0447
  388TIP3    H222580   3.875   6.530  15.372  0.0985  0.4940  1.4598
  389TIP3   OH222581   6.456   3.562   2.879 -0.1986 -0.2875 -0.7329
  389TIP3    H122582   6.426   3.591   2.793 -0.0198  1.4310 -0.2533
  389TIP3    H222583   6.550   3.577   2.879 -0.5070  1.9967  0.5497
  390TIP3   OH222584   5.164   0.717  16.550 -0.0479  0.0598 -0.0149
  390TIP3    H122585   5.147   0.811  16.542 -1.8238 -0.2705 -0.6184
  390TIP3    H222586   5.077   0.676  16.541  0.8356 -1.7087 -0.9339
  391TIP3   OH222587   5.575   5.724   6.020 -0.2404  0.2379  0.0630
  391TIP3    H122588   5.587   5.736   5.926  2.1675  0.1497  0.2872
  391TIP3    H222589   5.664   5.725   6.056 -1.0251 -0.6676  2.2341
  392TIP3   OH222590   2.970   3.893  12.298 -0.1116  0.4742 -0.9468
  392TIP3    H122591   3.062   3.910  12.278 -0.4454  2.1058 -1.2417
  392TIP3    H222592   2.946   3.820  12.240  1.3963 -1.1269  0.3434
  393TIP3   OH222593   2.221   4.129   1.626  0.3058  0.5118 -0.1480
  393TIP3    H122594   2.296   4.088   1.671  0.5444  1.1540  0.0525
  393TIP3    H222595   2.153   4.133   1.693  0.1311  0.0490 -0.2929
  394TIP3   OH222596   5.692   0.768   2.267 -0.0235 -0.7881 -0.5093
  394TIP3    H122597   5.632   0.724   2.206  0.4390 -0.7058 -1.0283
  394TIP3    H222598   5.641   0.839   2.304 -0.2912 -0.8047 -0.8432
  395TIP3   OH222599   4.029   6.145  13.993 -0.3777 -0.2888  0.3104
  395TIP3    H122600   3.937   6.171  13.996 -1.0569 -2.4670  0.1702
  395TIP3    H222601   4.074   6.222  13.958 -2.2375  0.5883 -0.3267
  396TIP3   OH222602   0.446   2.644  17.104 -0.2313 -0.0733  0.3770
  396TIP3    H122603   0.443   2.613  17.195  2.1124  0.7934  0.8111
  396TIP3    H222604   0.469   2.566  17.054  0.1082 -0.2131  0.7424
  397TIP3   OH222605   6.211   4.153  11.400  1.0602  0.2582 -0.3985
  397TIP3    H122606   6.193   4.166  11.493  1.7934  0.9639 -0.3502
  397TIP3    H222607   6.124   4.141  11.361  0.2759  3.9388 -0.2186
  398TIP3   OH222608   3.224   4.745  13.979  0.1286 -0.3072 -0.0605
  398TIP3    H122609   3.225   4.829  14.024  1.0114  1.3151 -2.8596
  398TIP3    H222610   3.131   4.722  13.975 -0.6040  2.3836 -2.1782
  399TIP3   OH222611   1.445   5.973  12.371 -0.0718 -0.2202 -0.5693
  399TIP3    H122612   1.387   5.900  12.394 -0.8729  0.5354 -0.0729
  399TIP3    H222613   1.442   5.977  12.276  0.0649 -0.8925 -0.6088
  400TIP3   OH222614   2.154   6.106   4.893  0.0812 -0.1310 -0.0415
  400TIP3    H122615   2.157   6.032   4.953 -0.8098  0.3871  0.6794
  400TIP3    H222616   2.061   6.124   4.881  0.2249 -0.5492 -2.0263
  401TIP3   OH222617   6.672   6.458  16.274 -0.3920 -0.0571  0.3092
  401TIP3    H122618   6.680   6.363  16.269  0.4720  0.0641 -1.0017
  401TIP3    H222619   6.758   6.488  16.302 -1.1022  0.2705  2.2698
  402TIP3   OH222620   2.306   5.998  13.821 -0.1077 -0.1894  0.5442
  402TIP3    H122621   2.342   5.970  13.905 -0.8432 -1.5675  0.4193
  402TIP3    H222622   2.336   6.089  13.811  3.2837 -1.1730  0.4677
  403TIP3   OH222623   5.449   1.061  17.280  0.0679 -0.0571  0.3929
  403TIP3    H122624   5.463   1.017  17.364 -0.3122  0.8852  0.9708
  403TIP3    H222625   5.536   1.092  17.255  0.1581 -0.1948  0.5332
  404TIP3   OH222626   0.948   6.333  13.377 -0.4345 -0.0210  0.3126
  404TIP3    H122627   0.863   6.329  13.420 -0.6753 -1.0091 -0.2251
  404TIP3    H222628   0.946   6.262  13.313  1.0932 -0.5549  0.8121
  405TIP3   OH222629   5.883   2.289   0.977  0.5347 -0.4899 -0.1659
  405TIP3    H122630   5.857   2.380   0.962  0.5907 -0.4066  0.2276
  405TIP3    H222631   5.971   2.283   0.939  1.8659  0.4807  2.5351
  406TIP3   OH222632   4.287   2.110   2.361  0.4275 -0.1981 -0.7251
  406TIP3    H122633   4.352   2.047   2.332  1.5491  0.4884  0.2071
  406TIP3    H222634   4.256   2.076   2.445  0.6172  0.1943 -0.4933
  407TIP3   OH222635   2.993   0.795  13.122  0.1224  0.6113  0.0619
  407TIP3    H122636   2.960   0.863  13.181  1.0122  0.4653  0.7580
  407TIP3    H222637   3.025   0.726  13.180  1.8140  0.8346 -0.5308
  408TIP3   OH222638   4.941   4.198   1.005  0.3048  0.3520 -0.1473
  408TIP3    H122639   4.942   4.105   1.028  0.0444  0.2941 -0.3695
  408TIP3    H222640   4.935   4.243   1.089  1.0598  0.1878 -0.0001
  409TIP3   OH222641   1.824   2.720  16.468  0.4313 -0.2835  0.0962
  409TIP3    H122642   1.907   2.757  16.437  0.1073  0.3910  0.0066
  409TIP3    H222643   1.757   2.771  16.423 -0.0531  0.5576  1.6936
  410TIP3   OH222644   3.360   5.044   2.062  0.8381 -0.3573  0.4765
  410TIP3    H122645   3.398   5.123   2.098 -0.0154  1.1778 -1.7779
  410TIP3    H222646   3.415   4.973   2.096  4.8595  1.5556 -1.4148
  411TIP3   OH222647   2.024   5.576   1.322 -0.1896 -0.1755 -0.0417
  411TIP3    H122648   2.113   5.559   1.292 -1.3022 -1.2372 -3.2194
  411TIP3    H222649   1.978   5.494   1.309 -1.6087  0.2489  1.8671
  412TIP3   OH222650   1.410   3.613   5.705 -0.0710  0.0087  0.6078
  412TIP3    H122651   1.355   3.654   5.638  0.3545 -0.6890 -0.1846
  412TIP3    H222652   1.356   3.545   5.743  0.6305 -1.5768 -1.0925
  413TIP3   OH222653   5.632   1.829   4.960  0.4637  0.2474  0.4734
  413TIP3    H122654   5.584   1.881   5.025  0.7518  0.7786  0.2725
  413TIP3    H222655   5.610   1.739   4.980 -0.2015  0.4570  0.7191
  414TIP3   OH222656   5.037   4.497  13.532  0.2505 -0.3738 -0.5120
  414TIP3    H122657   5.032   4.523  13.624  0.2563 -0.4088 -0.5020
  414TIP3    H222658   5.019   4.577  13.484  0.6955 -0.2527 -0.4858
  415TIP3   OH222659   2.290   4.481  13.254 -0.5320  0.0373  0.2145
  415TIP3    H122660   2.346   4.538  13.201 -0.3876 -0.6976 -0.4520
  415TIP3    H222661   2.349   4.441  13.317 -1.0777  2.7261  2.6180
  416TIP3   OH222662   1.612   2.761  15.850 -0.0849  0.4578  0.5798
  416TIP3    H122663   1.530   2.720  15.877 -0.0838 -0.1993 -0.3640
  416TIP3    H222664   1.586   2.826  15.786  0.1980 -0.4581 -0.4960
  417TIP3   OH222665   1.371   3.684   3.476  0.0599 -0.0628  0.0589
  417TIP3    H122666   1.446   3.715   3.426  0.2698 -0.7222 -0.0506
  417TIP3    H222667   1.318   3.635   3.412  0.0508 -0.4445  0.3519
  418TIP3   OH222668   5.993   1.653   3.076 -0.3639  0.1289 -1.1526
  418TIP3    H122669   6.045   1.592   3.128  0.2680  1.0129 -0.7300
  418TIP3    H222670   6.050   1.678   3.004 -0.5756  0.3319 -1.2498
  419TIP3   OH222671   3.424   1.769   1.821  0.2625 -0.5019 -0.0705
  419TIP3    H122672   3.334   1.746   1.799  0.3088 -1.2580  0.5015
  419TIP3    H222673   3.458   1.693   1.869  1.0528 -0.0364  0.1316
  420TIP3   OH222674   3.898   6.035   4.265 -0.6164 -0.1780  0.2655
  420TIP3    H122675   3.933   6.028   4.177  0.5533  0.6705  0.6300
  420TIP3    H222676   3.804   6.022   4.255 -0.5186  0.0272 -1.1194
  421TIP3   OH222677   1.623   1.301   0.429  0.2806  0.2966  0.2820
  421TIP3    H122678   1.686   1.303   0.357  0.6499 -1.9006  0.4758
  421TIP3    H222679   1.665   1.247   0.496 -1.8343 -1.3846  0.3611
  422TIP3   OH222680   5.167   0.207  13.604  0.4374 -0.3500 -0.2148
  422TIP3    H122681   5.191   0.276  13.666  1.3604 -1.5914  0.8725
  422TIP3    H222682   5.084   0.173  13.637  0.3416 -0.2358 -0.3374
  423TIP3   OH222683   5.594   0.039   1.578 -0.2741 -0.8748 -0.5618
  423TIP3    H122684   5.540   0.058   1.654 -1.6820 -0.6015 -1.5864
  423TIP3    H222685   5.635  -0.045   1.597  0.4717 -0.1872  1.0430
  424TIP3   OH222686   5.927   5.922  15.462  0.6104  0.1711  0.2135
  424TIP3    H122687   5.965   6.000  15.423  0.7836 -0.6383 -1.3091
  424TIP3    H222688   5.997   5.857  15.460  0.7242  0.1776  2.2055
  425TIP3   OH222689   6.689   3.778   4.240  0.2619 -0.0957 -0.0347
  425TIP3    H122690   6.595   3.792   4.224  0.6103  1.0117 -1.3059
  425TIP3    H222691   6.730   3.861   4.216  1.6919 -0.9597 -0.7015
  426TIP3   OH222692   2.573   2.592   4.298 -0.3563  0.5304 -0.1642
  426TIP3    H122693   2.655   2.639   4.315  0.4789 -0.8528 -0.2386
  426TIP3    H222694   2.567   2.588   4.203 -0.6901  0.9217 -0.1618
  427TIP3   OH222695   6.057   2.018  15.932  0.0886 -0.3319 -0.2280
  427TIP3    H122696   6.016   2.100  15.958  2.5466  1.1325 -0.6599
  427TIP3    H222697   6.006   1.989  15.856  1.2720  2.7529 -2.3772
  428TIP3   OH222698   3.667   6.290   4.133  0.2305 -0.4434  0.6492
  428TIP3    H122699   3.616   6.305   4.053 -0.6777 -1.2675  1.0555
  428TIP3    H222700   3.673   6.195   4.139 -0.0189 -0.3976  1.7468
  429TIP3   OH222701   4.969   3.361  15.665 -0.3577  0.5429  0.6201
  429TIP3    H122702   4.958   3.446  15.707 -1.0743  1.4789 -1.3793
  429TIP3    H222703   4.932   3.371  15.578  0.9757 -1.3480 -0.2528
  430TIP3   OH222704   3.682   2.478   0.165 -0.1638  0.5884 -0.2457
  430TIP3    H122705   3.656   2.523   0.245 -2.6081  1.3050 -1.3452
  430TIP3    H222706   3.630   2.398   0.164 -1.0167  1.1339 -1.6311
  431TIP3   OH222707   4.069   6.208  12.189  0.3400  0.3195  0.4968
  431TIP3    H122708   4.134   6.145  12.158 -0.8969 -0.5080 -0.4782
  431TIP3    H222709   4.001   6.154  12.230 -0.6615  1.0234 -0.2135
  432TIP3   OH222710   3.602   3.574   0.452  0.3315  0.4701  0.1242
  432TIP3    H122711   3.680   3.615   0.417  0.1339 -0.4813 -1.5321
  432TIP3    H222712   3.545   3.647   0.477  0.7791  1.1939 -0.9200
  433TIP3   OH222713   0.799   6.656  13.556 -0.1276 -0.2140  0.6623
  433TIP3    H122714   0.719   6.696  13.590 -0.0364 -0.2714  0.9461
  433TIP3    H222715   0.797   6.567  13.591 -0.8720 -0.8252 -0.8146
  434TIP3   OH222716   1.985   4.304  14.258 -0.4443 -0.4633  0.3331
  434TIP3    H122717   1.911   4.243  14.252  0.7499 -2.0055  0.6613
  434TIP3    H222718   2.025   4.286  14.343 -0.7582  1.6705  1.0000
  435TIP3   OH222719   4.240   5.186   5.471 -0.1880 -0.2432  0.5154
  435TIP3    H122720   4.267   5.233   5.550  0.9986 -2.8287  1.7983
  435TIP3    H222721   4.316   5.192   5.413 -0.5310  0.4858  0.1342
  436TIP3   OH222722   6.202   2.926   3.915 -0.5402  0.4118  0.5191
  436TIP3    H122723   6.241   3.004   3.875  2.5897 -0.1755  2.1045
  436TIP3    H222724   6.246   2.852   3.873 -2.1587 -0.4875  0.3054
  437TIP3   OH222725   5.721   2.917   1.739 -0.6848  0.5003  0.0983
  437TIP3    H122726   5.679   2.864   1.671 -0.4019  1.9893 -1.3171
  437TIP3    H222727   5.654   2.982   1.762 -0.3501  0.7558  0.3517
  438TIP3   OH222728   3.630   1.803   1.656  0.3628  0.1759 -0.2851
  438TIP3    H122729   3.629   1.891   1.618 -2.8343 -0.7484 -2.8118
  438TIP3    H222730   3.567   1.808   1.729  0.7449  0.1187  0.0546
  439TIP3   OH222731   2.328   2.061  15.153  0.4010 -0.1770 -0.0143
  439TIP3    H122732   2.417   2.036  15.129  0.5205  0.0495  0.1832
  439TIP3    H222733   2.335   2.154  15.177  0.3179 -0.4297  1.0317
  440TIP3   OH222734   3.465   2.534   0.612  0.0384 -0.4243  0.4062
  440TIP3    H122735   3.396   2.523   0.677  0.0823 -1.8301  0.2493
  440TIP3    H222736   3.422   2.519   0.528 -0.0622  1.5719  0.0519
  441TIP3   OH222737   6.012   3.882  11.900 -0.0974 -0.5223 -0.2555
  441TIP3    H122738   5.938   3.913  11.848 -0.1538  0.1998  0.2455
  441TIP3    H222739   6.089   3.898  11.845 -0.0629  1.0653  0.2073
  442TIP3   OH222740   4.681   0.198   4.360  0.2452 -0.3120  0.4698
  442TIP3    H122741   4.692   0.288   4.328  0.2305  0.0774  1.5410
  442TIP3    H222742   4.659   0.207   4.452 -1.8359 -1.3477  0.1341
  443TIP3   OH222743   6.372   0.149  12.836 -0.1007 -0.6748  0.0363
  443TIP3    H122744   6.311   0.141  12.909 -1.8779 -0.7073 -1.3864
  443TIP3    H222745   6.440   0.208  12.868 -1.7033  0.6417  1.1860
  444TIP3   OH222746   2.077   5.948  13.138 -0.1258  0.3246  0.1446
  444TIP3    H122747   1.986   5.940  13.112 -0.6042  1.4784  1.3826
  444TIP3    H222748   2.111   6.022  13.088  0.5140 -0.8660 -1.2483
  445TIP3   OH222749   3.687   4.409  14.136  0.4515  0.3173  0.1224
  445TIP3    H122750   3.667   4.386  14.227 -0.9641  2.5482  0.4777
  445TIP3    H222751   3.756   4.475  14.144 -0.2901  1.1656 -0.3267
  446TIP3   OH222752   2.710   1.320   5.862  0.7438 -0.2273 -0.2808
  446TIP3    H122753   2.774   1.375   5.907  0.9722 -0.2676 -0.5523
  446TIP3    H222754   2.682   1.371   5.786 -1.0889  0.6549  0.9271
  447TIP3   OH222755   1.185   6.379   0.910 -0.1703 -0.4477  0.2503
  447TIP3    H122756   1.135   6.300   0.890  0.2769 -1.0437  1.3988
  447TIP3    H222757   1.131   6.426   0.974  0.3380 -0.6707  0.8522
  448TIP3   OH222758   2.141   1.180   3.959  0.1154 -0.0775  0.2763
  448TIP3    H122759   2.181   1.169   3.873 -2.0476 -1.8032 -0.5979
  448TIP3    H222760   2.058   1.225   3.942  0.3815  1.0371  1.7006
  449TIP3   OH222761   2.012   0.252   4.666  0.1278 -0.1108  0.6438
  449TIP3    H122762   2.094   0.259   4.617 -0.3961  1.0605 -0.1062
  449TIP3    H222763   1.965   0.181   4.623  0.2916 -0.0669  0.3868
  450TIP3   OH222764   1.386   3.820   2.810 -0.4680  0.0752  0.7808
  450TIP3    H122765   1.300   3.777   2.812  0.0462 -0.9775  1.1425
  450TIP3    H222766   1.430   3.781   2.734 -1.0548  2.1557 -0.6998
  451TIP3   OH222767   1.075   6.006  17.339  0.6310  0.3740 -0.1027
  451TIP3    H122768   0.985   5.973  17.332  1.0638 -1.2343  1.4311
  451TIP3    H222769   1.064   6.098  17.364 -0.6262 -0.3055  2.0668
  452TIP3   OH222770   3.942   6.730   1.762  0.6300 -0.1973  0.0478
  452TIP3    H122771   3.965   6.701   1.850  2.2471 -2.0780 -0.9348
  452TIP3    H222772   3.873   6.670   1.735  1.3084 -0.7044 -0.5769
  453TIP3   OH222773   0.305   0.480  12.855 -0.5748 -0.4075  0.2367
  453TIP3    H122774   0.388   0.433  12.868 -0.9860 -0.6961  2.1711
  453TIP3    H222775   0.244   0.415  12.822 -0.2951 -0.4390 -0.2193
  454TIP3   OH222776   6.255   2.085   4.096 -0.1419  0.0124 -0.0347
  454TIP3    H122777   6.161   2.072   4.079  0.1779 -3.0089 -0.0891
  454TIP3    H222778   6.281   2.009   4.148  1.9851  1.6479  1.5013
  455TIP3   OH222779   4.660   4.780   5.040  0.0610  0.8669 -0.0080
  455TIP3    H122780   4.689   4.831   4.965  3.7173 -0.4982  0.2933
  455TIP3    H222781   4.720   4.804   5.111  0.7181 -2.3422  0.6738
  456TIP3   OH222782   2.122   6.286   5.536 -0.5243  0.0222 -0.1350
  456TIP3    H122783   2.138   6.303   5.629  2.6684  0.4413 -0.6633
  456TIP3    H222784   2.072   6.362   5.506  0.4622  1.0481  0.7419
  457TIP3   OH222785   2.094   6.035   3.769  0.4364 -0.0728 -0.0676
  457TIP3    H122786   2.046   6.030   3.687  1.9966  2.0010 -1.1876
  457TIP3    H222787   2.112   5.943   3.791 -0.5051 -0.7042 -1.7231
  458TIP3   OH222788   0.605   1.938   3.186  0.0090  0.3130  0.9510
  458TIP3    H122789   0.700   1.944   3.173  0.2008  0.1213  2.0948
  458TIP3    H222790   0.585   1.845   3.179 -0.3804  0.5094 -0.9319
  459TIP3   OH222791   6.461   3.429   6.030 -0.0722  0.0904 -0.0142
  459TIP3    H122792   6.529   3.450   6.093  0.8674  0.7228 -1.2036
  459TIP3    H222793   6.507   3.419   5.947 -1.4783  1.2146 -0.9931
  460TIP3   OH222794   0.563   6.467  14.646  0.3590 -0.1142 -0.0641
  460TIP3    H122795   0.624   6.393  14.638  0.8696  0.3330 -0.3332
  460TIP3    H222796   0.561   6.507  14.559  0.1559  0.2432  0.1020
  461TIP3   OH222797   1.869   6.123   4.895  0.4092 -0.3760  0.9694
  461TIP3    H122798   1.821   6.049   4.931  2.0297 -1.5542  0.8329
  461TIP3    H222799   1.824   6.144   4.813 -0.5859 -0.6138  1.4395
  462TIP3   OH222800   0.901   5.439   5.006  0.9182 -0.3330  0.1238
  462TIP3    H122801   0.806   5.428   5.006  0.5614  1.7443 -2.1625
  462TIP3    H222802   0.922   5.459   5.097 -0.7592 -1.3080  0.7758
  463TIP3   OH222803   0.107   6.532   1.344 -0.7242 -0.1888  0.1279
  463TIP3    H122804   0.111   6.588   1.421  0.5999  1.6033 -1.1417
  463TIP3    H222805   0.182   6.473   1.354 -0.7023 -0.1250  0.3501
  464TIP3   OH222806   6.555   5.686  16.156  0.2261 -0.4093  0.6004
  464TIP3    H122807   6.641   5.686  16.114  0.0490  0.8980  0.1674
  464TIP3    H222808   6.494   5.700  16.083 -0.1110  1.6133  1.2181
  465TIP3   OH222809   0.959   3.455   2.469 -0.2161 -0.2164  0.2899
  465TIP3    H122810   0.963   3.359   2.471  0.5513 -0.1792  0.6755
  465TIP3    H222811   0.876   3.474   2.425 -1.3453 -1.0697  1.9310
  466TIP3   OH222812   2.481   2.077  11.172  0.0756 -0.5703 -0.3158
  466TIP3    H122813   2.519   2.165  11.170 -0.6321 -0.2621 -0.3806
  466TIP3    H222814   2.554   2.020  11.147  0.5102  0.0036 -0.3974
  467TIP3   OH222815   2.966   1.548   0.450  0.1797  0.6748  0.1773
  467TIP3    H122816   2.915   1.629   0.459  0.7176  1.1786 -1.0241
  467TIP3    H222817   2.914   1.494   0.389  0.8001  0.9729 -0.6332
  468TIP3   OH222818   4.321   5.486  15.577  0.2336  0.3756 -0.3322
  468TIP3    H122819   4.282   5.514  15.660  0.0117 -0.0761 -0.2792
  468TIP3    H222820   4.322   5.565  15.523 -1.3723  0.2779 -0.5661
  469TIP3   OH222821   1.905   4.940   0.535 -0.4046 -0.7740  0.1516
  469TIP3    H122822   1.952   4.938   0.618 -0.2937 -0.6233  0.0927
  469TIP3    H222823   1.956   4.999   0.479 -1.0484 -0.0134  0.3335
  470TIP3   OH222824   5.391   0.868   3.921 -0.5591  0.1753  0.2356
  470TIP3    H122825   5.445   0.875   3.842 -0.6597 -3.9764 -0.3937
  470TIP3    H222826   5.455   0.871   3.993 -0.3790  2.9798  0.0744
  471TIP3   OH222827   0.417   6.030   3.394 -0.2495  0.0177  0.2754
  471TIP3    H122828   0.343   5.994   3.345  0.6850 -0.7628 -0.6128
  471TIP3    H222829   0.425   5.972   3.470 -0.1329 -0.3010  0.0210
  472TIP3   OH222830   0.950   4.056   3.208  0.1283  0.2009  0.4803
  472TIP3    H122831   0.929   4.147   3.187 -0.0752  0.1537  0.4805
  472TIP3    H222832   1.043   4.047   3.185 -0.0364  0.2104 -0.2110
  473TIP3   OH222833   1.390   4.245  12.874 -0.1479 -0.1381  0.2332
  473TIP3    H122834   1.450   4.231  12.802 -0.6406  2.6978 -0.8703
  473TIP3    H222835   1.446   4.262  12.950  0.3849 -1.1370  0.0672
  474TIP3   OH222836   3.117   1.152  12.941 -0.6553  0.0949 -0.1692
  474TIP3    H122837   3.175   1.217  12.981  1.0146 -2.5205  1.9931
  474TIP3    H222838   3.176   1.097  12.888 -1.8271 -0.3505 -1.0576
  475TIP3   OH222839   1.516   4.880  14.032 -0.7588 -0.2749  0.6051
  475TIP3    H122840   1.597   4.913  14.071  0.6706 -2.5597 -0.2498
  475TIP3    H222841   1.462   4.958  14.021  1.3087  1.3442  1.2085
  476TIP3   OH222842   3.374   3.534  16.781  0.6331  0.2139 -0.1155
  476TIP3    H122843   3.467   3.545  16.799  0.3765  1.3431  0.5976
  476TIP3    H222844   3.341   3.482  16.854  0.2856  1.7564  0.8687
  477TIP3   OH222845   4.583   5.795   5.430  0.1192  0.2899  0.5639
  477TIP3    H122846   4.604   5.728   5.365  1.2544 -0.4296  1.6213
  477TIP3    H222847   4.656   5.856   5.426 -1.3937  2.1447 -1.1326
  478TIP3   OH222848   3.414   5.738  12.974  0.4174  0.4295 -0.0401
  478TIP3    H122849   3.475   5.684  13.024  0.2439 -0.1340 -0.4348
  478TIP3    H222850   3.343   5.679  12.949 -0.9563  1.3580  1.4704
  479TIP3   OH222851   6.022   5.202   6.357 -0.2223 -0.0666  0.6619
  479TIP3    H122852   6.089   5.263   6.325  0.5487 -1.1531  0.1799
  479TIP3    H222853   6.050   5.116   6.326 -2.2735 -0.4586 -0.2598
  480TIP3   OH222854   2.012   3.181   2.993  0.3963  0.3064 -0.7119
  480TIP3    H122855   2.060   3.253   3.033 -0.1229  0.5510 -0.5238
  480TIP3    H222856   2.078   3.132   2.944  0.7805  0.8219 -0.7143
  481TIP3   OH222857   1.119   2.849  11.472 -0.2332 -0.0063 -0.2000
  481TIP3    H122858   1.207   2.886  11.479 -0.2811  0.3132 -1.0780
  481TIP3    H222859   1.133   2.762  11.433 -0.3173  0.1320 -0.5438
  482TIP3   OH222860   6.396   4.839  16.416  0.1380  0.1108  0.1219
  482TIP3    H122861   6.345   4.842  16.497  0.6145  1.1766  0.4023
  482TIP3    H222862   6.371   4.918  16.368 -1.3980 -1.3305 -1.5926
  483TIP3   OH222863   5.289   2.570   5.787  0.1684  0.3203 -0.2549
  483TIP3    H122864   5.242   2.634   5.839 -0.7259 -0.2999 -0.2768
  483TIP3    H222865   5.303   2.612   5.702 -0.3898  0.4925 -0.2610
  484TIP3   OH222866   6.595   3.107   1.801  0.6485 -0.2202  0.4105
  484TIP3    H122867   6.536   3.111   1.876  0.8336 -0.5416  0.5742
  484TIP3    H222868   6.660   3.175   1.819 -1.8247  3.0280 -1.6605
  485TIP3   OH222869   4.675   6.750   0.808 -0.1956  0.0020  0.5683
  485TIP3    H122870   4.701   6.738   0.717  1.1552 -1.1641  1.0707
  485TIP3    H222871   4.635   6.667   0.834  0.0912  0.0658  1.2475
  486TIP3   OH222872   5.200   2.998   4.679  0.0237  0.8164 -0.4847
  486TIP3    H122873   5.173   2.906   4.669 -1.5982  1.3278 -0.9947
  486TIP3    H222874   5.168   3.041   4.601  0.1629  1.9750  0.0784
  487TIP3   OH222875   0.482   0.651   5.321 -0.3263 -0.0522  0.0957
  487TIP3    H122876   0.495   0.561   5.353  1.1120  0.1001 -0.0121
  487TIP3    H222877   0.527   0.706   5.385  1.2411  0.3681 -1.3003
  488TIP3   OH222878   2.493   2.101  16.754  0.0750 -0.1270  0.3858
  488TIP3    H122879   2.429   2.170  16.735 -0.2928 -0.7101 -0.5427
  488TIP3    H222880   2.473   2.031  16.692  1.6081 -0.3333  0.0741
  489TIP3   OH222881   3.437   1.615  14.613 -0.2510 -0.0930  0.0849
  489TIP3    H122882   3.501   1.615  14.684  0.9379  0.0567 -0.9402
  489TIP3    H222883   3.430   1.707  14.587 -0.2914 -0.2089 -0.3166
  490TIP3   OH222884   2.843   2.141  11.732 -0.1360 -0.3612 -0.1830
  490TIP3    H122885   2.811   2.088  11.659  0.8354 -0.9875 -0.1706
  490TIP3    H222886   2.918   2.092  11.766  1.0050  1.1753 -0.3759
  491TIP3   OH222887   4.275   6.075   0.368  0.5354  0.3640  0.1585
  491TIP3    H122888   4.320   5.990   0.372  0.3680  0.3174  2.6305
  491TIP3    H222889   4.182   6.053   0.374  0.5073  0.7174  1.1590
  492TIP3   OH222890   4.975   1.716  16.704 -0.3231 -0.2776  0.0178
  492TIP3    H122891   4.947   1.799  16.742  1.3216  0.0226  0.6830
  492TIP3    H222892   4.897   1.681  16.660 -1.0100  1.6709 -0.3965
  493TIP3   OH222893   5.692   4.269   2.142 -0.2187 -0.3400  0.6913
  493TIP3    H122894   5.682   4.174   2.143 -1.6541 -0.2062  0.5286
  493TIP3    H222895   5.744   4.287   2.063  0.2487 -0.9892  0.8430
  494TIP3   OH222896   3.259   1.403  11.371 -0.0680 -0.5116  0.3443
  494TIP3    H122897   3.208   1.378  11.295 -1.6886  0.7929  0.9201
  494TIP3    H222898   3.344   1.429  11.336  0.0245 -2.1670 -0.7216
  495TIP3   OH222899   3.049   4.540   6.404  0.1644  0.1238  0.5357
  495TIP3    H122900   3.032   4.501   6.318 -1.4404  0.7679  0.5126
  495TIP3    H222901   3.054   4.466   6.464 -1.0313 -0.2374  0.2194
  496TIP3   OH222902   4.941   6.225  15.480 -0.4431 -0.1751 -0.3539
  496TIP3    H122903   4.934   6.174  15.561 -1.7705  0.7071  0.1238
  496TIP3    H222904   5.025   6.199  15.443  0.0678 -0.8187  1.1560
  497TIP3   OH222905   6.241   4.851   1.125  0.7997 -0.1108  0.9484
  497TIP3    H122906   6.279   4.896   1.201 -0.3275  0.2034  1.3495
  497TIP3    H222907   6.146   4.864   1.135  0.3467 -2.9982  1.3573
  498TIP3   OH222908   5.995   1.169   6.125 -0.9003  0.0831  0.1653
  498TIP3    H122909   5.981   1.075   6.137  0.7908  0.0443  2.7460
  498TIP3    H222910   6.056   1.175   6.051 -0.6709 -0.8949  0.2592
  499TIP3   OH222911   3.846   5.000  14.719  0.3852  0.2667  0.6562
  499TIP3    H122912   3.795   4.938  14.772  1.4233 -0.2783  1.0421
  499TIP3    H222913   3.780   5.048  14.668 -0.4862 -0.6249  0.9161
  500TIP3   OH222914   4.180   2.336   0.225  0.1052 -0.5931  0.5315
  500TIP3    H122915   4.144   2.396   0.160 -1.9044 -1.1031  1.1125
  500TIP3    H222916   4.242   2.281   0.176  0.4352  0.5891 -0.4112
  501TIP3   OH222917   2.944   1.614  11.928 -0.1613  0.0299  0.3716
  501TIP3    H122918   2.886   1.665  11.984  1.4089  1.7790  0.5166
  501TIP3    H222919   2.944   1.660  11.845  1.5097  0.4887  0.5926
  502TIP3   OH222920   3.791   1.986  14.075 -0.0716  0.3589  0.1773
  502TIP3    H122921   3.719   1.926  14.095 -0.2744  0.1714 -0.9942
  502TIP3    H222922   3.758   2.040  14.003  0.3656  1.4133  0.7420
  503TIP3   OH222923   1.810   4.087   4.155 -0.2506  0.1948  0.2518
  503TIP3    H122924   1.865   4.143   4.209  1.1093  0.2936 -1.1546
  503TIP3    H222925   1.858   4.077   4.073 -2.1786 -0.0140 -0.9381
  504TIP3   OH222926   0.557   6.203   5.228 -0.1256 -0.5232  0.5684
  504TIP3    H122927   0.591   6.291   5.242 -1.9713  0.2798  0.2759
  504TIP3    H222928   0.628   6.157   5.182  0.4820  1.1170 -0.2214
  505TIP3   OH222929   1.914   0.444   3.171  0.1760  0.1416 -0.1979
  505TIP3    H122930   1.819   0.436   3.173  0.0993  0.6531 -0.9309
  505TIP3    H222931   1.946   0.354   3.175 -0.3599 -0.0694 -0.4473
  506TIP3   OH222932   1.804   5.261  17.342 -0.4172 -0.2713  0.4109
  506TIP3    H122933   1.883   5.257  17.288 -0.7778  1.1250 -0.2769
  506TIP3    H222934   1.805   5.181  17.393  1.2619 -0.4353  0.1510
  507TIP3   OH222935   1.982   3.385  15.424  0.2371 -0.1809 -0.3913
  507TIP3    H122936   1.894   3.421  15.411 -0.3436 -0.9811  1.1202
  507TIP3    H222937   2.039   3.462  15.427 -0.4752  0.3829 -0.8665
  508TIP3   OH222938   6.342   6.649  14.022  0.0794 -0.2218 -0.1428
  508TIP3    H122939   6.361   6.601  14.102  2.8429  1.4872  0.3413
  508TIP3    H222940   6.414   6.712  14.013 -1.2856  1.1526 -2.8072
  509TIP3   OH222941   0.875   3.135  13.438 -0.4778  0.3204 -0.6945
  509TIP3    H122942   0.839   3.212  13.482 -1.3488 -0.6797  0.4102
  509TIP3    H222943   0.930   3.170  13.369 -0.9115  1.9326 -0.2529
  510TIP3   OH222944   3.749   0.081   3.952  0.2858 -0.4879 -0.2164
  510TIP3    H122945   3.783   0.064   4.040  1.7504  1.6224 -0.3141
  510TIP3    H222946   3.720   0.172   3.954  0.8091 -0.2368 -2.0228
  511TIP3   OH222947   2.299   1.650  13.776 -0.0561 -0.1088 -0.0584
  511TIP3    H122948   2.339   1.737  13.785  2.0950 -0.9438 -1.0027
  511TIP3    H222949   2.212   1.668  13.740  0.0660  1.6929  0.4468
  512TIP3   OH222950   0.560   4.208   3.644  0.0438 -0.5110  0.2996
  512TIP3    H122951   0.633   4.170   3.692  0.9965  0.5707 -0.2422
  512TIP3    H222952   0.504   4.247   3.711 -0.5717 -2.1518  0.8014
  513TIP3   OH222953   5.793   5.162  14.010  0.3205 -0.5406 -0.1819
  513TIP3    H122954   5.755   5.118  13.934  0.6084  0.0615 -0.6821
  513TIP3    H222955   5.759   5.251  14.006  1.9015  0.0708 -0.7632
  514TIP3   OH222956   2.438   4.408  11.845  0.1566  0.4860 -0.0092
  514TIP3    H122957   2.461   4.326  11.801  0.0579  1.1474 -1.3399
  514TIP3    H222958   2.520   4.439  11.883  0.1968 -0.2119  0.4953
  515TIP3   OH222959   3.003   3.784  15.769 -0.8268  0.3135 -0.1876
  515TIP3    H122960   2.969   3.843  15.836  1.8200 -0.0887  1.6905
  515TIP3    H222961   3.077   3.832  15.730 -1.6938  0.1364 -2.1914
  516TIP3   OH222962   6.665   1.394   1.053 -0.2458 -0.1040 -0.7184
  516TIP3    H122963   6.639   1.308   1.021  0.2765 -0.8968  0.8502
  516TIP3    H222964   6.587   1.428   1.097 -0.0625 -0.3662 -0.1861
  517TIP3   OH222965   5.759   6.570   0.975  0.1627 -0.3767  0.3085
  517TIP3    H122966   5.793   6.624   0.904  1.9090  0.3937  1.6774
  517TIP3    H222967   5.664   6.574   0.965  0.1736  3.2394  0.5391
  518TIP3   OH222968   6.729   1.037  14.982  0.4002 -0.2104 -0.2630
  518TIP3    H122969   6.719   1.108  14.918 -0.2769 -1.0814 -1.1348
  518TIP3    H222970   6.779   0.970  14.936 -0.5229 -1.0568 -0.0556
  519TIP3   OH222971   4.225   5.062  11.236  0.1518  0.0346 -0.0714
  519TIP3    H122972   4.197   5.058  11.145 -0.5850 -2.7519  0.2059
  519TIP3    H222973   4.315   5.029  11.236  1.0021  2.1603 -0.0061
  520TIP3   OH222974   6.600   6.223   5.622  0.3739  0.3058  0.2029
  520TIP3    H122975   6.676   6.166   5.605  0.7279  1.1727 -1.4090
  520TIP3    H222976   6.638   6.301   5.664  0.1108  0.0100  1.0006
  521TIP3   OH222977   3.007   4.007   5.643 -0.4994 -0.4131  0.0189
  521TIP3    H122978   3.090   4.036   5.681 -1.1733  0.7729  0.6597
  521TIP3    H222979   2.945   4.075   5.668 -1.2821 -0.2912 -2.0298
  522TIP3   OH222980   0.817   0.045  11.221 -0.4225  0.0424  0.4859
  522TIP3    H122981   0.832   0.120  11.163  1.0555  0.4485  1.3545
  522TIP3    H222982   0.885  -0.018  11.197  1.1878  0.8196  2.7025
  523TIP3   OH222983   1.973   6.712  14.313  0.0646 -0.1690 -0.1471
  523TIP3    H122984   1.980   6.757  14.397 -0.2554 -0.9536  0.3094
  523TIP3    H222985   2.047   6.744  14.262 -1.1232  2.2653 -0.5294
  524TIP3   OH222986   0.099   1.715   1.897 -0.4830 -0.0064  0.3824
  524TIP3    H122987   0.171   1.764   1.937 -0.4405  0.8316 -0.6820
  524TIP3    H222988   0.140   1.671   1.823 -1.3499  1.8159 -1.2539
  525TIP3   OH222989   6.021   0.105   5.982  0.1508  0.2954 -0.1290
  525TIP3    H122990   6.086   0.089   5.913 -0.0171 -1.5098  0.0850
  525TIP3    H222991   6.070   0.150   6.051  1.0634 -0.5836 -0.1837
  526TIP3   OH222992   3.052   5.776  13.390  0.2676 -0.3254 -0.4073
  526TIP3    H122993   2.959   5.801  13.396  0.6084  1.1243 -0.8430
  526TIP3    H222994   3.051   5.695  13.339 -0.7053  0.1003 -1.1103
  527TIP3   OH222995   5.934   1.520  16.482 -0.1671  0.0022 -0.3478
  527TIP3    H122996   5.966   1.506  16.393 -1.1482  0.0418 -0.7226
  527TIP3    H222997   5.986   1.461  16.536  1.3843  0.9554 -0.7342
  528TIP3   OH222998   3.048   1.587   4.948  0.2083  0.2768  0.2303
  528TIP3    H122999   3.072   1.539   5.028 -0.1313 -0.7119 -0.2510
  528TIP3    H223000   3.129   1.593   4.898  0.8012  2.2274  1.2754
  529TIP3   OH223001   2.520   0.803   0.646 -0.1208 -0.2423 -0.2271
  529TIP3    H123002   2.488   0.800   0.556  0.7142 -1.0911 -0.5184
  529TIP3    H223003   2.614   0.822   0.637 -0.1400  0.2044  0.4892
  530TIP3   OH223004   2.453   0.247   1.253 -0.1004  0.0673  0.0712
  530TIP3    H123005   2.391   0.204   1.312 -1.9513 -0.0388 -1.8031
  530TIP3    H223006   2.418   0.336   1.242  0.5580  0.2783 -0.3858
  531TIP3   OH223007   0.259   3.207  13.142 -0.5522  0.4804 -0.0277
  531TIP3    H123008   0.332   3.214  13.080  0.3110  1.1863  1.0265
  531TIP3    H223009   0.198   3.146  13.100  0.3486  0.3561 -1.2232
  532TIP3   OH223010   3.372   4.147  11.770  0.0731 -0.1519  0.3024
  532TIP3    H123011   3.371   4.124  11.863  2.7868  0.5782  0.5959
  532TIP3    H223012   3.382   4.064  11.724 -1.1058 -0.4979  0.6142
  533TIP3   OH223013   1.384   3.210  14.784  0.1514  0.3072  0.2043
  533TIP3    H123014   1.395   3.260  14.865 -0.2313  1.2034 -0.2762
  533TIP3    H223015   1.435   3.258  14.719 -1.1484  0.7470 -0.5257
  534TIP3   OH223016   2.039   6.354   2.344  0.4732  0.2454  0.0262
  534TIP3    H123017   1.962   6.316   2.301  1.2577  0.5519 -1.7575
  534TIP3    H223018   2.110   6.342   2.280  2.1499 -0.8601  1.9744
  535TIP3   OH223019   2.167   5.882  14.512 -0.7063 -0.3508  0.2313
  535TIP3    H123020   2.251   5.837  14.505 -0.3230  0.4529 -0.5970
  535TIP3    H223021   2.171   5.928  14.595  0.1698  0.6252 -0.3310
  536TIP3   OH223022   2.224   6.012   2.739  0.3730  0.4150  0.2504
  536TIP3    H123023   2.270   6.095   2.730 -0.4674  0.6666 -2.9082
  536TIP3    H223024   2.134   6.031   2.713 -0.1201 -1.2385  0.6072
  537TIP3   OH223025   0.856   2.035  17.005  0.1253  0.7572  0.0733
  537TIP3    H123026   0.800   2.042  16.928  0.9426  0.2297 -0.5797
  537TIP3    H223027   0.942   2.063  16.975  0.3615  0.9343  0.9013
  538TIP3   OH223028   0.503   6.499  10.820 -0.3503 -0.3756  0.7117
  538TIP3    H123029   0.525   6.535  10.905 -0.4687 -0.3601  0.7365
  538TIP3    H223030   0.562   6.543  10.759 -1.0044  0.4290  0.6415
  539TIP3   OH223031   0.082   6.396   5.519 -0.0700  0.3814  0.4042
  539TIP3    H123032   0.118   6.483   5.502  2.2181 -0.6893 -0.6649
  539TIP3    H223033   0.063   6.396   5.613 -0.0346  1.9978  0.4371
  540TIP3   OH223034   2.464   3.741   5.826 -0.2473 -0.2521  0.0662
  540TIP3    H123035   2.459   3.751   5.731  0.9509 -0.4847 -0.0344
  540TIP3    H223036   2.415   3.816   5.860  1.5429  1.3953 -0.7488
  541TIP3   OH223037   4.134   5.254   5.022 -0.1629 -0.2009  0.7518
  541TIP3    H123038   4.109   5.313   5.092  1.2112 -0.6195  1.6228
  541TIP3    H223039   4.111   5.167   5.055  0.5626 -0.4060  0.7209
  542TIP3   OH223040   0.905   6.226   5.908  0.4389 -0.1206  0.6984
  542TIP3    H123041   0.868   6.314   5.905  1.0736  0.1790  1.3720
  542TIP3    H223042   0.994   6.239   5.940  0.9790 -0.8717 -0.4204
  543TIP3   OH223043   2.505   1.307  14.704  0.6050 -0.8924 -0.5778
  543TIP3    H123044   2.511   1.336  14.612  0.8389  1.2661  0.0624
  543TIP3    H223045   2.594   1.316  14.738  0.4436 -1.3272 -0.0251
  544TIP3   OH223046   0.785   2.227  13.572  0.0627  0.2883 -1.0469
  544TIP3    H123047   0.872   2.232  13.612 -0.6756 -0.4043  0.7741
  544TIP3    H223048   0.793   2.156  13.508  0.7770  0.0084 -0.6708
  545TIP3   OH223049   6.491   6.202   1.245 -0.4129  0.5741 -0.0965
  545TIP3    H123050   6.478   6.202   1.339  1.4352 -2.2875  0.2546
  545TIP3    H223051   6.581   6.232   1.233  0.3642 -1.8307 -0.6706
  546TIP3   OH223052   3.783   2.666   4.446 -0.3876  0.5178  0.0357
  546TIP3    H123053   3.742   2.611   4.513 -0.3337 -1.5170 -1.5109
  546TIP3    H223054   3.866   2.623   4.427 -0.3074  1.1674 -1.1847
  547TIP3   OH223055   5.932   1.664  15.068 -0.0215  0.1624 -0.5448
  547TIP3    H123056   6.022   1.658  15.036  0.6592  0.1072  1.2318
  547TIP3    H223057   5.896   1.742  15.026  0.3592 -0.5822 -2.3598
  548TIP3   OH223058   2.642   5.490   2.724  1.0297  0.6173  0.1282
  548TIP3    H123059   2.687   5.574   2.734 -0.4541  1.5492 -0.6187
  548TIP3    H223060   2.693   5.443   2.658  0.9409  1.6445 -0.7023
  549TIP3   OH223061   6.292   0.758  15.195 -0.4280  0.0888  0.2188
  549TIP3    H123062   6.223   0.802  15.145  0.8739  1.0253 -0.8311
  549TIP3    H223063   6.366   0.819  15.194  0.3126 -0.7144  1.6375
  550TIP3   OH223064   4.795   4.887  14.924 -0.1268 -0.0027 -0.3137
  550TIP3    H123065   4.702   4.892  14.942 -0.2391 -0.1980 -0.8349
  550TIP3    H223066   4.805   4.811  14.866  0.3551  0.0007 -0.2393
  551TIP3   OH223067   0.879   0.136   1.287  0.3323  0.4683  0.2633
  551TIP3    H123068   0.850   0.144   1.196 -0.6208 -0.5299  0.4646
  551TIP3    H223069   0.798   0.137   1.338  0.8440  0.6926  1.0857
  552TIP3   OH223070   0.128   2.440  13.795  0.1240 -0.3029 -0.6706
  552TIP3    H123071   0.133   2.534  13.780 -0.3899 -0.5469 -2.6250
  552TIP3    H223072   0.210   2.405  13.760  0.2211 -0.6134 -0.1448
  553TIP3   OH223073   4.386   5.882   5.102  0.0299  0.0993 -0.0246
  553TIP3    H123074   4.463   5.833   5.073  0.6130  1.9394 -1.8267
  553TIP3    H223075   4.312   5.826   5.080  0.6716 -0.0920 -1.8253
  554TIP3   OH223076   1.745   4.134  16.539 -0.5762 -0.2784 -0.2765
  554TIP3    H123077   1.770   4.050  16.499 -1.2040 -1.1331  1.0821
  554TIP3    H223078   1.669   4.162  16.488 -0.3721 -0.5242 -0.7317
  555TIP3   OH223079   6.253   6.745  11.928  0.4597 -0.0065  0.6043
  555TIP3    H123080   6.271   6.725  11.836 -2.4567  0.6721 -0.2067
  555TIP3    H223081   6.340   6.758  11.967  1.8519 -1.6327 -1.6957
  556TIP3   OH223082   4.265   6.688  11.658  0.0953  0.0609 -0.1014
  556TIP3    H123083   4.210   6.668  11.734 -2.5482 -0.3853 -1.9599
  556TIP3    H223084   4.307   6.605  11.636 -0.3183 -0.1894  0.0360
  557TIP3   OH223085   1.421   3.679   1.415 -0.2231  0.0107 -0.9478
  557TIP3    H123086   1.371   3.607   1.453 -0.4251  0.4195 -0.4283
  557TIP3    H223087   1.364   3.715   1.347  0.0293 -0.5483 -1.4669
  558TIP3   OH223088   0.291   0.194   3.413  0.3799  0.2357  0.1312
  558TIP3    H123089   0.343   0.273   3.396 -0.3848  0.7370  0.0966
  558TIP3    H223090   0.352   0.122   3.399  1.8745  0.8428  2.7618
  559TIP3   OH223091   1.539   3.372  14.548  0.2071  0.1210  0.0095
  559TIP3    H123092   1.584   3.448  14.584 -0.2006 -0.1390  1.0970
  559TIP3    H223093   1.446   3.394  14.555 -0.0467 -1.3552  2.4827
  560TIP3   OH223094   3.610   5.424  11.402  0.2160 -0.0330  0.5546
  560TIP3    H123095   3.576   5.343  11.441 -1.9570  0.7881  0.5091
  560TIP3    H223096   3.643   5.397  11.316  3.5926 -1.5695  2.1356
  561TIP3   OH223097   6.627   6.153   3.901  0.1265 -0.4866  0.0355
  561TIP3    H123098   6.704   6.207   3.883  0.9545 -1.3115  0.9228
  561TIP3    H223099   6.643   6.119   3.989 -0.2002 -2.4342 -0.6272
  562TIP3   OH223100   2.894   5.347  12.678  0.2742 -0.2803 -0.4542
  562TIP3    H123101   2.918   5.259  12.707  0.7830  0.1961  0.6201
  562TIP3    H223102   2.976   5.387  12.650  0.4288  0.5950  1.1454
  563TIP3   OH223103   4.412   3.268  15.432  0.2469 -0.0571 -0.8295
  563TIP3    H123104   4.437   3.328  15.362  0.6379 -0.7136 -1.2622
  563TIP3    H223105   4.400   3.324  15.509 -1.4039  0.8313 -1.6868
  564TIP3   OH223106   5.934   2.169   3.640  0.1896  0.5359 -0.0384
  564TIP3    H123107   5.934   2.183   3.735  1.6573  0.0226  0.0564
  564TIP3    H223108   5.850   2.206   3.611 -1.3316 -1.2741  1.7226
  565TIP3   OH223109   0.803   6.028  11.496  0.1343 -0.2669 -0.3480
  565TIP3    H123110   0.803   6.118  11.462  2.3263 -0.1108 -0.0869
  565TIP3    H223111   0.746   6.032  11.573  0.5707  1.0115 -0.0638
  566TIP3   OH223112   1.794   2.789  13.896  0.0319  0.0403  0.1552
  566TIP3    H123113   1.776   2.827  13.982  1.1343  0.3146  0.2737
  566TIP3    H223114   1.748   2.705  13.897 -1.2651  0.7198  0.4103
  567TIP3   OH223115   2.566   6.042  13.548 -0.2821 -0.0919  0.6240
  567TIP3    H123116   2.519   5.968  13.585 -1.5731  0.6653  0.5530
  567TIP3    H223117   2.617   6.078  13.621 -1.2694  0.1980  1.1833
  568TIP3   OH223118   6.127   0.233   4.393 -0.0063 -0.3648 -0.4860
  568TIP3    H123119   6.207   0.181   4.401  0.5249  0.4115 -0.5816
  568TIP3    H223120   6.144   0.311   4.447 -1.3068 -0.8893  0.7601
  569TIP3   OH223121   3.420   3.974  15.424 -0.1424  0.0674  0.2916
  569TIP3    H123122   3.352   3.909  15.404  0.9802 -2.0794  2.9924
  569TIP3    H223123   3.377   4.058  15.408 -2.7657 -1.2451 -0.0960
  570TIP3   OH223124   3.811   2.210  13.474 -0.4041 -0.2527 -0.0396
  570TIP3    H123125   3.838   2.288  13.426 -0.9672  0.1345  0.2704
  570TIP3    H223126   3.798   2.240  13.564 -0.9244 -0.6367  0.0155
  571TIP3   OH223127   0.138   5.775  12.039  0.4373 -0.0807 -0.4052
  571TIP3    H123128   0.078   5.701  12.031 -0.4821  0.7494 -1.5144
  571TIP3    H223129   0.122   5.809  12.127 -0.6275  0.0301 -0.6270
  572TIP3   OH223130   2.262   3.965  17.113  0.4098 -0.0356  0.1911
  572TIP3    H123131   2.194   3.901  17.089 -0.2839  1.1532 -1.1245
  572TIP3    H223132   2.300   3.993  17.030  1.7477  0.1683  0.8463
  573TIP3   OH223133   1.846   6.198   2.262 -0.6276 -0.5559  0.2587
  573TIP3    H123134   1.754   6.224   2.275 -0.3569  0.5307  0.0996
  573TIP3    H223135   1.847   6.159   2.174 -0.6872  0.7650 -0.3629
  574TIP3   OH223136   2.668   3.566   2.657  0.3564 -0.5913  0.1162
  574TIP3    H123137   2.662   3.568   2.562  3.0568 -1.6239 -0.1634
  574TIP3    H223138   2.605   3.500   2.684  0.0351 -0.7634 -1.0255
  575TIP3   OH223139   2.232   5.698  12.019  0.2328 -0.2499  0.0252
  575TIP3    H123140   2.150   5.719  11.973 -0.4899  0.7651  1.6711
  575TIP3    H223141   2.235   5.761  12.091  2.6536 -0.0584 -0.1802
  576TIP3   OH223142   5.945   2.268  16.028 -0.3790  0.1492  0.2028
  576TIP3    H123143   5.947   2.263  16.124 -1.0598  0.0552  0.2169
  576TIP3    H223144   6.017   2.327  16.006 -0.5051  0.5394  0.8010
  577TIP3   OH223145   0.492   2.902  17.036 -0.3491  0.3147  0.4344
  577TIP3    H123146   0.547   2.928  17.111 -1.0135 -0.0537  1.0530
  577TIP3    H223147   0.455   2.818  17.061 -0.6420  0.2243 -0.2872
  578TIP3   OH223148   3.173   3.126  16.323 -0.0405  0.0065  0.3190
  578TIP3    H123149   3.222   3.081  16.391  0.9439 -0.3827 -0.6237
  578TIP3    H223150   3.200   3.218  16.331 -0.4482  0.0835  0.8807
  579TIP3   OH223151   6.013   0.981   2.032 -0.0503 -0.2461  0.0298
  579TIP3    H123152   5.919   0.968   2.020 -0.1654  0.9930 -0.6082
  579TIP3    H223153   6.050   0.893   2.024 -1.0784 -0.6584 -0.4687
  580TIP3   OH223154   0.686   4.474  17.234  0.2677  0.2350  0.2289
  580TIP3    H123155   0.759   4.441  17.181  0.4745  1.3978 -0.2585
  580TIP3    H223156   0.616   4.491  17.172 -0.2716 -0.4519  0.6378
  581TIP3   OH223157   1.722   4.583  14.328  0.1262  0.2575  0.3831
  581TIP3    H123158   1.643   4.618  14.369  0.1798 -0.8164  1.4787
  581TIP3    H223159   1.749   4.512  14.386  0.3643 -1.1858 -1.3998
  582TIP3   OH223160   2.549   1.606   6.314  0.2852 -0.6140 -0.1667
  582TIP3    H123161   2.591   1.689   6.290  0.9789 -0.6163  0.9626
  582TIP3    H223162   2.616   1.558   6.363  0.0705 -2.0785 -1.2233
  583TIP3   OH223163   3.585   2.797  13.732 -0.2215 -0.3363 -0.5812
  583TIP3    H123164   3.531   2.844  13.668  1.4697  1.0405 -1.0835
  583TIP3    H223165   3.664   2.774  13.683  1.5683  1.6412  1.1768
  584TIP3   OH223166   3.675   3.695   6.198 -0.1378  0.2399  0.3305
  584TIP3    H123167   3.680   3.640   6.276 -1.4173 -0.1622  0.1624
  584TIP3    H223168   3.607   3.760   6.218 -0.1047  0.4615 -0.2479
  585TIP3   OH223169   1.157   4.340   1.603 -0.4825  0.1837  0.3393
  585TIP3    H123170   1.084   4.284   1.575 -1.4800  0.6859  1.7982
  585TIP3    H223171   1.118   4.426   1.615  0.5065  0.6216  0.5186
  586TIP3   OH223172   3.384   6.576   5.372  0.4905 -0.1127  0.3129
  586TIP3    H123173   3.437   6.541   5.444  0.2863 -1.0490  0.0262
  586TIP3    H223174   3.381   6.670   5.387  1.3069 -0.1826  0.9557
  587TIP3   OH223175   4.885   4.164   4.922  0.5150 -0.0007 -0.1790
  587TIP3    H123176   4.887   4.192   4.830 -1.1262 -0.3083 -0.3397
  587TIP3    H223177   4.796   4.182   4.951  0.8182 -0.5133  1.1723
  588TIP3   OH223178   5.049   5.594  16.709 -0.9390  0.9483 -0.0160
  588TIP3    H123179   5.010   5.657  16.770 -0.4996  0.9960  0.2249
  588TIP3    H223180   5.086   5.649  16.640 -2.9437  0.8153 -1.2545
  589TIP3   OH223181   0.138   1.576   5.355 -0.3433  0.3359  0.7359
  589TIP3    H123182   0.061   1.633   5.347 -1.2209 -0.9607 -0.2936
  589TIP3    H223183   0.103   1.489   5.373  0.9782  0.0247  2.0950
  590TIP3   OH223184   0.740   5.134   1.797  0.3747  0.4713 -0.0683
  590TIP3    H123185   0.699   5.156   1.881  1.3043  0.1117  0.4913
  590TIP3    H223186   0.827   5.102   1.820  0.0179 -1.3458 -1.0337
  591TIP3   OH223187   2.052   1.054   1.857 -0.4789  0.4685 -0.3558
  591TIP3    H123188   1.957   1.039   1.854 -0.5446  1.0241 -1.4260
  591TIP3    H223189   2.080   1.014   1.940 -1.5506 -0.2286 -0.3101
  592TIP3   OH223190   6.318   3.670   0.377  0.2268 -0.1285 -0.5777
  592TIP3    H123191   6.357   3.604   0.435  0.7137 -1.2327 -2.0937
  592TIP3    H223192   6.286   3.737   0.436 -0.8060 -1.9717  1.0823
  593TIP3   OH223193   1.778   3.621   2.011 -0.0254 -0.3933  0.0931
  593TIP3    H123194   1.860   3.615   2.060  0.7329 -0.3589 -1.1388
  593TIP3    H223195   1.713   3.643   2.077  0.7216 -1.6844  1.3112
  594TIP3   OH223196   1.114   1.921   5.365 -0.3399 -0.7668  0.2262
  594TIP3    H123197   1.139   1.830   5.378 -0.7241 -0.7598  1.0306
  594TIP3    H223198   1.189   1.971   5.398 -1.1151 -0.7584  2.0839
  595TIP3   OH223199   5.422   1.938   2.572  0.3656  0.7373  0.0981
  595TIP3    H123200   5.403   1.990   2.494  0.1724  0.2396 -0.1931
  595TIP3    H223201   5.372   1.980   2.642  2.0629  2.3676  0.4023
  596TIP3   OH223202   2.381   3.081   3.521 -0.6048 -0.2645 -0.6738
  596TIP3    H123203   2.359   2.989   3.536  3.2322 -1.0401  1.3405
  596TIP3    H223204   2.337   3.128   3.592 -1.3657 -0.7039 -0.8368
  597TIP3   OH223205   2.369   2.497   2.558 -0.7434  0.0609  0.0646
  597TIP3    H123206   2.366   2.582   2.601 -1.4652 -0.9604  2.1391
  597TIP3    H223207   2.416   2.440   2.619 -1.1560 -1.2834 -0.8267
  598TIP3   OH223208   2.660   6.318  17.000  0.2990  0.2393  0.5554
  598TIP3    H123209   2.629   6.312  16.910  0.5417  0.5436  0.4504
  598TIP3    H223210   2.596   6.267  17.051 -0.0744  0.4246  0.2718
  599TIP3   OH223211   3.259   6.556  13.259 -0.3030  0.3333 -0.6170
  599TIP3    H123212   3.168   6.534  13.239 -0.1446  0.3653 -1.4264
  599TIP3    H223213   3.290   6.602  13.181  0.2355  0.8551 -0.1105
  600TIP3   OH223214   1.903   4.834   6.362  0.2465  0.2768  0.2970
  600TIP3    H123215   1.927   4.801   6.448  0.1933 -0.4151  0.0572
  600TIP3    H223216   1.809   4.816   6.355  0.4086 -0.4163 -0.2155
  601TIP3   OH223217   0.893   0.322  11.793 -0.1724 -0.2556  0.6399
  601TIP3    H123218   0.959   0.389  11.807  0.5574 -1.2610  2.3355
  601TIP3    H223219   0.929   0.267  11.724 -0.5454  0.7742 -0.4008
  602TIP3   OH223220   6.221   5.193   3.177  0.7532 -0.0699  0.7135
  602TIP3    H123221   6.160   5.133   3.134  0.1693 -0.9059  2.6206
  602TIP3    H223222   6.265   5.238   3.105 -0.1158 -1.4595 -0.7414
  603TIP3   OH223223   2.575   0.527  12.654  0.2793 -0.2202  0.4123
  603TIP3    H123224   2.637   0.461  12.684  1.5110 -0.0780 -1.6125
  603TIP3    H223225   2.554   0.502  12.565 -0.5209  1.2006  0.1664
  604TIP3   OH223226   1.957   3.251   3.921  0.1373 -0.0107 -0.2642
  604TIP3    H123227   2.030   3.217   3.869 -1.3446 -2.2990 -1.0046
  604TIP3    H223228   1.883   3.253   3.860 -0.4190  2.5781  0.3772
  605TIP3   OH223229   0.787   0.319   2.652 -0.2895 -0.1631 -0.5200
  605TIP3    H123230   0.785   0.368   2.570 -0.0998 -0.4707 -0.7133
  605TIP3    H223231   0.852   0.250   2.637  0.6081  0.4732  0.2883
  606TIP3   OH223232   5.301   3.684   6.453 -0.4519  0.1951 -0.0937
  606TIP3    H123233   5.355   3.636   6.515 -0.6137  0.4156  0.2219
  606TIP3    H223234   5.345   3.768   6.443 -0.9106  0.5147  0.4391
  607TIP3   OH223235   6.541   4.181  16.761  0.7688 -0.9005  0.7708
  607TIP3    H123236   6.610   4.146  16.817  0.1957 -0.7245  1.5992
  607TIP3    H223237   6.460   4.166  16.810  0.1521 -1.5714 -0.4127
  608TIP3   OH223238   2.815   3.801  14.664 -0.4306 -0.4550 -0.5374
  608TIP3    H123239   2.865   3.760  14.593 -1.4107  0.3793 -1.7385
  608TIP3    H223240   2.763   3.729  14.701 -0.2261 -0.8145 -0.9340
  609TIP3   OH223241   3.385   2.230  10.928  0.4258  0.7893  0.3638
  609TIP3    H123242   3.398   2.187  10.843 -0.0656  1.0297  0.1626
  609TIP3    H223243   3.453   2.297  10.931 -0.0956  1.3643 -0.2341
  610TIP3   OH223244   5.020   4.848   5.521  0.0831 -0.0904 -0.7340
  610TIP3    H123245   5.041   4.910   5.590 -2.5524 -1.9072  1.9423
  610TIP3    H223246   4.958   4.895   5.465 -0.0723  0.4379 -0.1287
  611TIP3   OH223247   0.681   0.322   3.833  0.1892 -0.6219  0.3112
  611TIP3    H123248   0.703   0.395   3.776  2.2453 -0.9087  0.6675
  611TIP3    H223249   0.721   0.246   3.792 -0.4988 -1.2746  0.8138
  612TIP3   OH223250   4.629   6.528   1.253 -0.2738 -0.1523  0.4809
  612TIP3    H123251   4.712   6.508   1.210  0.1722  0.1346  1.1828
  612TIP3    H223252   4.609   6.618   1.229  0.7966  0.5679  2.1122
  613TIP3   OH223253   3.261   6.629  12.004 -0.1835  0.6542 -0.3864
  613TIP3    H123254   3.250   6.561  12.070 -1.3265  0.7516 -0.4661
  613TIP3    H223255   3.196   6.608  11.937  0.2569  1.1564 -0.9808
  614TIP3   OH223256   6.162   0.030   5.701  0.4937 -0.2946  0.1692
  614TIP3    H123257   6.201   0.096   5.644 -1.2609 -0.0666 -0.8018
  614TIP3    H223258   6.070   0.027   5.677 -0.3993 -0.0374  3.1344
  615TIP3   OH223259   0.653   5.677  15.760 -0.0239 -0.0714  0.0272
  615TIP3    H123260   0.682   5.673  15.851  0.0119 -0.6205 -0.0036
  615TIP3    H223261   0.558   5.686  15.764 -0.0412 -0.2936  0.1191
  616TIP3   OH223262   4.195   4.372  14.809 -0.5476  0.0263 -0.6078
  616TIP3    H123263   4.190   4.297  14.750 -0.0859  0.3031 -1.0051
  616TIP3    H223264   4.158   4.444  14.759 -0.8006  0.1124 -0.2996
  617TIP3   OH223265   1.587   6.567  16.983  0.8354 -0.2409 -0.3079
  617TIP3    H123266   1.606   6.660  16.968 -0.6083 -0.0330 -1.0506
  617TIP3    H223267   1.663   6.521  16.945  1.3546  0.6144 -0.3339
  618TIP3   OH223268   0.617   3.744   4.693  0.0415 -0.3725  0.2742
  618TIP3    H123269   0.601   3.727   4.786 -2.6377  0.5242  0.0524
  618TIP3    H223270   0.606   3.659   4.650 -0.0020 -0.5497  0.6337
  619TIP3   OH223271   5.349   4.031  11.561 -0.1227  0.1096  0.5282
  619TIP3    H123272   5.368   4.018  11.654  1.0177  0.6463  0.3829
  619TIP3    H223273   5.285   4.103  11.560  1.0825  1.2224  0.8381
  620TIP3   OH223274   6.659   0.517   4.430 -0.6385  0.3562 -0.3415
  620TIP3    H123275   6.684   0.589   4.372  1.4492 -0.4365 -0.5091
  620TIP3    H223276   6.721   0.447   4.410 -0.5481 -0.3470  2.0808
  621TIP3   OH223277   0.394   2.895  15.233  0.0362 -0.0608 -0.7456
  621TIP3    H123278   0.368   2.986  15.249  0.4253  0.9097 -4.7068
  621TIP3    H223279   0.314   2.845  15.251 -0.3895  1.0827  0.8247
  622TIP3   OH223280   1.254   5.060  17.220  0.0130 -0.4328 -0.1645
  622TIP3    H123281   1.193   5.130  17.195  1.1328  1.3965  1.8533
  622TIP3    H223282   1.332   5.076  17.167  1.4662  1.9511  2.4189
  623TIP3   OH223283   6.588   2.300   3.851  0.9713 -0.0315  0.1648
  623TIP3    H123284   6.605   2.207   3.833  0.2772  0.0113 -0.8085
  623TIP3    H223285   6.500   2.301   3.889  0.6928  0.2818 -0.4723
  624TIP3   OH223286   5.431   0.385   0.904  0.2458  0.0367  0.3887
  624TIP3    H123287   5.448   0.292   0.888  0.9222  0.2692 -0.3361
  624TIP3    H223288   5.517   0.421   0.927  0.1711  0.6550 -0.2547
  625TIP3   OH223289   2.784   3.598  12.207  0.2877 -0.3978 -0.3183
  625TIP3    H123290   2.831   3.519  12.178  0.0154 -0.6429 -0.0946
  625TIP3    H223291   2.750   3.636  12.125  0.2204 -0.6412 -0.4053
  626TIP3   OH223292   1.626   1.275   5.651  0.0970  0.2283 -0.1920
  626TIP3    H123293   1.548   1.324   5.677  1.3569  2.4327 -0.3081
  626TIP3    H223294   1.650   1.225   5.728  1.2393  3.2292  1.5398
  627TIP3   OH223295   6.433   0.702   5.367  0.4030 -0.5384 -0.7335
  627TIP3    H123296   6.415   0.783   5.415  0.6071 -0.7726 -0.2557
  627TIP3    H223297   6.518   0.674   5.399 -0.8507 -2.4261  1.1773
  628TIP3   OH223298   4.634   1.867   4.633  0.0409  0.5744  0.6047
  628TIP3    H123299   4.662   1.944   4.682 -2.4061  2.2653 -0.4873
  628TIP3    H223300   4.545   1.849   4.665  0.1287 -1.0927  0.0111
  629TIP3   OH223301   2.292   6.078   0.839  0.1707 -0.1752 -0.0492
  629TIP3    H123302   2.326   6.153   0.887  0.6971 -0.5203  0.1282
  629TIP3    H223303   2.205   6.062   0.877  1.0826 -1.2366  1.6999
  630TIP3   OH223304   0.434   2.910   3.033 -0.0724 -0.0805  0.1663
  630TIP3    H123305   0.351   2.952   3.056  0.6555  1.1171  0.6393
  630TIP3    H223306   0.428   2.823   3.072 -0.8190  0.2362  0.7797
  631TIP3   OH223307   2.402   1.486  16.426 -0.0960  0.0880 -0.2420
  631TIP3    H123308   2.407   1.543  16.503  0.1338 -0.6343  0.2938
  631TIP3    H223309   2.428   1.542  16.353 -0.9556  0.9606  0.1023
  632TIP3   OH223310   2.537   6.156  15.908 -0.1480 -0.0976  0.2319
  632TIP3    H123311   2.623   6.191  15.929 -0.5926  0.8379  0.5623
  632TIP3    H223312   2.484   6.233  15.887 -0.9287 -0.6457  0.1222
  633TIP3   OH223313   2.998   4.998   2.479 -0.2948 -0.9162  0.0333
  633TIP3    H123314   3.067   5.026   2.419 -0.0091  0.8164  1.1192
  633TIP3    H223315   3.041   4.990   2.564 -1.3893  0.2295  0.7333
  634TIP3   OH223316   2.984   4.072  16.047 -0.2898  0.1663  0.7507
  634TIP3    H123317   2.905   4.023  16.021  0.5515 -0.0305 -1.7357
  634TIP3    H223318   2.981   4.151  15.993  1.1992  0.1460  0.6099
  635TIP3   OH223319   0.769   2.180   5.743  0.1215  0.6221 -0.0124
  635TIP3    H123320   0.680   2.214   5.739 -0.3728 -0.5254  0.7798
  635TIP3    H223321   0.763   2.091   5.709  0.3589 -0.5346  2.7319
  636TIP3   OH223322   1.742   3.181  15.451  0.5349 -0.6155  0.1216
  636TIP3    H123323   1.741   3.102  15.505  2.6066 -1.0161 -0.3545
  636TIP3    H223324   1.757   3.252  15.513 -0.6151 -0.6372  0.4589
  637TIP3   OH223325   3.782   5.986  16.506 -0.3872 -0.4505 -0.5224
  637TIP3    H123326   3.777   5.996  16.411  2.3063  0.9512 -0.6028
  637TIP3    H223327   3.873   5.964  16.523 -0.5393  0.4707  1.8334
  638TIP3   OH223328   2.878   0.235   5.136  0.3246 -0.2632  0.4202
  638TIP3    H123329   2.969   0.219   5.112 -0.1462 -0.2848 -1.4704
  638TIP3    H223330   2.877   0.325   5.170  1.2578 -0.7326  1.7769
  639TIP3   OH223331   1.915   2.759  15.364  0.2006 -0.4153  0.6903
  639TIP3    H123332   1.842   2.781  15.305  1.2942  0.1311 -0.5122
  639TIP3    H223333   1.877   2.765  15.452 -0.8660  1.2667  0.1720
  640TIP3   OH223334   2.053   6.455   3.807  0.0095  0.2790  0.4287
  640TIP3    H123335   2.117   6.522   3.780 -0.2008  0.5218  0.5249
  640TIP3    H223336   2.064   6.450   3.902 -1.3001  1.5711  0.6815
  641TIP3   OH223337   2.628   4.544  13.188  0.1328  0.1872 -0.0060
  641TIP3    H123338   2.553   4.601  13.172  0.9339  0.8538 -1.5690
  641TIP3    H223339   2.636   4.540  13.283 -1.9800 -0.0538  0.2045
  642TIP3   OH223340   1.315   4.352  15.743  0.1676  0.2571  0.5670
  642TIP3    H123341   1.394   4.299  15.753  1.0118  1.5110  0.7201
  642TIP3    H223342   1.341   4.424  15.685 -0.1730  2.0323  2.5237
  643TIP3   OH223343   4.720   4.766   0.369 -0.5936  0.3995 -0.2653
  643TIP3    H123344   4.652   4.710   0.334  0.5902 -0.1692 -1.7820
  643TIP3    H223345   4.796   4.709   0.379  0.5443  1.6274 -1.5376
  644TIP3   OH223346   0.634   2.804   2.108 -0.0062 -0.5906  0.4376
  644TIP3    H123347   0.701   2.773   2.047 -0.6330  2.7613 -2.2981
  644TIP3    H223348   0.552   2.775   2.069 -0.3848  1.1942 -0.2230
  645TIP3   OH223349   0.232   6.105   3.716  0.1357 -0.2530  0.0056
  645TIP3    H123350   0.218   6.094   3.622  2.3704 -1.1201 -0.2849
  645TIP3    H223351   0.167   6.048   3.757 -0.7380 -0.0167 -1.0033
  646TIP3   OH223352   4.490   5.693  14.588 -0.3371  0.0979 -0.1339
  646TIP3    H123353   4.532   5.709  14.672  1.3060 -0.6163 -0.7730
  646TIP3    H223354   4.436   5.615  14.602 -0.5685  0.3475  0.3967
  647TIP3   OH223355   5.894   3.208   5.631  0.2274 -0.2257  0.0382
  647TIP3    H123356   5.852   3.292   5.652 -1.4054 -1.0261  0.1680
  647TIP3    H223357   5.835   3.167   5.567 -1.2125 -2.9117  2.7872
  648TIP3   OH223358   2.334   5.966   3.970  0.7071  0.1385 -0.5991
  648TIP3    H123359   2.288   5.902   4.024  0.0281 -0.8247 -2.2649
  648TIP3    H223360   2.276   6.042   3.967  1.3165  0.7254  1.0098
  649TIP3   OH223361   6.082   0.838   1.476 -0.2821 -0.0002 -0.1697
  649TIP3    H123362   6.158   0.780   1.476 -0.6993 -0.6839  2.5757
  649TIP3    H223363   6.117   0.923   1.503 -0.3175 -0.0736  0.1156
  650TIP3   OH223364   1.771   4.659   3.733  0.3196  0.4795  0.1075
  650TIP3    H123365   1.676   4.662   3.739  0.3750  0.7916  1.0297
  650TIP3    H223366   1.801   4.648   3.823  1.2115  2.5235  0.1205
  651TIP3   OH223367   2.743   6.024   5.424  0.1337  0.0821  0.1038
  651TIP3    H123368   2.718   6.081   5.497  1.4794  0.4814  0.2841
  651TIP3    H223369   2.699   6.062   5.349 -2.3271 -1.0871  0.8638
  652TIP3   OH223370   0.369   0.059   1.546 -0.0065  0.1432  0.3005
  652TIP3    H123371   0.455   0.045   1.506 -0.1746  0.2739 -0.1086
  652TIP3    H223372   0.337  -0.029   1.567 -0.1110  0.0462 -0.2593
  653TIP3   OH223373   0.983   6.519  14.863 -0.4771  0.2783 -0.8727
  653TIP3    H123374   1.068   6.526  14.907 -0.5797  0.2852 -0.6722
  653TIP3    H223375   0.970   6.605  14.822 -0.5339  0.3842 -0.6330
  654TIP3   OH223376   2.127   1.129   0.859  0.0771  0.0659  0.0329
  654TIP3    H123377   2.106   1.168   0.774 -0.0767  0.0142  0.0456
  654TIP3    H223378   2.204   1.076   0.843  0.7611  0.9872  0.1871
  655TIP3   OH223379   6.259   3.615  14.860 -0.3126 -0.0843 -0.3031
  655TIP3    H123380   6.206   3.695  14.852  1.7724  1.4562  0.4019
  655TIP3    H223381   6.198   3.544  14.837 -2.1018  1.7154 -1.5602
  656TIP3   OH223382   1.449   0.431   5.901 -0.0396 -0.5024 -0.0421
  656TIP3    H123383   1.518   0.368   5.878 -1.4658 -1.6845 -1.2967
  656TIP3    H223384   1.402   0.389   5.974 -0.8076 -0.7850 -0.6838
  657TIP3   OH223385   1.307   1.439   4.247 -0.2565  0.1592  0.3670
  657TIP3    H123386   1.333   1.349   4.265 -1.7120 -0.2475  0.5634
  657TIP3    H223387   1.339   1.456   4.158  2.4139  0.4165  1.2894
  658TIP3   OH223388   1.675   3.082   0.062 -0.5656  0.5872  0.2592
  658TIP3    H123389   1.593   3.126   0.041 -1.8685 -0.7509  2.2933
  658TIP3    H223390   1.651   3.010   0.119  1.9587 -0.3243  0.3173
  659TIP3   OH223391   4.440   2.685   3.155 -0.0460 -0.3370 -0.2792
  659TIP3    H123392   4.476   2.724   3.075  2.2659  0.2278  0.9497
  659TIP3    H223393   4.345   2.693   3.144  0.2112  3.1979 -1.3445
  660TIP3   OH223394   6.358   2.512  11.545  0.1617 -0.0341 -0.0500
  660TIP3    H123395   6.359   2.603  11.575 -0.6736 -0.2785  0.7565
  660TIP3    H223396   6.268   2.495  11.519  0.4366 -0.4602 -0.7468
  661TIP3   OH223397   1.520   6.447  17.233  0.0902 -0.3657  0.0201
  661TIP3    H123398   1.594   6.473  17.288  0.9895 -1.1812 -0.7599
  661TIP3    H223399   1.532   6.495  17.151 -1.6071  1.3566  0.7153
  662TIP3   OH223400   4.377   3.446  14.812 -0.3435 -0.0264  0.7607
  662TIP3    H123401   4.371   3.383  14.740  1.0666 -0.9492  1.4007
  662TIP3    H223402   4.353   3.396  14.890 -0.5194  0.5995  1.1133
  663TIP3   OH223403   5.788   2.033  11.154  0.4593  0.2488 -0.6393
  663TIP3    H123404   5.767   1.990  11.237 -1.1683 -0.4085 -1.3631
  663TIP3    H223405   5.743   1.981  11.087  0.5311  1.6087 -1.7990
  664TIP3   OH223406   3.954   4.874  14.021 -0.3713 -0.1767 -0.0203
  664TIP3    H123407   3.961   4.959  14.065 -0.7761  0.8375 -1.8246
  664TIP3    H223408   3.870   4.838  14.051 -1.0562  0.8945 -0.6109
  665TIP3   OH223409   3.784   0.825   2.693 -0.1019 -0.1104 -0.4639
  665TIP3    H123410   3.795   0.771   2.615 -0.0086 -0.6824 -0.0600
  665TIP3    H223411   3.839   0.784   2.759  0.9523  1.1905 -0.4785
  666TIP3   OH223412   4.777   4.398  13.520  0.3404  0.7375  0.0210
  666TIP3    H123413   4.870   4.420  13.516 -0.0438  2.5917  0.1249
  666TIP3    H223414   4.751   4.387  13.429  0.5193  0.8653 -0.0451
  667TIP3   OH223415   1.190   4.466   5.155  0.2659 -0.1298 -1.0857
  667TIP3    H123416   1.230   4.525   5.219 -1.3959  0.4609 -0.5516
  667TIP3    H223417   1.151   4.525   5.090 -0.3542 -0.6613 -1.2023
  668TIP3   OH223418   1.988   6.316  13.048 -0.1967 -0.5979 -0.2447
  668TIP3    H123419   1.998   6.284  13.137 -1.1056  0.3018  0.2096
  668TIP3    H223420   2.077   6.327  13.015  0.1963  0.5653  1.1220
  669TIP3   OH223421   3.278   4.003  16.517 -0.4585 -0.3190 -0.4666
  669TIP3    H123422   3.318   4.082  16.552  0.8130 -1.7866  1.5521
  669TIP3    H223423   3.319   3.992  16.431  0.6714  0.2462 -0.0239
  670TIP3   OH223424   2.560   4.696   2.337 -0.0254  0.4826 -0.0140
  670TIP3    H123425   2.636   4.751   2.353  1.5162 -1.5732  0.1678
  670TIP3    H223426   2.536   4.663   2.424  0.3406 -0.6743 -0.3367
  671TIP3   OH223427   3.612   5.555   0.967 -0.2722 -0.0500 -0.7266
  671TIP3    H123428   3.638   5.470   0.932  1.8425  0.9417 -1.7720
  671TIP3    H223429   3.528   5.573   0.926 -2.2484 -2.7773  1.6574
  672TIP3   OH223430   3.354   0.459  15.836 -0.1631 -0.1281  0.1342
  672TIP3    H123431   3.390   0.421  15.757 -1.0094 -1.4048  0.3330
  672TIP3    H223432   3.334   0.550  15.812 -2.2608 -1.0089 -1.7748
  673TIP3   OH223433   1.786   4.916  12.956  0.3951 -0.3278 -0.0094
  673TIP3    H123434   1.700   4.910  12.999  0.4579 -0.3499  0.1145
  673TIP3    H223435   1.835   4.842  12.991  1.1999  0.8908  1.5698
  674TIP3   OH223436   5.905   1.470  10.920  0.4012 -0.0576 -0.8069
  674TIP3    H123437   5.867   1.383  10.936  0.4293  0.1353  0.3749
  674TIP3    H223438   5.999   1.455  10.916  0.3635 -0.1841 -1.3942
  675TIP3   OH223439   3.335   5.302  11.889 -0.0176  0.1290  0.1990
  675TIP3    H123440   3.362   5.274  11.976 -0.9295  0.1730  0.4949
  675TIP3    H223441   3.408   5.356  11.858  1.6024 -2.1265 -0.2120
  676TIP3   OH223442   2.362   1.420  14.980  0.7152  0.1644 -0.7623
  676TIP3    H123443   2.317   1.408  14.897  2.4324 -1.6142 -1.5148
  676TIP3    H223444   2.438   1.474  14.959  1.8830 -1.3791 -0.6837
  677TIP3   OH223445   2.554   4.691  12.555  0.0929 -0.2516  0.4186
  677TIP3    H123446   2.524   4.662  12.641 -1.9101  0.3631 -0.0204
  677TIP3    H223447   2.586   4.611  12.513 -0.5108 -0.8630  1.0982
  678TIP3   OH223448   2.248   5.363  11.590  0.6992  0.1254 -0.5126
  678TIP3    H123449   2.274   5.403  11.507  0.3874 -0.7153 -1.0355
  678TIP3    H223450   2.327   5.365  11.644  0.2182  3.2962  0.2923
  679TIP3   OH223451   5.133   0.938   3.290  0.0637  0.5748 -0.1095
  679TIP3    H123452   5.085   0.861   3.257 -1.1283  0.6191  1.3932
  679TIP3    H223453   5.139   0.996   3.214  1.7671 -1.3158 -1.5366
  680TIP3   OH223454   6.636   4.679   1.632  0.6812  0.2447 -0.9318
  680TIP3    H123455   6.590   4.739   1.690  1.2928  1.0401 -1.2521
  680TIP3    H223456   6.709   4.647   1.685  1.0400  0.7048 -1.1421
  681TIP3   OH223457   1.230   5.630   6.400 -0.0491 -0.2543 -0.3912
  681TIP3    H123458   1.231   5.695   6.329 -1.0454 -0.0833 -0.2569
  681TIP3    H223459   1.314   5.585   6.391 -0.0675 -0.1020 -1.5607
  682TIP3   OH223460   4.899   3.675   3.798 -0.3667  0.0499 -1.1132
  682TIP3    H123461   4.861   3.595   3.760  0.5649 -0.9605 -0.0019
  682TIP3    H223462   4.993   3.661   3.791 -0.1793  0.3646  0.4541
  683TIP3   OH223463   5.698   3.474  13.207 -0.3290 -0.2120  0.4556
  683TIP3    H123464   5.757   3.401  13.186  1.6093  1.4492 -0.2455
  683TIP3    H223465   5.623   3.461  13.149  0.8935 -0.5976 -1.1272
  684TIP3   OH223466   4.619   4.551   3.268 -0.0706  0.6995  0.2590
  684TIP3    H123467   4.539   4.594   3.238 -0.3117 -0.1931 -0.4040
  684TIP3    H223468   4.687   4.618   3.259 -0.7761  1.5826  1.1474
  685TIP3   OH223469   4.243   2.304  15.827  0.4599  0.3645  0.2609
  685TIP3    H123470   4.322   2.358  15.817  1.2465 -0.6719  0.6436
  685TIP3    H223471   4.179   2.363  15.865  0.7765  1.4578 -0.8217
  686TIP3   OH223472   1.504   3.698  14.654  0.9110  0.4423 -0.4424
  686TIP3    H123473   1.429   3.680  14.598  0.5807  0.1954  0.0756
  686TIP3    H223474   1.577   3.649  14.615  0.6214  0.0627 -0.5040
  687TIP3   OH223475   0.853   0.913   1.999  0.4628  0.3275  0.1313
  687TIP3    H123476   0.917   0.934   1.930  0.7572 -2.5499 -0.5884
  687TIP3    H223477   0.905   0.868   2.066  0.1695  3.0173  2.3415
  688TIP3   OH223478   4.464   0.664  16.666 -0.1256 -0.6366 -0.4056
  688TIP3    H123479   4.516   0.636  16.741  0.1413 -0.6823 -0.6038
  688TIP3    H223480   4.517   0.639  16.590  0.8907  1.7644 -0.6073
  689TIP3   OH223481   3.305   2.385  15.479 -0.0288 -0.1412  0.1923
  689TIP3    H123482   3.366   2.344  15.419  0.3555  1.6610 -0.7367
  689TIP3    H223483   3.358   2.410  15.555 -0.3394 -1.6249  0.9341
  690TIP3   OH223484   5.710   2.734   6.226 -0.5921 -0.0460 -0.2900
  690TIP3    H123485   5.623   2.747   6.265 -0.8546  0.6766 -1.0645
  690TIP3    H223486   5.754   2.672   6.284 -1.9083 -1.0446 -0.2918
  691TIP3   OH223487   4.633   5.087  14.054 -0.7114  0.5083  0.5130
  691TIP3    H123488   4.554   5.121  14.096 -0.8184  0.4644  0.3448
  691TIP3    H223489   4.694   5.160  14.055 -0.0654  0.0033  2.3926
  692TIP3   OH223490   4.079   4.821  12.939 -0.0484  0.0450  0.2951
  692TIP3    H123491   3.989   4.806  12.967 -1.0824  1.8284 -1.8232
  692TIP3    H223492   4.075   4.823  12.844  2.6787 -2.0862 -0.0129
  693TIP3   OH223493   3.282   1.002  12.780 -0.4071 -0.3741 -0.2041
  693TIP3    H123494   3.238   0.919  12.799  1.1637 -0.7915  2.0124
  693TIP3    H223495   3.331   0.985  12.700 -0.6029 -1.3905 -0.1272
  694TIP3   OH223496   6.483   1.909  13.739 -0.1450 -0.4791 -0.2692
  694TIP3    H123497   6.437   1.968  13.799  1.3268  0.2865  0.1468
  694TIP3    H223498   6.546   1.863  13.795  0.2757 -0.7952 -0.9956
  695TIP3   OH223499   5.526   4.369  15.860 -1.0044 -0.0729 -0.0232
  695TIP3    H123500   5.464   4.409  15.799 -1.6305  1.4250  1.5189
  695TIP3    H223501   5.611   4.406  15.835 -1.3839  1.2274  0.5357
  696TIP3   OH223502   6.447   2.326   0.910  0.3528  0.0492  0.0309
  696TIP3    H123503   6.489   2.389   0.852 -1.2477  1.0462 -0.1095
  696TIP3    H223504   6.490   2.243   0.891 -0.2139  0.3056 -2.7243
  697TIP3   OH223505   1.944   1.159  12.806 -0.3103 -0.2254 -0.4136
  697TIP3    H123506   1.965   1.077  12.761 -0.4272 -0.1405 -0.6294
  697TIP3    H223507   1.897   1.132  12.885  1.9536 -0.5053  0.9281
  698TIP3   OH223508   4.760   3.124  11.294  0.0486  0.0951  0.0389
  698TIP3    H123509   4.747   3.062  11.366 -1.3242 -0.5196 -0.7065
  698TIP3    H223510   4.780   3.069  11.218  1.1630  0.7226 -0.1388
  699TIP3   OH223511   4.039   0.773   4.607 -0.0247 -0.3970 -0.7329
  699TIP3    H123512   3.950   0.808   4.604  0.0024 -0.3788 -2.1975
  699TIP3    H223513   4.035   0.704   4.673 -1.2450 -0.6806 -1.0727
  700TIP3   OH223514   1.149   0.259  16.192  0.2357 -0.1966 -0.0886
  700TIP3    H123515   1.187   0.185  16.240 -1.5216 -0.5865  0.7915
  700TIP3    H223516   1.126   0.322  16.261  0.5414  0.6201 -0.7210
  701TIP3   OH223517   4.570   6.156   1.607 -0.3016  0.0643  0.5041
  701TIP3    H123518   4.553   6.156   1.513  1.0901 -1.9382  0.1928
  701TIP3    H223519   4.660   6.187   1.615 -0.1287 -0.5694  1.0996
  702TIP3   OH223520   3.980   4.900   4.930 -0.0430 -0.6805  0.5814
  702TIP3    H123521   3.968   4.853   4.848 -0.8183 -1.2475  1.0002
  702TIP3    H223522   3.941   4.986   4.915 -0.5462 -0.9255  0.4814
  703TIP3   OH223523   1.529   6.270  15.767 -0.3242  0.2379 -0.3834
  703TIP3    H123524   1.610   6.320  15.755  0.2953 -1.3645 -3.7625
  703TIP3    H223525   1.464   6.316  15.713 -0.9411 -0.1249  0.0323
  704TIP3   OH223526   1.065   3.521   5.697 -0.2976  0.3536 -0.4140
  704TIP3    H123527   1.048   3.614   5.683  0.1188  0.4554 -0.2636
  704TIP3    H223528   1.128   3.498   5.628 -0.0006  0.3117 -0.1325
  705TIP3   OH223529   4.097   6.268   0.915  0.3281  0.0312  0.0803
  705TIP3    H123530   4.064   6.215   0.988 -1.1152  0.6007 -0.1292
  705TIP3    H223531   4.141   6.205   0.858 -1.7319 -1.0807 -0.3850
  706TIP3   OH223532   5.518   5.232   5.734  0.9345 -0.2200  0.1097
  706TIP3    H123533   5.448   5.167   5.727  1.8389 -1.5991  2.5573
  706TIP3    H223534   5.474   5.316   5.730 -0.3037 -0.8654 -3.1655
  707TIP3   OH223535   0.994   1.975  13.768 -0.0511  0.4601 -0.6573
  707TIP3    H123536   1.036   2.034  13.706  0.7233  1.5282  0.8223
  707TIP3    H223537   0.958   2.032  13.835  1.5478 -0.7432  1.3433
  708TIP3   OH223538   4.114   2.071  14.516 -0.5249 -0.4833 -0.2431
  708TIP3    H123539   4.168   1.996  14.490  0.9100  0.5787 -0.4250
  708TIP3    H223540   4.116   2.129  14.440  2.6354  2.0656  1.5366
  709TIP3   OH223541   5.340   4.438   0.315  0.1200 -0.0651  0.5723
  709TIP3    H123542   5.276   4.459   0.383 -3.2043 -0.0118 -2.2460
  709TIP3    H223543   5.347   4.518   0.263  0.0003 -0.9897 -0.9407
  710TIP3   OH223544   5.305   6.033  14.563  0.1579 -0.1441  0.5192
  710TIP3    H123545   5.321   6.072  14.477 -3.0241  0.5953  0.1699
  710TIP3    H223546   5.289   6.108  14.621  1.4410 -0.6730  1.6216
  711TIP3   OH223547   1.423   3.137   1.068  0.2117  0.3869  0.0091
  711TIP3    H123548   1.401   3.179   1.152 -4.4636  1.7225 -1.5288
  711TIP3    H223549   1.423   3.044   1.088  1.8646  0.7319  1.9143
  712TIP3   OH223550   4.663   4.724  15.738  0.0469 -0.1999 -0.4768
  712TIP3    H123551   4.751   4.739  15.773  0.1153  0.2158 -0.8222
  712TIP3    H223552   4.608   4.713  15.815  0.6385 -1.9086 -0.2615
  713TIP3   OH223553   6.063   2.688  16.879  0.2197  0.5908  0.0858
  713TIP3    H123554   6.142   2.709  16.830  1.4480  0.9197  2.0832
  713TIP3    H223555   5.993   2.688  16.814  2.0887 -1.4820 -2.0756
  714TIP3   OH223556   1.050   5.303   5.418 -0.7351 -0.0537  0.5551
  714TIP3    H123557   0.989   5.286   5.490 -1.0224 -1.4630  0.0158
  714TIP3    H223558   1.017   5.383   5.377 -2.3122 -0.8374  0.2115
  715TIP3   OH223559   0.222   6.555   4.702  0.1125  0.1545  0.2798
  715TIP3    H123560   0.231   6.570   4.796  1.8357 -1.3674  0.4184
  715TIP3    H223561   0.219   6.642   4.663  1.0827  0.8093  1.6139
  716TIP3   OH223562   2.180   3.713  16.668 -0.5226  0.1283 -0.0298
  716TIP3    H123563   2.199   3.681  16.580 -1.2119 -0.0636 -0.1083
  716TIP3    H223564   2.089   3.741  16.666 -0.4482  0.4510  0.5308
  717TIP3   OH223565   1.520   2.568   5.781  0.5893  0.0394 -0.0756
  717TIP3    H123566   1.466   2.646   5.782  2.0947  1.2043  3.1206
  717TIP3    H223567   1.472   2.503   5.832  0.2960 -0.4759 -0.9664
  718TIP3   OH223568   2.818   0.969  12.716 -0.1058  0.6945 -0.5691
  718TIP3    H123569   2.891   1.029  12.698  0.5196 -0.1773 -1.0100
  718TIP3    H223570   2.850   0.884  12.687 -0.4277 -0.1351  1.3931
  719TIP3   OH223571   5.499   1.394   4.178 -0.3063  0.4035  0.0045
  719TIP3    H123572   5.499   1.340   4.099  1.2615 -0.9955  0.8854
  719TIP3    H223573   5.591   1.421   4.188  0.0346 -1.3749  2.5362
  720TIP3   OH223574   2.781   1.988   2.226  0.2642  0.3623 -0.0860
  720TIP3    H123575   2.749   2.003   2.315  0.4148  0.7315 -0.0901
  720TIP3    H223576   2.733   1.911   2.195  0.5036 -0.0068  0.4579
  721TIP3   OH223577   3.413   6.115  14.936  0.0040  0.8414  0.6725
  721TIP3    H123578   3.397   6.049  14.870 -0.1487  0.6528  0.8987
  721TIP3    H223579   3.508   6.115  14.947  0.0284  0.8625  0.4672
  722TIP3   OH223580   2.049   2.753   1.331 -0.5903  0.1213  0.2044
  722TIP3    H123581   2.144   2.743   1.338 -0.5162  0.4360 -0.3082
  722TIP3    H223582   2.013   2.689   1.394 -0.0472 -0.1319  0.2595
  723TIP3   OH223583   2.176   1.440   1.479 -0.2404  0.4337 -0.2336
  723TIP3    H123584   2.189   1.346   1.490 -1.1579  0.2099 -0.9026
  723TIP3    H223585   2.234   1.481   1.543 -1.4914 -0.6346  1.6907
  724TIP3   OH223586   1.425   2.842   5.169 -0.4747 -0.4409 -0.4762
  724TIP3    H123587   1.373   2.764   5.192  0.8106 -0.8469  1.2167
  724TIP3    H223588   1.377   2.915   5.208 -0.1484 -0.7390  0.5141
  725TIP3   OH223589   2.694   4.249   1.877  0.0815  0.2735  0.4266
  725TIP3    H123590   2.787   4.227   1.877 -0.2161 -1.1122 -0.4074
  725TIP3    H223591   2.678   4.286   1.964  0.8077 -2.2243  1.7051
  726TIP3   OH223592   2.659   1.218   0.173 -0.9783  0.3459  0.3854
  726TIP3    H123593   2.635   1.141   0.121  0.8621  0.8996 -1.3796
  726TIP3    H223594   2.583   1.275   0.168 -1.9623 -0.8606  0.8353
  727TIP3   OH223595   0.327   2.890   0.402  0.2165 -0.1703 -0.6246
  727TIP3    H123596   0.355   2.935   0.482  1.7217 -0.0573 -1.2008
  727TIP3    H223597   0.273   2.817   0.434 -2.0285  1.7893  0.3393
  728TIP3   OH223598   5.793   1.761   5.602 -0.3124 -0.1537 -0.0380
  728TIP3    H123599   5.825   1.848   5.579 -2.7201  0.4271 -1.4541
  728TIP3    H223600   5.706   1.775   5.638 -2.0873 -2.0842 -3.1335
  729TIP3   OH223601   6.097   6.331  15.786 -0.4058 -0.9162 -0.2098
  729TIP3    H123602   6.075   6.335  15.879 -0.5838 -0.8970 -0.2528
  729TIP3    H223603   6.046   6.257  15.752  0.0428 -1.2389 -0.1878
  730TIP3   OH223604   5.233   5.530  16.923 -0.2450 -0.2963 -0.2663
  730TIP3    H123605   5.155   5.557  16.874 -1.1292  1.8706  2.1049
  730TIP3    H223606   5.201   5.510  17.011  1.8020  0.2993  0.6819
  731TIP3   OH223607   3.804   3.549  14.258 -0.2815  0.1286  0.2691
  731TIP3    H123608   3.716   3.552  14.221 -0.5338 -2.1330  0.5776
  731TIP3    H223609   3.862   3.539  14.182 -0.6234 -2.1062  0.2299
  732TIP3   OH223610   1.877   4.223  13.161 -0.1392 -0.1727  0.2366
  732TIP3    H123611   1.887   4.236  13.255  1.4961 -0.1776  0.0906
  732TIP3    H223612   1.847   4.132  13.153 -1.5865  0.2274  0.7818
  733TIP3   OH223613   0.254   3.714   0.393 -0.2280  0.2822  0.0524
  733TIP3    H123614   0.223   3.781   0.454 -0.4928 -0.3987  0.6812
  733TIP3    H223615   0.205   3.730   0.313  1.1523  2.0769 -0.4720
  734TIP3   OH223616   5.005   2.678   6.976 -0.4891 -0.4072 -0.0034
  734TIP3    H123617   4.955   2.627   6.912 -0.3157  0.8564 -1.2217
  734TIP3    H223618   5.050   2.744   6.923 -0.7993  1.0797  1.4859
  735TIP3   OH223619   4.027   6.463   6.758  0.1063 -0.3832 -0.0881
  735TIP3    H123620   3.980   6.402   6.700 -0.8010 -0.5113  0.7509
  735TIP3    H223621   4.116   6.429   6.761  0.3665  0.0479 -1.9795
  736TIP3   OH223622   2.165   0.106   5.188  0.1469  0.0903  0.2544
  736TIP3    H123623   2.204   0.100   5.275 -1.3824 -0.6505  0.9431
  736TIP3    H223624   2.187   0.022   5.146  1.7224  0.8362 -0.4869
  737TIP3   OH223625   4.477   6.125   4.654  0.1361  0.0850 -0.4633
  737TIP3    H123626   4.464   6.078   4.736  3.0152  1.3145  0.8556
  737TIP3    H223627   4.400   6.183   4.647  0.6809  1.3312  2.4504
  738TIP3   OH223628   0.400   5.341   5.472 -0.4340 -0.2817  0.4076
  738TIP3    H123629   0.446   5.268   5.511  1.3477  0.0890 -0.8688
  738TIP3    H223630   0.409   5.413   5.535 -0.8899 -0.7143  0.9798
  739TIP3   OH223631   5.265   3.840  15.985  0.1912 -0.4542  0.7387
  739TIP3    H123632   5.309   3.911  16.032  0.5854 -0.6990  0.7424
  739TIP3    H223633   5.232   3.783  16.054 -1.3377  0.4287  0.7839
  740TIP3   OH223634   4.158   1.940   4.538  0.2600 -0.3201 -0.1160
  740TIP3    H123635   4.252   1.958   4.542  0.3391 -0.8502  0.9234
  740TIP3    H223636   4.120   1.996   4.606 -0.7616  2.8772 -3.0063
  741TIP3   OH223637   0.694   0.177  16.530  0.4269 -0.0107 -0.2115
  741TIP3    H123638   0.675   0.183  16.624  0.5426  1.8507 -0.2676
  741TIP3    H223639   0.630   0.236  16.489  0.3763 -0.8099 -1.3183
  742TIP3   OH223640   0.458   0.360  14.150 -0.5967 -1.0063 -0.0178
  742TIP3    H123641   0.484   0.270  14.168 -1.2458 -1.1563  0.2238
  742TIP3    H223642   0.409   0.354  14.068  1.8737 -0.4094 -1.6251
  743TIP3   OH223643   5.716   4.234  13.629  0.7344 -0.4116 -0.2163
  743TIP3    H123644   5.797   4.256  13.584 -0.2665  1.6680 -1.1472
  743TIP3    H223645   5.648   4.247  13.562 -0.4979 -0.4480  0.9959
  744TIP3   OH223646   0.202   0.303  14.745 -0.2376  0.0032 -0.0898
  744TIP3    H123647   0.233   0.381  14.699 -0.7133  0.5268  0.4475
  744TIP3    H223648   0.191   0.332  14.836  1.2033 -1.1364  0.4929
  745TIP3   OH223649   2.107   5.872  11.171  0.0656  0.0853 -0.2087
  745TIP3    H123650   2.111   5.956  11.126 -1.4372 -0.5560 -1.6489
  745TIP3    H223651   2.193   5.832  11.157  0.8583  1.4225  0.6607
  746TIP3   OH223652   5.636   4.440  13.827  0.4470  0.0994 -0.2690
  746TIP3    H123653   5.638   4.376  13.756  0.9549 -0.5712  0.3339
  746TIP3    H223654   5.554   4.422  13.873  0.7255 -0.3219  0.0727
  747TIP3   OH223655   3.077   1.703   4.486 -0.7801  0.2543  0.5987
  747TIP3    H123656   3.090   1.642   4.413  0.8925  1.8435 -0.5083
  747TIP3    H223657   3.067   1.647   4.562 -2.8787 -1.4956 -0.8252
  748TIP3   OH223658   0.612   5.008   0.690 -0.2022 -0.7563  0.3886
  748TIP3    H123659   0.630   5.000   0.597 -0.7543 -0.3039  0.2377
  748TIP3    H223660   0.664   5.082   0.719 -0.1897 -0.7668  0.3926
  749TIP3   OH223661   1.399   0.510   2.141 -0.3489 -0.4324 -0.4214
  749TIP3    H123662   1.416   0.417   2.154 -0.4314 -0.5170 -0.8909
  749TIP3    H223663   1.328   0.513   2.077 -1.8262 -0.0765  1.1636
  750TIP3   OH223664   4.333   4.760  13.289  0.5962 -0.3450  0.2238
  750TIP3    H123665   4.323   4.748  13.194 -0.7917  0.5929  0.2311
  750TIP3    H223666   4.244   4.764  13.323  1.0358  1.1306  1.3230
  751TIP3   OH223667   2.706   1.104  13.646  0.2389 -0.7327  0.1200
  751TIP3    H123668   2.624   1.064  13.619 -0.2808  0.1834  0.2886
  751TIP3    H223669   2.709   1.187  13.599  1.1805 -0.8486 -0.0485
  752TIP3   OH223670   4.203   6.743   1.639  0.3435 -1.1524  0.4934
  752TIP3    H123671   4.181   6.660   1.596 -0.1135 -0.7308 -0.1117
  752TIP3    H223672   4.138   6.751   1.709 -0.7845 -0.4588 -0.5785
  753TIP3   OH223673   5.923   2.998  16.946  0.1934  0.0432  0.0032
  753TIP3    H123674   5.878   3.039  17.019  1.2399 -1.8179  1.7848
  753TIP3    H223675   5.868   2.924  16.921  0.3766  0.0287 -0.3745
  754TIP3   OH223676   0.319   5.316   2.140  0.3034 -0.3089 -0.4062
  754TIP3    H123677   0.353   5.403   2.122  1.2472 -0.5872 -0.0186
  754TIP3    H223678   0.242   5.332   2.195  0.6873  0.2758 -0.0185
  755TIP3   OH223679   0.994   6.025   6.314  0.2410  0.3173 -0.0266
  755TIP3    H123680   0.948   5.946   6.343  0.5963  0.5858  1.3519
  755TIP3    H223681   1.087   6.001   6.319  0.3256  0.4687 -0.7277
  756TIP3   OH223682   4.002   5.852   2.806  0.0828 -0.6446  0.4638
  756TIP3    H123683   3.995   5.910   2.730 -0.4786 -1.9909 -0.5638
  756TIP3    H223684   4.026   5.909   2.878  0.8756  0.6450 -0.7748
  757TIP3   OH223685   3.076   1.692  16.882  0.3842  0.5828  0.0443
  757TIP3    H123686   3.025   1.737  16.949  1.4971  2.7247 -0.4434
  757TIP3    H223687   3.161   1.677  16.923  0.0793 -1.1013  0.1562
  758TIP3   OH223688   3.884   3.788   4.878 -0.4677 -0.0797  0.3717
  758TIP3    H123689   3.814   3.847   4.905  0.2546  1.2527 -0.5158
  758TIP3    H223690   3.884   3.719   4.944 -2.8707 -0.3640  0.1541
  759TIP3   OH223691   5.717   3.013   5.131 -0.5073 -0.2196  0.5900
  759TIP3    H123692   5.728   3.069   5.208  1.0760  1.4743 -0.7738
  759TIP3    H223693   5.709   3.074   5.058  2.6496 -1.6538 -1.1459
  760TIP3   OH223694   4.011   0.477  11.991 -0.0063  0.3144 -0.1589
  760TIP3    H123695   3.963   0.452  11.912 -0.0125  1.0071 -0.3890
  760TIP3    H223696   3.945   0.514  12.049  0.1607  0.8077 -0.2744
  761TIP3   OH223697   6.702   1.205  13.097 -0.0221  0.0477 -0.2902
  761TIP3    H123698   6.697   1.286  13.147  0.6216 -1.4584  2.4232
  761TIP3    H223699   6.777   1.216  13.039 -0.8784  1.9182 -1.1225
  762TIP3   OH223700   1.286   0.971  15.820  0.1738  0.4301 -0.4127
  762TIP3    H123701   1.261   0.908  15.752  2.0387 -1.5773  0.6217
  762TIP3    H223702   1.349   1.029  15.777 -0.4263  0.6659 -0.9878
  763TIP3   OH223703   0.588   1.658   5.970  0.3905  0.3807 -0.4375
  763TIP3    H123704   0.564   1.749   5.954 -0.4788 -0.1100 -2.1230
  763TIP3    H223705   0.565   1.612   5.890 -2.0517 -1.8578  1.3522
  764TIP3   OH223706   0.328   5.985  13.142  0.0490 -0.5924 -0.2368
  764TIP3    H123707   0.290   5.957  13.225  1.2214  1.4067  1.0585
  764TIP3    H223708   0.311   6.080  13.139  1.6136 -0.3125 -1.4060
  765TIP3   OH223709   0.268   0.741   4.762 -0.8444 -0.6066  0.2916
  765TIP3    H123710   0.207   0.675   4.733 -1.5509  0.2257 -0.1631
  765TIP3    H223711   0.222   0.788   4.831 -0.5918 -0.1921  0.1851
  766TIP3   OH223712   4.896   3.831  11.929 -0.0316  0.2654  0.1577
  766TIP3    H123713   4.951   3.849  11.853 -0.3137 -0.4820 -0.2354
  766TIP3    H223714   4.864   3.917  11.956  0.7347  0.6308 -0.0533
  767TIP3   OH223715   0.812   3.417  14.709  0.4536 -0.6968 -0.2453
  767TIP3    H123716   0.763   3.334  14.704  0.2832 -0.8379  2.3937
  767TIP3    H223717   0.903   3.390  14.721  0.6729 -0.4489 -1.2472
  768TIP3   OH223718   2.278   0.440   4.468 -0.7010 -0.4280 -0.3766
  768TIP3    H123719   2.292   0.498   4.542 -1.1943 -0.4851 -0.2354
  768TIP3    H223720   2.265   0.354   4.507 -0.5580 -0.5299 -0.5518
  769TIP3   OH223721   0.475   2.444   2.148  0.6933 -0.3309 -0.2635
  769TIP3    H123722   0.511   2.503   2.214 -0.4149 -0.2875  0.3357
  769TIP3    H223723   0.397   2.489   2.115 -0.9330 -1.9478  1.1320
  770TIP3   OH223724   1.193   1.911  14.013  0.0139 -0.2982 -0.7488
  770TIP3    H123725   1.187   1.829  13.965 -0.3647 -0.7184 -0.0113
  770TIP3    H223726   1.104   1.926  14.045 -0.2968  1.2587 -2.2412
  771TIP3   OH223727   5.208   3.947  16.743  0.1151  0.2154  0.0889
  771TIP3    H123728   5.150   3.871  16.743  0.2644  0.1038 -0.3753
  771TIP3    H223729   5.294   3.912  16.720  0.2464  0.4773  0.1798
  772TIP3   OH223730   3.342   5.734   2.543  0.0403  0.1185  0.1208
  772TIP3    H123731   3.434   5.729   2.571  0.5254  0.9872 -1.2159
  772TIP3    H223732   3.338   5.676   2.467 -0.5849 -0.0916  0.3117
  773TIP3   OH223733   4.609   2.978  14.728  0.2272  0.4909  0.1858
  773TIP3    H123734   4.642   2.923  14.657  1.8341  0.7689  0.6763
  773TIP3    H223735   4.671   2.964  14.800 -1.5463 -0.0745  1.7064
  774TIP3   OH223736   5.443   4.865   2.954 -0.0270 -0.0606  0.3088
  774TIP3    H123737   5.525   4.899   2.917 -0.0891  0.4332  0.6198
  774TIP3    H223738   5.400   4.942   2.991 -0.2145 -0.4689  0.9401
  775TIP3   OH223739   2.903   6.170  11.279 -0.3053 -0.6712 -0.4787
  775TIP3    H123740   2.825   6.119  11.256 -0.3204 -0.2986 -1.2895
  775TIP3    H223741   2.951   6.179  11.196  1.4584 -2.3125  0.2853
  776TIP3   OH223742   0.409   4.628   2.925  0.3505  0.1786  0.0710
  776TIP3    H123743   0.440   4.679   2.999  0.0472  1.4670 -0.6457
  776TIP3    H223744   0.488   4.601   2.879  0.5069  0.8717 -0.0841
  777TIP3   OH223745   6.614   5.144  11.269 -0.6447  0.0251 -0.2029
  777TIP3    H123746   6.536   5.095  11.244  0.0738  0.0999 -2.8803
  777TIP3    H223747   6.680   5.077  11.286 -0.5922 -0.0027 -0.5097
  778TIP3   OH223748   1.326   0.231   4.409 -0.9517  0.1383  0.0522
  778TIP3    H123749   1.322   0.286   4.331  1.3646 -2.5843 -2.2490
  778TIP3    H223750   1.234   0.207   4.426 -1.5747  1.2368 -1.5085
  779TIP3   OH223751   2.054   4.944   2.574 -0.1250 -0.0185  0.3966
  779TIP3    H123752   2.030   5.036   2.569  0.6842  0.3091  2.0688
  779TIP3    H223753   2.044   4.912   2.484 -0.5758  1.6398 -0.1752
  780TIP3   OH223754   2.742   5.643  12.424 -0.1385 -0.3615  0.6339
  780TIP3    H123755   2.666   5.631  12.481  0.5091  0.2119  1.6608
  780TIP3    H223756   2.811   5.674  12.483 -0.0198  2.3414 -0.7704
  781TIP3   OH223757   0.761   4.113   0.641  0.5638  0.3784 -0.4707
  781TIP3    H123758   0.849   4.150   0.646  0.8564 -0.4536  2.0400
  781TIP3    H223759   0.750   4.064   0.723 -0.5265 -3.3988 -2.6007
  782TIP3   OH223760   2.371   0.286   3.604 -0.1327  0.1945 -0.0068
  782TIP3    H123761   2.297   0.317   3.552 -0.3017  0.1173  0.1853
  782TIP3    H223762   2.447   0.326   3.563 -0.1263 -0.8819 -1.0867
  783TIP3   OH223763   0.371   5.044  12.953  0.1236  0.4634 -0.4820
  783TIP3    H123764   0.446   5.100  12.969  0.4137 -0.1814  0.5738
  783TIP3    H223765   0.396   4.989  12.878  0.3784  0.8025 -0.6438
  784TIP3   OH223766   2.479   4.743  11.079 -0.0731  0.6649 -0.3037
  784TIP3    H123767   2.392   4.705  11.092  0.1519  1.0159  2.9959
  784TIP3    H223768   2.470   4.834  11.106  1.2839  0.7345 -0.0111
  785TIP3   OH223769   6.647   1.875   1.594  0.4973 -0.2155  0.8668
  785TIP3    H123770   6.638   1.788   1.632  0.0347  0.1833  1.6825
  785TIP3    H223771   6.568   1.886   1.541 -0.2778  0.3560  2.1037
  786TIP3   OH223772   6.263   0.275  11.589 -0.6582  0.4561  0.0821
  786TIP3    H123773   6.251   0.264  11.494 -1.5169 -2.0927  0.4319
  786TIP3    H223774   6.346   0.231  11.607 -0.3453  1.1972  0.5206
  787TIP3   OH223775   6.391   1.218  15.096 -0.2163  0.3253 -0.3238
  787TIP3    H123776   6.403   1.280  15.024  0.5734 -1.0199 -1.4051
  787TIP3    H223777   6.313   1.250  15.142  0.6734  2.6021 -0.2743
  788TIP3   OH223778   5.614   1.845  12.725 -0.4223 -0.4397 -0.3931
  788TIP3    H123779   5.525   1.879  12.734 -0.8442 -1.6170  0.0074
  788TIP3    H223780   5.655   1.861  12.811  0.7226  2.6607 -1.3894
  789TIP3   OH223781   5.436   0.677   0.947 -0.4856 -0.3223  0.4304
  789TIP3    H123782   5.451   0.596   0.898 -0.7655 -0.7366  1.0130
  789TIP3    H223783   5.523   0.712   0.964 -0.3880 -0.1327 -0.4192
  790TIP3   OH223784   1.629   0.656  15.491  0.2292 -0.2979  0.2849
  790TIP3    H123785   1.585   0.664  15.575  0.8405  2.3544  0.4397
  790TIP3    H223786   1.722   0.652  15.512  0.5521  2.5905 -0.2354
  791TIP3   OH223787   0.497   3.049   4.809 -0.4797  0.2981 -0.4846
  791TIP3    H123788   0.461   2.968   4.844 -1.4044  0.5439 -0.8458
  791TIP3    H223789   0.483   3.043   4.714  1.0353  0.1099 -0.7257
  792TIP3   OH223790   1.555   0.165   1.082 -0.2790 -0.2754  0.0057
  792TIP3    H123791   1.643   0.134   1.059 -0.3388 -0.8132  0.4730
  792TIP3    H223792   1.517   0.194   0.999  0.6822  0.8460 -0.0611
  793TIP3   OH223793   3.560   5.166   4.403  0.2575  0.0625 -0.5487
  793TIP3    H123794   3.519   5.252   4.400  2.3207  1.1566  0.5649
  793TIP3    H223795   3.637   5.177   4.459 -0.2027 -2.8804  0.8597
  794TIP3   OH223796   0.954   2.114   2.782  0.0295 -0.5647 -0.1997
  794TIP3    H123797   0.968   2.201   2.746  2.0281 -0.4991  0.6398
  794TIP3    H223798   1.017   2.058   2.737  1.8336 -0.6840  2.2593
  795TIP3   OH223799   2.989   3.580  14.806 -0.5001  0.0788 -0.0841
  795TIP3    H123800   3.021   3.536  14.727  0.3882 -3.5771  2.0630
  795TIP3    H223801   2.894   3.577  14.798 -0.4292 -0.5364 -0.8712
  796TIP3   OH223802   0.193   6.142   5.438  0.3470 -0.2314 -0.0946
  796TIP3    H123803   0.178   6.236   5.452  0.9563 -0.0362 -0.7220
  796TIP3    H223804   0.125   6.099   5.491  1.3513  0.5191  1.8935
  797TIP3   OH223805   5.551   0.637  11.889 -0.1256  0.0356 -0.1410
  797TIP3    H123806   5.483   0.693  11.928  0.6392  0.9185 -0.0233
  797TIP3    H223807   5.568   0.571  11.956 -1.3542 -0.6324 -0.4577
  798TIP3   OH223808   0.654   3.174  14.595  0.1657 -0.0920 -0.1805
  798TIP3    H123809   0.592   3.103  14.577 -0.4987  0.3302  0.3961
  798TIP3    H223810   0.712   3.175  14.519  0.9349 -2.0283  0.3202
  799TIP3   OH223811   1.515   1.550  13.814 -0.1158  0.0286 -1.0935
  799TIP3    H123812   1.519   1.490  13.889 -0.4735  2.0661  0.6333
  799TIP3    H223813   1.458   1.505  13.751  1.5078 -2.4801 -0.9089
  800TIP3   OH223814   4.222   3.271  15.006 -0.3181  0.7636  0.1321
  800TIP3    H123815   4.276   3.193  14.994 -2.6179 -1.1197  1.0267
  800TIP3    H223816   4.174   3.254  15.087 -0.1884  3.6221  0.8977
  801TIP3   OH223817   5.220   3.631  17.167  0.6490  0.0169  0.3753
  801TIP3    H123818   5.313   3.619  17.188  0.1361  0.6950  3.4802
  801TIP3    H223819   5.203   3.724  17.184 -0.0263  0.7002 -3.1520
  802TIP3   OH223820   3.473   1.357   1.211 -0.5127 -0.1106 -0.6654
  802TIP3    H123821   3.412   1.313   1.271 -3.2176  1.2224 -2.2235
  802TIP3    H223822   3.458   1.451   1.227  1.9193  0.3152 -0.4543
  803TIP3   OH223823   3.260   4.153   1.771  0.0103 -0.0956 -0.2580
  803TIP3    H123824   3.288   4.066   1.743 -0.7986 -1.0204  1.6290
  803TIP3    H223825   3.248   4.145   1.866  0.2202  2.1680  0.0252
  804TIP3   OH223826   2.224   0.121  12.330  0.8296  0.0581  0.3065
  804TIP3    H123827   2.179   0.037  12.335  1.5296 -0.3456 -0.1228
  804TIP3    H223828   2.202   0.154  12.242 -1.6387  1.5965  1.3696
  805TIP3   OH223829   4.347   6.432   1.034  0.2577  0.1474 -0.9432
  805TIP3    H123830   4.268   6.481   1.058 -0.5234 -0.2547 -2.5405
  805TIP3    H223831   4.334   6.345   1.071  0.5766  0.4419 -0.1012
  806TIP3   OH223832   1.558   1.325   5.133  0.2235  0.2139 -0.4798
  806TIP3    H123833   1.517   1.264   5.194  0.6585  0.2656 -0.1267
  806TIP3    H223834   1.589   1.270   5.061 -0.5422  0.1872 -0.7997
  807TIP3   OH223835   3.670   0.934   5.808  1.0507 -0.1504 -0.1660
  807TIP3    H123836   3.697   0.842   5.804  2.1062  0.1377  0.2227
  807TIP3    H223837   3.725   0.972   5.876  1.2934  1.0004 -0.9917
  808TIP3   OH223838   3.704   0.100  11.139 -0.4261  0.4476 -0.1820
  808TIP3    H123839   3.792   0.083  11.106 -0.2594  2.1633 -0.7167
  808TIP3    H223840   3.690   0.034  11.207  0.4651 -1.1366 -1.4812
  809TIP3   OH223841   5.635   6.014   3.677 -0.0675  0.7861  0.1949
  809TIP3    H123842   5.673   6.100   3.660  2.2387 -0.2614 -0.3704
  809TIP3    H223843   5.639   5.969   3.592  1.4144 -0.7997  1.0358
  810TIP3   OH223844   2.776   3.227   5.114 -0.1502  0.2505 -0.3865
  810TIP3    H123845   2.787   3.229   5.209  0.5692  0.2338 -0.4607
  810TIP3    H223846   2.685   3.201   5.100  0.5302 -2.9073  0.2999
  811TIP3   OH223847   4.397   4.024  14.599 -0.0663 -0.0715 -0.9147
  811TIP3    H123848   4.459   4.078  14.649 -0.5774 -1.1421  0.9692
  811TIP3    H223849   4.428   3.934  14.611 -0.8891 -0.4488 -1.5285
  812TIP3   OH223850   2.684   0.725  11.641 -0.3458 -0.0130 -0.1024
  812TIP3    H123851   2.609   0.712  11.583 -1.3792 -0.6520  1.3439
  812TIP3    H223852   2.700   0.819  11.638 -2.2632  0.3853  0.8237
  813TIP3   OH223853   2.408   3.722  15.289  0.4677  0.5352  0.1130
  813TIP3    H123854   2.356   3.783  15.237  1.4593  2.7775  1.6055
  813TIP3    H223855   2.494   3.763  15.295  1.7660 -1.9164 -0.3038
  814TIP3   OH223856   6.579   5.206  12.321 -0.7259 -0.0066  0.3120
  814TIP3    H123857   6.624   5.272  12.374 -2.6049  1.1458  0.5572
  814TIP3    H223858   6.583   5.126  12.373  0.4672  0.2069  0.5841
  815TIP3   OH223859   2.188   5.777   3.646 -0.1270  0.4408  0.6461
  815TIP3    H123860   2.207   5.783   3.553  1.9448  0.2844  1.0029
  815TIP3    H223861   2.133   5.699   3.655 -0.2425  0.3931 -0.4188
  816TIP3   OH223862   2.736   5.054   0.900 -0.5127 -0.0490  0.1722
  816TIP3    H123863   2.672   4.993   0.937  0.4890 -0.9192  0.4912
  816TIP3    H223864   2.820   5.010   0.908  0.4131  1.8335  1.4471
  817TIP3   OH223865   5.886   3.988  13.420  0.2762 -0.3745  0.1987
  817TIP3    H123866   5.946   4.043  13.370  1.9016 -0.9536  1.4347
  817TIP3    H223867   5.806   3.987  13.368  1.4931 -0.0019 -1.8023
  818TIP3   OH223868   5.244   0.198   5.006 -0.6402  0.7788  0.5286
  818TIP3    H123869   5.216   0.290   4.996 -0.0030  1.0381  1.0963
  818TIP3    H223870   5.228   0.159   4.920  1.3923  2.0473 -0.4924
  819TIP3   OH223871   0.670   5.178   2.057 -0.4531  0.3220  0.0540
  819TIP3    H123872   0.738   5.147   2.116 -0.6374  0.3865  0.3042
  819TIP3    H223873   0.588   5.148   2.097 -0.5279 -0.4791 -0.6846
  820TIP3   OH223874   0.835   6.643   5.201  0.3279  0.0802  0.0986
  820TIP3    H123875   0.773   6.607   5.138 -0.8274  0.9979  0.6640
  820TIP3    H223876   0.910   6.670   5.149 -1.0834  1.9046 -1.0830
  821TIP3   OH223877   4.556   3.149   4.389 -0.0495  0.1430 -0.4730
  821TIP3    H123878   4.518   3.070   4.350 -1.2571 -0.2175  1.3076
  821TIP3    H223879   4.526   3.220   4.333 -4.2044 -0.0167  1.1511
  822TIP3   OH223880   0.274   0.230   4.166 -0.1874 -0.3445  0.5402
  822TIP3    H123881   0.257   0.298   4.231 -2.9288 -0.0614 -0.3405
  822TIP3    H223882   0.328   0.273   4.100 -0.5338  0.5174  0.7992
  823TIP3   OH223883   0.789   3.015   1.860  0.2808  0.0499 -0.0534
  823TIP3    H123884   0.723   3.070   1.903  1.6956  1.6183  0.2352
  823TIP3    H223885   0.771   2.927   1.892 -1.0522  0.5941  0.7965
  824TIP3   OH223886   0.091   2.473   0.174  0.1147  0.7355 -0.1358
  824TIP3    H123887   0.153   2.529   0.128 -0.1632  1.4013  0.2973
  824TIP3    H223888   0.016   2.529   0.192  0.6918  0.8467  2.2149
  825TIP3   OH223889   2.207   4.892   0.333  0.5592 -0.4439  0.1202
  825TIP3    H123890   2.175   4.918   0.246  2.7824 -1.0649 -0.9625
  825TIP3    H223891   2.253   4.970   0.365 -1.6485  0.3732  1.5740
  826TIP3   OH223892   3.352   5.020   3.027  0.0359 -0.1906  0.1084
  826TIP3    H123893   3.358   5.080   3.102  0.6831 -1.2712  0.9602
  826TIP3    H223894   3.294   5.064   2.965  1.9441  2.1563 -0.1283
  827TIP3   OH223895   5.036   3.175   3.191 -0.1056 -0.2698  0.1690
  827TIP3    H123896   5.115   3.227   3.205 -0.1511 -0.0884 -0.2151
  827TIP3    H223897   5.028   3.171   3.096 -0.8378  0.1456  0.2079
  828TIP3   OH223898   2.616   6.517  12.639 -0.1313  0.0447 -0.0563
  828TIP3    H123899   2.611   6.565  12.557  0.3108 -0.2286 -0.2479
  828TIP3    H223900   2.525   6.496  12.660 -0.1343 -1.9870 -1.7382
  829TIP3   OH223901   3.369   3.836  14.353 -0.0621  0.6582  0.2322
  829TIP3    H123902   3.319   3.756  14.337  0.5787  0.3047 -0.0507
  829TIP3    H223903   3.302   3.904  14.360 -0.6209  0.0977  0.5259
  830TIP3   OH223904   5.354   0.713   3.350  0.4562  0.1185 -0.5468
  830TIP3    H123905   5.318   0.738   3.265  0.8646  1.8949 -0.2445
  830TIP3    H223906   5.445   0.744   3.347  0.6488 -0.3321  0.3255
  831TIP3   OH223907   0.740   3.097   6.685  0.2063  0.1106 -0.8628
  831TIP3    H123908   0.718   3.015   6.642  0.3483 -0.5684  0.3298
  831TIP3    H223909   0.657   3.143   6.694 -0.4499 -1.3712  1.4226
  832TIP3   OH223910   2.299   4.541   5.646 -0.5198  0.0409 -0.0259
  832TIP3    H123911   2.312   4.595   5.723 -1.1905  1.8275 -1.1105
  832TIP3    H223912   2.379   4.488   5.640  0.4176  1.3246  0.7433
  833TIP3   OH223913   0.023   6.009   5.628 -0.1471 -0.7127  0.4673
  833TIP3    H123914   0.022   5.914   5.629  0.8415 -0.7859 -1.2882
  833TIP3    H223915   0.066   6.034   5.710 -2.5492 -1.6340  2.1098
  834TIP3   OH223916   4.235   1.164   0.085  0.1317  0.2566 -0.0828
  834TIP3    H123917   4.250   1.256   0.106  1.7795 -0.4567  2.3999
  834TIP3    H223918   4.320   1.132   0.055  0.1646 -0.8488  1.0483
  835TIP3   OH223919   3.214   2.905  11.915  0.3232  0.6010  0.8337
  835TIP3    H123920   3.234   2.887  11.823 -1.6067  1.4408  0.1958
  835TIP3    H223921   3.211   2.818  11.956  1.4096  0.2289  0.1715
  836TIP3   OH223922   4.662   4.541   4.057 -0.2317  0.0917  0.5335
  836TIP3    H123923   4.632   4.452   4.039 -1.2868  0.5210  0.1228
  836TIP3    H223924   4.585   4.586   4.091 -0.1749  1.3164 -0.8774
  837TIP3   OH223925   1.415   2.595   4.476 -0.1045 -0.1881  0.1462
  837TIP3    H123926   1.348   2.546   4.427 -0.5597  1.3702 -0.8455
  837TIP3    H223927   1.494   2.588   4.422 -0.3657  0.7538 -0.3840
  838TIP3   OH223928   1.966   0.521   2.678 -0.2119 -0.3442  0.2263
  838TIP3    H123929   2.020   0.514   2.756  2.2913 -0.6067 -1.4078
  838TIP3    H223930   2.005   0.593   2.628 -0.9997 -0.9110 -1.2988
  839TIP3   OH223931   3.773   1.786  16.326 -0.1449  0.0180  0.0001
  839TIP3    H123932   3.744   1.736  16.250  1.8807  0.3073 -1.0219
  839TIP3    H223933   3.721   1.867  16.323 -1.7704 -0.9814  0.3306
  840TIP3   OH223934   0.089   0.395  12.524  0.1336 -0.4256  0.3571
  840TIP3    H123935   0.158   0.356  12.471  2.2014  2.4535  0.6798
  840TIP3    H223936   0.116   0.379  12.615  1.7185  2.5004  0.5312
  841TIP3   OH223937   2.430   3.807  11.128  0.0369  0.2752 -0.3401
  841TIP3    H123938   2.482   3.855  11.192  0.5328 -0.7105  0.0189
  841TIP3    H223939   2.493   3.759  11.076 -0.4608 -0.2827 -0.4444
  842TIP3   OH223940   2.077   1.500  16.513 -0.2098  0.3590 -0.5867
  842TIP3    H123941   2.110   1.470  16.598 -2.7354 -0.4628  0.1777
  842TIP3    H223942   2.136   1.458  16.450  1.4919  0.6766  0.6897
  843TIP3   OH223943   3.953   5.191   2.682 -0.1478  0.1106 -0.0302
  843TIP3    H123944   3.986   5.159   2.598  0.0774 -3.6879  1.3121
  843TIP3    H223945   4.025   5.175   2.744 -1.5185 -0.5527  1.4725
  844TIP3   OH223946   0.644   0.749   2.363 -0.5292 -0.3132  0.5547
  844TIP3    H123947   0.564   0.714   2.325 -0.1758 -0.3081 -0.2153
  844TIP3    H223948   0.702   0.672   2.373 -1.0856 -0.5588  2.3728
  845TIP3   OH223949   4.042   5.854  12.853  0.2340 -0.0595 -0.1554
  845TIP3    H123950   3.978   5.785  12.873  1.6743 -1.7449 -1.1135
  845TIP3    H223951   3.999   5.934  12.882 -1.4517 -1.3459  1.1744
  846TIP3   OH223952   6.197   3.699   5.422 -0.2623  0.0005 -0.1372
  846TIP3    H123953   6.176   3.683   5.330 -0.5071 -1.4994  0.1535
  846TIP3    H223954   6.112   3.718   5.463 -0.4048 -0.9932  0.0694
  847TIP3   OH223955   0.314   5.906  13.804 -0.4361 -0.1114 -0.4798
  847TIP3    H123956   0.295   5.883  13.895 -1.4343  4.6580  0.7804
  847TIP3    H223957   0.409   5.919  13.802 -0.4045 -0.2862 -0.1176
  848TIP3   OH223958   4.853   1.336  11.311 -0.5412 -0.3859 -0.1075
  848TIP3    H123959   4.779   1.366  11.364 -0.4946 -0.3304 -0.0744
  848TIP3    H223960   4.812   1.300  11.232 -0.8240 -3.0648  1.1508
  849TIP3   OH223961   0.444   5.389  17.274 -0.2479  0.8028 -0.4012
  849TIP3    H123962   0.357   5.422  17.250  0.3030  3.1866  0.5921
  849TIP3    H223963   0.455   5.417  17.365  0.1109 -2.7483  0.7905
  850TIP3   OH223964   0.597   3.996  15.355 -0.0624  0.1358 -0.1865
  850TIP3    H123965   0.528   3.931  15.370  2.7900 -2.8251  1.8175
  850TIP3    H223966   0.613   4.033  15.442  0.1466  1.6031 -0.8319
  851TIP3   OH223967   5.187   6.596   5.699 -0.2135  0.4136  0.2361
  851TIP3    H123968   5.233   6.627   5.778 -1.6527  1.6374  0.6593
  851TIP3    H223969   5.165   6.505   5.718  2.1625 -0.2949 -0.0847
  852TIP3   OH223970   3.552   3.164   2.844  0.1047  0.3009  0.6175
  852TIP3    H123971   3.529   3.088   2.898 -0.5423  0.3108  0.3638
  852TIP3    H223972   3.540   3.239   2.901 -2.5434  0.4870 -0.0871
  853TIP3   OH223973   2.027   6.697  12.457 -0.8704  0.2300 -0.3579
  853TIP3    H123974   2.039   6.610  12.419 -0.5707 -0.1602  0.5923
  853TIP3    H223975   1.961   6.685  12.525 -0.4870  0.6445  0.0953
  854TIP3   OH223976   3.850   2.312   4.783 -0.0617  0.2163  0.1068
  854TIP3    H123977   3.929   2.299   4.836 -1.5803  1.4777  2.8973
  854TIP3    H223978   3.792   2.241   4.809 -0.7961  0.7864  0.0598
  855TIP3   OH223979   1.914   4.824  16.061  0.9477  0.0556  0.2473
  855TIP3    H123980   1.835   4.849  16.014  1.1275 -2.0541 -1.3290
  855TIP3    H223981   1.883   4.785  16.143  0.4027  0.1417  0.0840
  856TIP3   OH223982   4.646   0.275   0.003 -0.6095 -0.0405 -0.1086
  856TIP3    H123983   4.708   0.202   0.005 -0.2702  0.2425 -0.0647
  856TIP3    H223984   4.666   0.320  -0.079 -1.1737 -0.2970 -0.3943
  857TIP3   OH223985   5.046   4.050   4.229  0.5859 -0.0148 -0.1925
  857TIP3    H123986   5.094   3.976   4.268  1.2702  0.0137 -0.9613
  857TIP3    H223987   5.113   4.099   4.182 -0.4341 -0.8276 -2.6361
  858TIP3   OH223988   2.726   4.333  15.621  0.1350 -0.0682  0.1650
  858TIP3    H123989   2.677   4.375  15.691  1.4065 -0.3563  1.2617
  858TIP3    H223990   2.782   4.269  15.665  0.5292 -0.6880 -1.1728
  859TIP3   OH223991   0.924   5.192  14.380  0.0790 -0.0861  0.7801
  859TIP3    H123992   0.921   5.195  14.285  0.4809 -0.8808  0.7284
  859TIP3    H223993   1.013   5.161  14.401 -0.6808 -2.1282  1.3088
  860TIP3   OH223994   1.800   6.511   0.511  0.2147  0.1914 -0.0365
  860TIP3    H123995   1.718   6.497   0.462  1.2440 -2.4662 -1.1897
  860TIP3    H223996   1.848   6.575   0.458  0.1483 -0.5583 -1.0389
  861TIP3   OH223997   1.659   4.834   0.551  0.1876 -0.2445  0.0257
  861TIP3    H123998   1.666   4.740   0.567  1.0492 -0.0597  0.8175
  861TIP3    H223999   1.749   4.866   0.553 -0.0492  0.5052 -0.8646
  862TIP3   OH224000   5.355   1.703  11.480 -0.3257 -0.2975 -0.1378
  862TIP3    H124001   5.424   1.688  11.414 -0.3974 -0.4956 -0.1673
  862TIP3    H224002   5.382   1.651  11.555 -0.1964  0.0010  0.0275
  863TIP3   OH224003   6.146   6.222   2.046  0.2158 -0.2488  0.0961
  863TIP3    H124004   6.167   6.303   2.000 -2.6374  0.1283 -0.7042
  863TIP3    H224005   6.159   6.154   1.980 -0.0018 -0.1537 -0.0441
  864TIP3   OH224006   4.003   3.767  12.907 -0.2000 -0.1026  0.0238
  864TIP3    H124007   3.944   3.818  12.962 -0.8589 -0.5070 -0.3000
  864TIP3    H224008   3.953   3.750  12.827  1.0606  1.2760 -1.1280
  865TIP3   OH224009   1.831   6.463  17.198  0.3214  0.7288  0.2845
  865TIP3    H124010   1.836   6.487  17.106  2.7686  1.2302  0.4949
  865TIP3    H224011   1.853   6.544  17.245 -1.9121  0.7762  1.4141
  866TIP3   OH224012   0.813   4.544   3.530  0.0313  0.3364  0.6311
  866TIP3    H124013   0.846   4.466   3.486  0.4609  0.7375  0.2193
  866TIP3    H224014   0.721   4.550   3.503  0.4834  0.9962 -0.8594
  867TIP3   OH224015   3.281   4.530   1.236 -0.7746  0.3024 -0.5351
  867TIP3    H124016   3.212   4.538   1.302  0.3963  0.4720  0.7290
  867TIP3    H224017   3.361   4.553   1.283  0.1627  0.0116 -1.9294
  868TIP3   OH224018   6.153   4.607  16.007  0.0444  0.0748 -0.6971
  868TIP3    H124019   6.159   4.670  16.079  1.1883 -0.4620 -0.2987
  868TIP3    H224020   6.060   4.587  16.001 -0.0112 -0.3713  1.0897
  869TIP3   OH224021   0.774   3.452  15.258 -0.2267 -0.1802  0.6263
  869TIP3    H124022   0.784   3.391  15.185  2.0709  1.3832 -0.4688
  869TIP3    H224023   0.844   3.516  15.246 -2.0214  2.2413  2.1551
  870TIP3   OH224024   2.202   3.480   3.533  0.0022 -0.2145  0.5323
  870TIP3    H124025   2.139   3.459   3.602  0.0985 -1.0602  0.3785
  870TIP3    H224026   2.232   3.395   3.502  0.9320  0.1799  0.3329
  871TIP3   OH224027   1.441   2.533   0.578 -0.3773  0.6473  0.1719
  871TIP3    H124028   1.490   2.459   0.614 -0.2571  0.8778  0.4914
  871TIP3    H224029   1.455   2.604   0.641 -1.7635  0.4923  0.7027
  872TIP3   OH224030   1.433   4.118  15.563 -0.2553  0.1173 -0.1360
  872TIP3    H124031   1.458   4.029  15.538 -0.6818  0.5519 -2.2753
  872TIP3    H224032   1.344   4.110  15.597  0.6105 -0.5971  2.2131
  873TIP3   OH224033   2.730   5.717  15.733  0.6476 -0.1791 -0.2347
  873TIP3    H124034   2.667   5.666  15.682 -0.8557  0.0062  1.3455
  873TIP3    H224035   2.692   5.804  15.738 -0.5046 -0.7155  3.0564
  874TIP3   OH224036   2.247   1.196   2.593 -0.2436 -0.3090 -0.0683
  874TIP3    H124037   2.230   1.184   2.687  2.1167 -0.6817  0.3752
  874TIP3    H224038   2.160   1.205   2.554 -1.3549 -1.5099  1.9595
  875TIP3   OH224039   1.324   5.591   4.001  0.3793 -0.4510 -0.2721
  875TIP3    H124040   1.260   5.661   3.989  0.7105 -0.2332 -0.7895
  875TIP3    H224041   1.358   5.604   4.090 -1.4808 -1.5681  0.6544
  876TIP3   OH224042   3.559   6.376   1.725  0.3058  0.1912  0.6303
  876TIP3    H124043   3.523   6.378   1.636  0.8061  1.5900  0.4406
  876TIP3    H224044   3.492   6.330   1.776 -0.3023 -0.0234 -0.3227
  877TIP3   OH224045   5.718   6.558   4.015 -0.6659  1.2113  0.0658
  877TIP3    H124046   5.661   6.602   4.079  1.0390  1.8651  1.2148
  877TIP3    H224047   5.797   6.537   4.065 -0.3948 -0.8400 -1.1548
  878TIP3   OH224048   5.455   3.957  15.320  1.0790 -0.0566 -0.2698
  878TIP3    H124049   5.505   3.919  15.248 -0.7613 -1.5149 -0.8685
  878TIP3    H224050   5.439   3.884  15.380 -0.9927  0.1184 -0.5289
  879TIP3   OH224051   4.622   5.077  11.875  0.1413  0.0809 -0.1249
  879TIP3    H124052   4.625   5.032  11.791 -0.7631  1.0086 -0.6694
  879TIP3    H224053   4.533   5.066  11.906  0.0658  0.9663  0.0129
  880TIP3   OH224054   4.286   5.828   5.779  0.0459 -0.3187 -0.2930
  880TIP3    H124055   4.308   5.880   5.702 -1.2168  2.5764  1.1380
  880TIP3    H224056   4.196   5.799   5.765  0.3171 -1.0782 -0.5233
  881TIP3   OH224057   1.187   5.958  16.514  0.5542  0.2486  0.1362
  881TIP3    H124058   1.104   5.945  16.466  0.4832 -0.3693  0.4135
  881TIP3    H224059   1.237   6.019  16.459 -0.4833  1.4305  0.4541
  882TIP3   OH224060   4.317   0.708   4.496  0.3801  0.5709 -0.5756
  882TIP3    H124061   4.337   0.797   4.526 -1.7584  1.0447 -0.4435
  882TIP3    H224062   4.305   0.717   4.401  0.9428  0.2533 -0.6821
  883TIP3   OH224063   1.043   2.260  13.658 -0.1029  0.2238  0.2219
  883TIP3    H124064   1.129   2.235  13.623 -0.9011 -0.5080 -1.3361
  883TIP3    H224065   1.052   2.250  13.752  0.4135 -3.8649 -0.0502
  884TIP3   OH224066   4.470   2.029   1.968 -0.0406 -0.4006  0.2116
  884TIP3    H124067   4.378   2.031   1.994 -0.0598 -1.6441  0.3088
  884TIP3    H224068   4.515   2.085   2.031 -0.7173  0.1880  0.1810
  885TIP3   OH224069   2.981   1.513  14.065 -0.5652  0.3259  0.2947
  885TIP3    H124070   3.061   1.489  14.019  0.5913  0.2570  2.2112
  885TIP3    H224071   2.916   1.526  13.996  0.8256 -0.5881 -1.2579
  886TIP3   OH224072   2.616   5.676  16.376  0.7076  0.3285  0.1867
  886TIP3    H124073   2.540   5.711  16.330  0.3664  0.0844  0.5548
  886TIP3    H224074   2.688   5.687  16.315  0.0585 -1.0040 -0.8803
  887TIP3   OH224075   4.721   2.694  13.287 -0.4843  0.3301  0.3048
  887TIP3    H124076   4.639   2.742  13.282 -0.1963  0.9047  0.9752
  887TIP3    H224077   4.757   2.717  13.372 -0.3583 -1.1151  0.6701
  888TIP3   OH224078   4.212   3.205  12.280 -0.3583  0.1684  0.4646
  888TIP3    H124079   4.142   3.265  12.306 -2.1994 -1.1650 -1.0958
  888TIP3    H224080   4.172   3.118  12.283  0.7441 -0.5168 -1.9191
  889TIP3   OH224081   2.206   2.627   4.893 -0.8109  0.4745  0.4568
  889TIP3    H124082   2.239   2.652   4.807  0.9746  0.5028  1.1199
  889TIP3    H224083   2.280   2.586   4.937 -2.2694 -1.5346  1.2231
  890TIP3   OH224084   3.603   1.622  13.628 -0.0107  0.1559  0.6509
  890TIP3    H124085   3.683   1.587  13.589 -0.9703 -0.7563 -0.5504
  890TIP3    H224086   3.565   1.548  13.676  0.0886  0.7136  1.6337
  891TIP3   OH224087   0.280   0.313   5.240 -0.1929 -0.3742 -0.2631
  891TIP3    H124088   0.221   0.382   5.208  3.3333  1.6192 -3.1409
  891TIP3    H224089   0.335   0.357   5.305  1.3326 -0.7258 -1.2737
  892TIP3   OH224090   5.416   5.386  11.490  0.0039 -0.1292  0.0186
  892TIP3    H124091   5.356   5.356  11.557  0.4004 -0.4450  0.2365
  892TIP3    H224092   5.360   5.431  11.426 -0.4474 -0.3421  0.2587
  893TIP3   OH224093   6.478   0.105  11.424 -0.9342 -0.0505  0.3390
  893TIP3    H124094   6.538   0.179  11.435 -1.2523  0.1682  0.6180
  893TIP3    H224095   6.416   0.134  11.357 -0.2501 -0.5886 -0.5617
  894TIP3   OH224096   2.924   5.748   0.981 -0.3404 -0.8585 -0.1759
  894TIP3    H124097   2.899   5.663   0.944 -1.8589 -0.1251 -0.9762
  894TIP3    H224098   2.889   5.812   0.918  1.2996  0.3560  0.0844
  895TIP3   OH224099   6.670   4.569  12.882 -0.8604  0.6107  0.0915
  895TIP3    H124100   6.747   4.573  12.938  0.1134 -1.0201 -1.0429
  895TIP3    H224101   6.702   4.595  12.795 -1.2837 -1.2389 -0.6532
  896TIP3   OH224102   5.264   5.000  15.507 -0.0387 -0.0330 -0.0202
  896TIP3    H124103   5.192   4.939  15.491  0.7184 -0.5922 -1.4241
  896TIP3    H224104   5.259   5.063  15.436  0.8306 -0.0463 -0.0953
  897TIP3   OH224105   3.379   6.688   6.869 -0.5778 -0.0326  0.4497
  897TIP3    H124106   3.469   6.674   6.898 -0.8794 -0.0229  1.4299
  897TIP3    H224107   3.385   6.691   6.774  0.1823 -1.9479  0.3883
  898TIP3   OH224108   2.758   5.333  12.023  0.3803 -0.4885  0.0843
  898TIP3    H124109   2.814   5.310  11.949  0.4916 -2.3375  0.6960
  898TIP3    H224110   2.818   5.342  12.097  0.1991  0.7032  0.0976
  899TIP3   OH224111   5.910   1.081  14.242  0.3576  0.1033  0.3786
  899TIP3    H124112   5.925   1.009  14.303 -1.7600  0.5548  1.5594
  899TIP3    H224113   5.932   1.159  14.291 -0.6926  0.4295  0.3677
  900TIP3   OH224114   0.538   5.870   2.511  0.2599 -0.5515 -0.1604
  900TIP3    H124115   0.553   5.784   2.550  0.4348 -0.0237  0.9710
  900TIP3    H224116   0.612   5.923   2.540 -0.3266  0.2341 -0.0843
  901TIP3   OH224117   1.095   4.938   5.718  0.2165  0.1098  0.9280
  901TIP3    H124118   1.005   4.916   5.696 -0.0585  0.7178  1.4253
  901TIP3    H224119   1.143   4.856   5.709 -0.4289 -0.2655  0.8891
  902TIP3   OH224120   5.437   4.740   5.650  0.0967  0.3711  0.2409
  902TIP3    H124121   5.505   4.808   5.659 -0.3843  0.7076  1.5376
  902TIP3    H224122   5.486   4.659   5.642  0.6666  0.6440  0.8520
  903TIP3   OH224123   3.180   1.582  11.561 -0.4443  0.2534  0.2354
  903TIP3    H124124   3.262   1.632  11.554  0.2822 -0.9553 -0.0853
  903TIP3    H224125   3.183   1.522  11.487 -0.5986 -1.2744  1.4186
  904TIP3   OH224126   4.702   2.006  14.613 -0.3925 -0.2345  0.1856
  904TIP3    H124127   4.760   1.977  14.544 -0.7325 -0.0007 -0.2050
  904TIP3    H224128   4.688   1.928  14.667 -0.2324 -0.4522 -0.0837
  905TIP3   OH224129   6.275   6.333   4.107 -0.3122 -0.0882 -0.5092
  905TIP3    H124130   6.321   6.403   4.059 -0.4217  0.8405  0.6832
  905TIP3    H224131   6.218   6.380   4.167 -0.5927 -1.2287  0.1251
  906TIP3   OH224132   5.245   6.104  13.427 -0.1012 -0.0929 -0.6325
  906TIP3    H124133   5.163   6.151  13.439 -1.1425 -2.1038  0.6607
  906TIP3    H224134   5.302   6.138  13.496  0.3879  1.6321 -1.8109
  907TIP3   OH224135   4.971   5.836   5.521  0.0047 -0.5149  0.5640
  907TIP3    H124136   4.979   5.746   5.490  1.9304 -0.4566  0.8053
  907TIP3    H224137   4.921   5.881   5.452  1.5491 -1.0974 -0.9896
  908TIP3   OH224138   6.334   3.169  14.991 -0.4310 -0.3120 -0.0058
  908TIP3    H124139   6.350   3.218  15.072 -1.6961  0.4535 -0.1973
  908TIP3    H224140   6.410   3.188  14.936  0.8325 -1.4591  1.2673
  909TIP3   OH224141   1.396   0.281  16.563 -0.7724 -0.0063  0.8095
  909TIP3    H124142   1.467   0.278  16.627 -1.1263 -1.3353  1.1570
  909TIP3    H224143   1.342   0.356  16.590  0.0509  0.5271  1.0031
  910TIP3   OH224144   6.615   5.705   3.984  0.5229  0.2715  0.1267
  910TIP3    H124145   6.538   5.741   3.941 -1.2681 -1.6511  1.5095
  910TIP3    H224146   6.677   5.689   3.913 -0.2358  2.0678 -0.9944
  911TIP3   OH224147   1.006   4.743   3.601  0.2061  0.5821 -0.0155
  911TIP3    H124148   1.022   4.764   3.693  1.6752 -1.6990  0.3427
  911TIP3    H224149   0.939   4.675   3.604 -1.9311  2.5177 -0.8946
  912TIP3   OH224150   5.718   5.880  15.288  0.9636  0.2601  0.3371
  912TIP3    H124151   5.657   5.824  15.338  0.6556  0.7517  0.5188
  912TIP3    H224152   5.799   5.878  15.339  0.6383  0.7924  0.8950
  913TIP3   OH224153   0.887   3.300   0.941  0.2695 -1.0277 -0.5597
  913TIP3    H124154   0.814   3.308   1.002  1.0155  0.2661  0.2396
  913TIP3    H224155   0.847   3.308   0.855 -0.5123  0.2044 -0.1275
  914TIP3   OH224156   5.893   3.269   4.346  0.0073  0.3779 -0.2048
  914TIP3    H124157   5.951   3.198   4.319  1.2001  0.6079  1.5740
  914TIP3    H224158   5.818   3.224   4.386  1.9302 -0.0434  3.3384
  915TIP3   OH224159   1.144   1.309   6.093  0.0454  0.0525  0.1087
  915TIP3    H124160   1.228   1.285   6.054 -0.1782 -0.9778  0.2370
  915TIP3    H224161   1.167   1.366   6.167  0.6196 -0.1489  0.0922
  916TIP3   OH224162   5.175   4.807  13.395 -0.0513  0.7064  0.1474
  916TIP3    H124163   5.251   4.757  13.365 -0.9894 -0.7144  0.0320
  916TIP3    H224164   5.101   4.748  13.381 -0.8047  0.7017  3.4415
  917TIP3   OH224165   2.177   3.718  13.921 -0.2696 -0.7757  0.0987
  917TIP3    H124166   2.261   3.761  13.939  0.0363 -0.2157 -2.3956
  917TIP3    H224167   2.201   3.629  13.896 -0.7560 -1.8282  2.9182
  918TIP3   OH224168   2.136   0.970  17.219 -0.7082 -0.3831  0.2337
  918TIP3    H124169   2.071   0.947  17.152 -0.0624 -2.6059  0.3014
  918TIP3    H224170   2.194   1.032  17.175 -1.1904 -0.6202 -0.7676
  919TIP3   OH224171   0.192   1.848  14.339  0.3521 -0.1236  0.0503
  919TIP3    H124172   0.142   1.920  14.300 -0.2009 -0.8220 -0.5833
  919TIP3    H224173   0.170   1.851  14.432  1.7093  1.5910  0.3576
  920TIP3   OH224174   5.439   4.632  10.610  0.2472  0.3052 -0.5640
  920TIP3    H124175   5.509   4.601  10.667 -1.9243 -0.6833  1.7673
  920TIP3    H224176   5.426   4.561  10.547 -0.8016 -1.0221  1.0835
  921TIP3   OH224177   4.066   1.663  15.838  0.4594 -0.3514  0.6314
  921TIP3    H124178   4.000   1.600  15.865  0.3100 -0.5482 -0.1696
  921TIP3    H224179   4.101   1.697  15.920  0.9251 -1.8669  1.1032
  922TIP3   OH224180   5.434   4.401  16.952  0.3225  0.7611  0.0052
  922TIP3    H124181   5.516   4.352  16.956  0.3282  0.8229  1.2949
  922TIP3    H224182   5.451   4.480  17.003 -0.3978  0.9946 -0.0969
  923TIP3   OH224183   6.546   1.493   4.873 -0.0424 -0.0822 -0.1043
  923TIP3    H124184   6.602   1.418   4.858 -1.2162 -1.0306  0.0738
  923TIP3    H224185   6.584   1.563   4.820  0.6853 -0.9916 -0.8099
  924TIP3   OH224186   6.618   2.345  16.842 -0.1198 -0.5155 -0.0016
  924TIP3    H124187   6.663   2.425  16.866 -0.1494  0.5770 -3.1403
  924TIP3    H224188   6.528   2.357  16.873  0.1535  0.1526  0.5391
  925TIP3   OH224189   4.931   0.788   0.054  0.2413  0.1378  0.1598
  925TIP3    H124190   4.888   0.704   0.038  0.9850 -0.0036 -1.2854
  925TIP3    H224191   4.880   0.851   0.002  0.1734  0.4467  0.5921
  926TIP3   OH224192   0.012   3.397   1.648  0.6942 -0.0514  0.1324
  926TIP3    H124193  -0.057   3.449   1.690  0.5372  0.6798 -0.9804
  926TIP3    H224194  -0.019   3.307   1.654  0.3427  0.1071  0.9257
  927TIP3   OH224195   2.043   1.644   0.213 -0.3047 -0.4417  0.3204
  927TIP3    H124196   2.011   1.588   0.285 -0.9752  0.1649  0.5100
  927TIP3    H224197   1.964   1.662   0.161  0.2251 -1.1121 -0.7433
  928TIP3   OH224198   1.203   2.898   4.811 -0.3522  0.4396  0.0529
  928TIP3    H124199   1.121   2.848   4.814 -0.1645 -0.0084 -1.2699
  928TIP3    H224200   1.175   2.989   4.811 -0.7900  0.3121  0.7592
  929TIP3   OH224201   3.505   0.969  11.751 -0.6290 -0.2662  0.3107
  929TIP3    H124202   3.589   0.924  11.746  0.0039  0.6061  2.1974
  929TIP3    H224203   3.459   0.927  11.824 -1.1785  0.3129  0.3134
  930TIP3   OH224204   2.315   6.414  14.007 -0.8767 -0.8545 -0.0860
  930TIP3    H124205   2.306   6.360  14.086 -1.5024 -0.2758  0.2475
  930TIP3    H224206   2.397   6.462  14.019  0.1470 -2.3466 -0.7814
  931TIP3   OH224207   5.125   1.555   1.818 -0.1324  0.7764 -0.0545
  931TIP3    H124208   5.187   1.544   1.890  0.9163  1.4173 -0.8294
  931TIP3    H224209   5.051   1.602   1.856 -0.4381 -0.5589  1.0336
  932TIP3   OH224210   5.449   4.023   2.808 -0.8596  0.3237 -0.0452
  932TIP3    H124211   5.514   4.093   2.801 -1.2375  0.6903  0.1154
  932TIP3    H224212   5.434   3.995   2.718 -0.1446 -0.0724 -0.0499
  933TIP3   OH224213   4.677   0.269  12.291  0.1121  0.0362  0.2770
  933TIP3    H124214   4.697   0.346  12.345  0.9157  0.8185 -1.0921
  933TIP3    H224215   4.758   0.219  12.290  0.1319  0.0784 -0.2921
  934TIP3   OH224216   6.528   1.158   5.411  0.5783 -0.1178  0.0081
  934TIP3    H124217   6.471   1.083   5.425  0.9661 -0.2038  1.2953
  934TIP3    H224218   6.614   1.120   5.394  0.5507  0.0243 -0.4523
  935TIP3   OH224219   1.273   0.765   3.917  0.4480  0.4491 -0.5935
  935TIP3    H124220   1.315   0.719   3.844 -0.6833  2.4222 -2.6118
  935TIP3    H224221   1.329   0.747   3.992  2.1281 -1.0254 -2.1051
  936TIP3   OH224222   4.782   4.456  15.655  0.0000 -0.0647  0.2495
  936TIP3    H124223   4.730   4.534  15.676 -1.3197 -1.0863  0.8719
  936TIP3    H224224   4.758   4.392  15.722  1.9873 -0.6245  0.4908
  937TIP3   OH224225   2.633   1.444   5.628  0.3629 -0.0895  0.5274
  937TIP3    H124226   2.539   1.439   5.643  0.6073 -3.9213  1.9606
  937TIP3    H224227   2.643   1.429   5.534 -0.4568  2.4785 -0.0252
  938TIP3   OH224228   5.869   1.773   3.301 -0.1501 -0.7384  0.1328
  938TIP3    H124229   5.783   1.806   3.276  0.8717  0.8085 -1.5361
  938TIP3    H224230   5.902   1.729   3.223  1.0622 -0.2210  0.3329
  939TIP3   OH224231   5.160   4.116   4.863 -0.0081 -0.5714  0.0288
  939TIP3    H124232   5.149   4.211   4.871  0.5505 -0.5737  1.0821
  939TIP3    H224233   5.071   4.081   4.867 -0.1721 -0.1329  0.4094
  940TIP3   OH224234   4.953   4.511   5.959  0.6704 -0.1686  0.1169
  940TIP3    H124235   4.921   4.566   5.888  1.5092  1.8799  1.2419
  940TIP3    H224236   4.874   4.487   6.008  0.3888  1.2243  0.3932
  941TIP3   OH224237   2.451   5.514   3.146 -0.1706  0.1037  0.0466
  941TIP3    H124238   2.440   5.426   3.182  1.3084  0.0427  0.4054
  941TIP3    H224239   2.473   5.568   3.221  0.1911  0.5236 -0.3551
  942TIP3   OH224240   6.176   0.522  16.290  0.0531 -0.4074 -0.3976
  942TIP3    H124241   6.163   0.568  16.373 -0.0007  0.6449 -0.9595
  942TIP3    H224242   6.214   0.438  16.314  1.8682  0.6306  0.5945
  943TIP3   OH224243   6.031   2.627   3.814 -0.8863  0.0485  0.0690
  943TIP3    H124244   6.074   2.693   3.759 -0.4706  0.4559  0.8808
  943TIP3    H224245   5.986   2.570   3.751  0.0202  0.1938 -0.7343
  944TIP3   OH224246   2.315   3.030   4.104 -0.2338  0.2605 -0.3677
  944TIP3    H124247   2.283   2.958   4.049  0.2565  0.8430 -1.4272
  944TIP3    H224248   2.400   2.999   4.136 -0.2978  0.1232 -0.3270
  945TIP3   OH224249   4.556   4.773   2.408 -0.4501  1.1076  0.3673
  945TIP3    H124250   4.479   4.756   2.354  0.3454  0.0989 -0.5155
  945TIP3    H224251   4.605   4.840   2.360 -0.0785  0.7039  0.1714
  946TIP3   OH224252   2.075   2.031   2.797 -0.3360 -0.3614  0.2622
  946TIP3    H124253   2.020   2.025   2.719 -0.6384 -1.2994  0.5303
  946TIP3    H224254   2.019   2.072   2.863  0.4982  2.2081 -0.4798
  947TIP3   OH224255   3.177   0.758   6.716  0.2385 -0.0278  0.6905
  947TIP3    H124256   3.123   0.775   6.639 -1.1262 -0.0960  1.5971
  947TIP3    H224257   3.183   0.843   6.760  0.5469 -0.1028  0.7937
  948TIP3   OH224258   2.919   6.390  14.105 -0.0775 -0.4453 -0.1583
  948TIP3    H124259   2.828   6.420  14.102 -0.5308 -1.6426  0.9421
  948TIP3    H224260   2.941   6.388  14.198  1.2021  0.1354 -0.4284
  949TIP3   OH224261   1.806   0.692   0.873 -0.1515 -0.8320 -0.2401
  949TIP3    H124262   1.851   0.613   0.902  2.8749  0.6332 -0.5886
  949TIP3    H224263   1.786   0.740   0.953  0.9887 -0.4807 -0.1457
  950TIP3   OH224264   0.841   5.530   5.746  0.2247 -0.2339  0.3465
  950TIP3    H124265   0.906   5.546   5.814  0.2501 -0.8243  0.4664
  950TIP3    H224266   0.757   5.526   5.792 -0.0591  1.6428  0.0594
  951TIP3   OH224267   5.139   5.296   1.045  0.5511  0.0761 -1.0780
  951TIP3    H124268   5.208   5.264   0.986  0.1251 -1.6554 -0.6824
  951TIP3    H224269   5.135   5.231   1.115  0.5616  1.7243  0.5261
  952TIP3   OH224270   3.909   1.338  15.287  0.3575 -0.8242  0.0346
  952TIP3    H124271   3.826   1.297  15.262  0.9504 -3.3230  1.7649
  952TIP3    H224272   3.935   1.292  15.367  3.1802  0.1886 -0.1932
  953TIP3   OH224273   5.637   3.958   4.279  0.4753  0.0388 -0.2738
  953TIP3    H124274   5.622   4.033   4.338  2.3369  0.4416 -0.2470
  953TIP3    H224275   5.731   3.940   4.288  0.4330 -1.0496 -1.7755
  954TIP3   OH224276   5.450   5.403  12.981  0.5121 -0.1872  0.2026
  954TIP3    H124277   5.410   5.434  12.900  0.1921 -1.0971 -0.0073
  954TIP3    H224278   5.543   5.395  12.959  0.1834 -2.2063 -0.7083
  955TIP3   OH224279   5.212   4.672   2.313  1.3729 -0.0224 -0.2543
  955TIP3    H124280   5.199   4.725   2.391  1.2419  1.2240 -1.1098
  955TIP3    H224281   5.260   4.595   2.345  2.8459  1.2548  0.7880
  956TIP3   OH224282   3.842   3.899   0.929 -0.1233  0.1749 -0.1889
  956TIP3    H124283   3.769   3.913   0.990  1.0587  0.6901  1.1467
  956TIP3    H224284   3.837   3.973   0.868 -0.7580  0.1490 -0.1813
  957TIP3   OH224285   4.698   0.946   2.695  0.1848  0.2457  0.0004
  957TIP3    H124286   4.709   0.860   2.735  1.1105 -0.0051 -0.7693
  957TIP3    H224287   4.699   1.007   2.770  2.0885 -0.2005  0.3832
  958TIP3   OH224288   2.981   2.338   2.465 -0.1336  0.4859  0.0960
  958TIP3    H124289   3.010   2.325   2.374 -1.2758 -1.1600 -0.0738
  958TIP3    H224290   3.032   2.275   2.515  0.6121  1.5046  0.6505
  959TIP3   OH224291   1.054   3.693   1.681  0.6664 -0.1471 -0.2650
  959TIP3    H124292   1.099   3.717   1.600  0.7406  0.3530 -0.0814
  959TIP3    H224293   0.964   3.674   1.654  0.5378  0.6147 -0.3817
  960TIP3   OH224294   4.525   5.479   1.317  0.3837  0.2831 -0.4176
  960TIP3    H124295   4.488   5.441   1.238  2.6668  1.4353 -2.1698
  960TIP3    H224296   4.526   5.573   1.301  2.5468  0.4197  0.1240
  961TIP3   OH224297   4.074   3.513  16.345 -0.0348 -0.2092  0.0890
  961TIP3    H124298   4.155   3.505  16.395 -0.4771 -2.0013  0.5921
  961TIP3    H224299   4.082   3.449  16.274 -0.9100 -0.2506  0.0124
  962TIP3   OH224300   3.352   2.942   1.603 -0.1077  0.8137  0.0476
  962TIP3    H124301   3.299   3.019   1.584 -0.4555  0.5840  0.0869
  962TIP3    H224302   3.441   2.976   1.614 -0.5987  1.5200  2.2919
  963TIP3   OH224303   3.496   0.328   4.454 -0.3943 -0.7435  0.2119
  963TIP3    H124304   3.442   0.276   4.394 -0.1256  0.1606 -0.8553
  963TIP3    H224305   3.584   0.324   4.416 -0.2899  0.1143  0.3536
  964TIP3   OH224306   4.682   2.572  13.606 -0.2644 -0.6524  0.6264
  964TIP3    H124307   4.727   2.657  13.608 -1.8597  0.2503  0.1186
  964TIP3    H224308   4.639   2.566  13.691 -1.9680  0.1181 -0.1397
  965TIP3   OH224309   4.103   1.179   4.846 -0.2687  0.2872 -1.2641
  965TIP3    H124310   4.059   1.262   4.865 -0.7367  0.3417 -2.4671
  965TIP3    H224311   4.076   1.159   4.756  0.2798 -0.8917 -1.1729
  966TIP3   OH224312   5.594   1.860   3.187  0.4258 -0.2224 -0.2533
  966TIP3    H124313   5.530   1.789   3.198  0.2648 -0.1095 -0.4624
  966TIP3    H224314   5.602   1.871   3.092 -0.6535  1.0346 -0.2209
  967TIP3   OH224315   1.389   2.058  13.859  0.2226  0.7985 -0.4068
  967TIP3    H124316   1.403   2.150  13.837 -1.5039  1.0015 -0.7981
  967TIP3    H224317   1.364   2.058  13.951 -0.2927  0.7992 -0.5401
  968TIP3   OH224318   6.638   5.645  14.033 -0.2200 -0.7093 -0.3179
  968TIP3    H124319   6.590   5.631  14.115  0.8725  1.1684  0.7157
  968TIP3    H224320   6.729   5.628  14.055 -0.0136 -1.1442 -1.4301
  969TIP3   OH224321   0.019   4.127   4.502 -0.5017 -0.5636 -0.0443
  969TIP3    H124322   0.109   4.138   4.471 -0.4806 -1.5580 -0.3704
  969TIP3    H224323   0.011   4.188   4.575  0.1358  0.2280 -0.6196
  970TIP3   OH224324   0.595   6.714  17.148 -0.0540  0.6627 -0.0214
  970TIP3    H124325   0.591   6.772  17.224 -0.2581 -0.1848  0.6267
  970TIP3    H224326   0.568   6.629  17.181 -1.2250  0.5049 -1.2822
  971TIP3   OH224327   5.962   1.139  13.958  0.3828 -0.1651  0.8831
  971TIP3    H124328   6.051   1.137  13.922  0.3180 -0.9630  0.7545
  971TIP3    H224329   5.975   1.129  14.053  0.3359 -2.5442  0.6813
  972TIP3   OH224330   5.357   5.867   0.193 -0.1359 -0.2003  0.3116
  972TIP3    H124331   5.274   5.916   0.194  0.3300  0.6718 -0.7454
  972TIP3    H224332   5.399   5.888   0.276 -0.6423 -0.0351  0.5260
  973TIP3   OH224333   4.421   4.685   6.699 -0.2041  0.3793  0.6338
  973TIP3    H124334   4.508   4.666   6.733  0.3855  0.0190 -0.9975
  973TIP3    H224335   4.390   4.601   6.664  0.1241  1.1216 -1.6116
  974TIP3   OH224336   2.555   5.132  16.924 -0.5954 -0.3992  0.1136
  974TIP3    H124337   2.525   5.223  16.931 -0.3025 -0.3896  1.4078
  974TIP3    H224338   2.650   5.137  16.933 -0.3766 -0.6788 -1.6098
  975TIP3   OH224339   1.999   3.691   6.200 -0.7233  0.3704  0.5972
  975TIP3    H124340   1.917   3.660   6.161 -0.4128 -0.0880  0.3018
  975TIP3    H224341   1.983   3.688   6.295 -0.9356 -0.0394  0.5530
  976TIP3   OH224342   5.651   4.950  16.152 -0.1019  0.3045  0.5523
  976TIP3    H124343   5.585   4.881  16.150  0.6913 -0.4837  0.2552
  976TIP3    H224344   5.621   5.014  16.088  0.8198 -1.4394 -1.7850
  977TIP3   OH224345   2.769   1.505  13.878  0.3918 -0.2305 -0.1884
  977TIP3    H124346   2.724   1.440  13.932 -0.6565  0.6423  0.0308
  977TIP3    H224347   2.789   1.460  13.796 -2.2307 -0.2949 -0.8961
  978TIP3   OH224348   3.755   3.133   1.437  0.2606  0.1293 -0.6461
  978TIP3    H124349   3.847   3.153   1.454  0.6238 -0.7898 -1.4117
  978TIP3    H224350   3.756   3.043   1.405 -0.9538 -0.0150 -0.3194
  979TIP3   OH224351   6.006   2.756   5.826  0.5665  0.3981 -0.6163
  979TIP3    H124352   6.062   2.683   5.799  0.3337  0.1785 -0.5207
  979TIP3    H224353   6.012   2.819   5.755  0.8014  0.3022 -0.6833
  980TIP3   OH224354   5.576   0.686  11.023  0.4681  0.3854  0.2035
  980TIP3    H124355   5.668   0.672  11.044  1.0476  2.2587 -0.8167
  980TIP3    H224356   5.577   0.720  10.933 -1.2955 -0.3395 -0.1313
  981TIP3   OH224357   5.298   6.485  17.222 -0.4646 -0.2117  0.0825
  981TIP3    H124358   5.341   6.408  17.259  0.4200  0.9371  1.5444
  981TIP3    H224359   5.349   6.506  17.144 -1.1847 -1.5208 -0.7853
  982TIP3   OH224360   3.962   3.375  12.237 -0.2611  0.1306 -0.2814
  982TIP3    H124361   3.903   3.396  12.309  0.6678  0.3825  0.4249
  982TIP3    H224362   3.961   3.452  12.181 -1.0464 -0.0956 -0.5991
  983TIP3   OH224363   1.072   5.844   5.873  0.8385 -0.1886 -0.9090
  983TIP3    H124364   1.025   5.771   5.912 -0.1542  0.9949  0.1953
  983TIP3    H224365   1.127   5.877   5.943 -0.2619  1.3812 -0.7349
  984TIP3   OH224366   6.077   4.779  13.925 -0.1802 -0.6258  0.0183
  984TIP3    H124367   6.000   4.816  13.882 -1.2043 -1.3519  1.1372
  984TIP3    H224368   6.070   4.807  14.016  0.5858 -1.1568  0.2584
  985TIP3   OH224369   3.355   2.522   2.971  0.2148 -0.0613 -0.0245
  985TIP3    H124370   3.316   2.579   3.038  0.0393 -1.5999  1.2347
  985TIP3    H224371   3.447   2.546   2.971  0.0317  0.6876 -0.0048
  986TIP3   OH224372   3.313   2.908   4.557  0.4482 -0.1691 -0.1261
  986TIP3    H124373   3.369   2.956   4.496  1.3020  0.2393  0.9339
  986TIP3    H224374   3.359   2.914   4.641 -0.7857 -0.5476  0.6025
  987TIP3   OH224375   0.908   5.061  11.990 -0.4037 -0.5022 -0.4835
  987TIP3    H124376   0.914   5.012  12.072 -3.0407 -0.4513 -0.1852
  987TIP3    H224377   0.947   5.146  12.010 -0.0390 -0.8653  0.3960
  988TIP3   OH224378   1.992   5.230   3.832  0.8561  0.2058 -0.1483
  988TIP3    H124379   1.970   5.141   3.861 -1.0062  0.4490 -0.7091
  988TIP3    H224380   2.016   5.276   3.913 -1.3915  0.0636  0.6533
  989TIP3   OH224381   2.130   1.719  16.217 -0.1987 -0.3551 -0.7723
  989TIP3    H124382   2.221   1.704  16.192  1.0518  3.0264  1.0157
  989TIP3    H224383   2.084   1.730  16.134  1.3211 -0.7723 -1.7071
  990TIP3   OH224384   2.930   5.472   0.940 -0.3091  0.0434  0.1553
  990TIP3    H124385   2.860   5.452   1.002  0.1400  1.8642  1.3255
  990TIP3    H224386   3.010   5.445   0.984 -0.0585  0.5058 -0.0081
  991TIP3   OH224387   6.343   0.627  14.081 -0.1251  0.2842  0.4300
  991TIP3    H124388   6.399   0.657  14.010 -0.4357 -0.2477 -0.0442
  991TIP3    H224389   6.302   0.548  14.048 -1.4697  0.8834  0.6172
  992TIP3   OH224390   0.497   6.085   3.886 -0.0780 -0.4674 -0.1827
  992TIP3    H124391   0.510   6.104   3.793  2.8210  0.5332  0.3397
  992TIP3    H224392   0.411   6.122   3.906  0.6360  2.3280 -1.7622
  993TIP3   OH224393   6.468   0.521  16.765 -0.2644  0.3880 -0.1773
  993TIP3    H124394   6.553   0.518  16.808  0.9701  0.0059 -2.4765
  993TIP3    H224395   6.459   0.436  16.722 -2.0112  0.2689  0.3528
  994TIP3   OH224396   3.594   1.785  14.239  0.3726  0.2535  0.0428
  994TIP3    H124397   3.548   1.793  14.322  0.2450 -0.6171  0.0612
  994TIP3    H224398   3.612   1.692  14.230 -0.6289  0.1596 -1.4506
  995TIP3   OH224399   2.761   4.693  11.228  0.0068  0.4711 -0.2237
  995TIP3    H124400   2.740   4.785  11.246 -0.6507  0.8134 -2.4441
  995TIP3    H224401   2.856   4.694  11.213 -0.0488  0.8655 -0.5825
  996TIP3   OH224402   5.978   6.189   0.761  0.2368  0.9383  0.3115
  996TIP3    H124403   5.904   6.208   0.819 -0.4211 -0.3386 -0.0629
  996TIP3    H224404   6.012   6.105   0.794 -0.4320 -0.0495 -1.3820
  997TIP3   OH224405   5.022   2.503   6.439  0.6430 -0.0638 -0.1151
  997TIP3    H124406   5.109   2.502   6.399  1.0908  2.2956  0.6378
  997TIP3    H224407   5.037   2.472   6.528  0.7130  0.3416  0.0141
  998TIP3   OH224408   4.945   2.642   4.415  0.2717 -0.0817  0.3511
  998TIP3    H124409   4.954   2.677   4.504  0.4247  0.0015  0.3041
  998TIP3    H224410   4.989   2.557   4.418  1.4118  0.4680  0.0387
  999TIP3   OH224411   2.065   0.049  14.995 -0.3698  0.1728  0.3870
  999TIP3    H124412   2.016   0.050  15.077 -2.2464  2.0014 -0.6556
  999TIP3    H224413   2.016  -0.011  14.938  0.7002 -0.7888  0.4316
 1000TIP3   OH224414   2.967   0.794   2.783  0.2159 -0.0033 -0.3285
 1000TIP3    H124415   2.999   0.879   2.753  2.3759 -1.3147 -2.0595
 1000TIP3    H224416   2.909   0.764   2.713 -0.1390 -0.1605  0.0320
 1001TIP3   OH224417   4.341   6.057   5.300  0.0615  0.3705  0.2339
 1001TIP3    H124418   4.372   5.995   5.235 -0.4204 -0.4392  0.7630
 1001TIP3    H224419   4.279   6.114   5.253 -0.6832 -0.5351  0.0982
 1002TIP3   OH224420   4.108   3.979   5.270  0.7121 -0.0926 -0.3479
 1002TIP3    H124421   4.077   4.034   5.342  0.8777 -1.6167  0.9164
 1002TIP3    H224422   4.187   4.024   5.238  1.5697 -0.2294  1.4810
 1003TIP3   OH224423   1.930   0.003   0.319 -0.3771 -0.2015 -0.7154
 1003TIP3    H124424   1.846   0.036   0.288 -0.7155  0.8605  1.1785
 1003TIP3    H224425   1.994   0.042   0.260 -1.1375 -0.3674 -1.6810
 1004TIP3   OH224426   4.867   1.350   5.824  0.6395  0.3619 -0.6874
 1004TIP3    H124427   4.847   1.431   5.778 -0.2404  1.2265  1.1187
 1004TIP3    H224428   4.819   1.357   5.907  0.5781 -1.9818 -0.4524
 1005TIP3   OH224429   1.531   0.365  15.672 -0.4223 -0.2122  0.3872
 1005TIP3    H124430   1.535   0.328  15.584  1.6543 -1.4462  0.9240
 1005TIP3    H224431   1.622   0.389  15.692 -0.7589 -0.4144  2.3575
 1006TIP3   OH224432   3.400   1.952   3.269 -0.0763 -0.0648 -0.7138
 1006TIP3    H124433   3.470   2.016   3.259  1.1669 -1.2939 -0.2988
 1006TIP3    H224434   3.431   1.875   3.222  0.6425 -1.9486  2.5396
 1007TIP3   OH224435   0.843   4.407  13.558  0.1808 -0.0436 -0.6643
 1007TIP3    H124436   0.801   4.377  13.638  0.6617 -0.1673 -0.4523
 1007TIP3    H224437   0.873   4.495  13.578  1.7764 -0.6740 -0.1292
 1008TIP3   OH224438   5.497   3.057  16.943 -0.3222  0.1523  0.3413
 1008TIP3    H124439   5.511   2.983  17.003  1.9795 -0.4902 -0.8497
 1008TIP3    H224440   5.453   3.018  16.867  0.2830  0.1003  0.0039
 1009TIP3   OH224441   2.209   0.083  15.622  0.2214 -0.2946  0.1869
 1009TIP3    H124442   2.183   0.145  15.690  1.7759  2.6012 -1.6753
 1009TIP3    H224443   2.289   0.119  15.585 -0.9814 -1.1235 -3.7957
 1010TIP3   OH224444   0.625   1.240   3.640  0.0448 -0.1271 -0.5555
 1010TIP3    H124445   0.632   1.303   3.568 -0.4167 -0.8082 -1.2049
 1010TIP3    H224446   0.715   1.219   3.662  0.1869 -0.2867 -1.2686
 1011TIP3   OH224447   0.322   4.021   1.415 -0.2382 -0.2953 -0.2816
 1011TIP3    H124448   0.330   3.935   1.375  0.0845 -0.2875 -0.2343
 1011TIP3    H224449   0.308   4.081   1.342  2.7484  0.0683 -0.6737
 1012TIP3   OH224450   2.787   0.642   1.508 -0.1404 -0.4185 -0.4701
 1012TIP3    H124451   2.760   0.553   1.488  0.4316 -0.6392 -0.3033
 1012TIP3    H224452   2.841   0.669   1.433  1.4676 -1.0122  0.4098
 1013TIP3   OH224453   1.162   1.499  15.945  0.1111  0.5687 -0.0077
 1013TIP3    H124454   1.183   1.584  15.905  1.5675 -0.7668 -2.3017
 1013TIP3    H224455   1.066   1.496  15.945  0.0507  1.6286 -1.2320
 1014TIP3   OH224456   0.290   1.072   3.341  0.3623 -0.1068  0.3331
 1014TIP3    H124457   0.278   0.998   3.400  0.2070 -1.4368 -1.2770
 1014TIP3    H224458   0.385   1.077   3.328  0.6137  1.5686  2.2906
 1015TIP3   OH224459   3.786   4.304   4.914  0.6612  0.6407 -0.1336
 1015TIP3    H124460   3.869   4.332   4.953  0.9394 -0.2478 -0.0808
 1015TIP3    H224461   3.754   4.382   4.869  0.2995  1.7293  1.8975
 1016TIP3   OH224462   0.690   1.334  17.061 -0.5425 -0.6949  0.0604
 1016TIP3    H124463   0.677   1.422  17.097 -0.6323 -0.4277 -0.6180
 1016TIP3    H224464   0.715   1.348  16.970 -2.3192 -1.4030 -0.5977
 1017TIP3   OH224465   2.548   0.364  16.063 -0.2230 -0.3357 -0.4067
 1017TIP3    H124466   2.556   0.302  16.135 -0.9630 -0.5217 -0.4791
 1017TIP3    H224467   2.638   0.374  16.031 -0.0327 -1.0622 -0.1392
 1018TIP3   OH224468   3.685   1.388  12.176 -0.4083 -0.5363  0.2678
 1018TIP3    H124469   3.615   1.452  12.192  0.6034  0.6446  0.1674
 1018TIP3    H224470   3.647   1.326  12.113 -1.0043  0.7401 -0.6863
 1019TIP3   OH224471   2.170   5.436  16.501 -0.0746 -0.0565  0.1535
 1019TIP3    H124472   2.125   5.501  16.447  1.2060 -0.4574 -1.4534
 1019TIP3    H224473   2.262   5.460  16.496  0.4635 -2.0820 -0.6704
 1020TIP3   OH224474   3.403   6.076   5.945  0.5217  0.1550 -0.1941
 1020TIP3    H124475   3.454   6.112   5.873 -0.0223  0.9505 -0.1998
 1020TIP3    H224476   3.372   5.992   5.912 -0.3973  0.8571 -1.2276
 1021TIP3   OH224477   1.201   1.316   4.789  0.3820 -0.4407 -0.1610
 1021TIP3    H124478   1.211   1.382   4.721  0.1756  0.5163  0.7021
 1021TIP3    H224479   1.232   1.360   4.869 -0.8648 -0.9829  0.6442
 1022TIP3   OH224480   0.208   4.442  12.977 -0.0568  0.1404 -0.9225
 1022TIP3    H124481   0.186   4.397  13.059  2.5250 -0.3741 -0.4100
 1022TIP3    H224482   0.252   4.523  13.006 -1.2914  1.1779 -1.8406
 1023TIP3   OH224483   0.130   2.010  17.211 -0.2098 -0.0537  0.3535
 1023TIP3    H124484   0.068   2.040  17.144 -1.6783 -1.9130  0.7949
 1023TIP3    H224485   0.080   1.949  17.265  1.6327 -0.5415  1.6192
 1024TIP3   OH224486   4.629   3.782   3.686  0.0597 -0.1243 -0.0072
 1024TIP3    H124487   4.715   3.750   3.713  1.5451  2.4057 -1.3314
 1024TIP3    H224488   4.636   3.878   3.692 -3.2613  0.1693  1.4255
 1025TIP3   OH224489   3.749   4.065  14.123  0.0465 -0.1537  0.1810
 1025TIP3    H124490   3.773   3.979  14.089 -2.1269  0.1210 -2.3493
 1025TIP3    H224491   3.656   4.059  14.141 -0.0396  1.5060  0.4883
 1026TIP3   OH224492   4.748   1.836  16.021 -0.3875 -0.2717  0.4452
 1026TIP3    H124493   4.659   1.870  16.018 -0.0326  1.0405  2.7320
 1026TIP3    H224494   4.747   1.772  16.092  0.5400 -0.0966  0.6305
 1027TIP3   OH224495   6.376   4.650   0.142  0.2089 -0.1384  0.8331
 1027TIP3    H124496   6.459   4.652   0.095  0.4034  1.2830  1.1770
 1027TIP3    H224497   6.385   4.578   0.204  0.7284 -0.7344  0.0784
 1028TIP3   OH224498   3.556   3.483  13.811  0.7055 -0.2962  0.1807
 1028TIP3    H124499   3.529   3.425  13.883  1.3342 -1.2461 -0.3207
 1028TIP3    H224500   3.474   3.511  13.770  0.3748 -0.4841  0.7059
 1029TIP3   OH224501   0.328   2.971  15.558 -0.1580  0.2620  0.2069
 1029TIP3    H124502   0.345   3.043  15.620  1.0460  0.3806 -0.2270
 1029TIP3    H224503   0.300   3.014  15.478 -2.1396  0.0873  0.7597
 1030TIP3   OH224504   6.523   3.489  17.067  0.2703  0.3359  0.3419
 1030TIP3    H124505   6.618   3.500  17.057  0.4775  0.1332  1.9095
 1030TIP3    H224506   6.504   3.521  17.155 -1.0851  0.0764  0.1651
 1031TIP3   OH224507   4.055   2.707   0.570  0.5801 -0.3531 -0.4449
 1031TIP3    H124508   4.101   2.652   0.633  1.0929  0.8994  0.3080
 1031TIP3    H224509   3.965   2.674   0.571  1.2072 -2.2319 -1.2590
 1032TIP3   OH224510   5.985   3.364   0.543  0.3411 -0.4440  0.3588
 1032TIP3    H124511   6.005   3.282   0.498 -0.2222 -0.8841  0.8925
 1032TIP3    H224512   5.946   3.337   0.626  0.7628  0.3601  0.8360
 1033TIP3   OH224513   0.256   4.960  13.869  0.3776  0.1483  0.0159
 1033TIP3    H124514   0.211   5.032  13.825 -1.4486 -0.4523  0.8338
 1033TIP3    H224515   0.299   5.002  13.945  3.0060  1.0697 -1.8248
 1034TIP3   OH224516   2.810   3.504   3.391  0.0592  0.1356 -0.2988
 1034TIP3    H124517   2.865   3.512   3.469 -1.1842 -0.4749  0.6767
 1034TIP3    H224518   2.812   3.591   3.351  0.9923  0.3597  0.2157
 1035TIP3   OH224519   3.056   5.180  13.585 -0.6335  0.2012 -0.0368
 1035TIP3    H124520   2.987   5.241  13.610  0.6389  2.1110 -0.9612
 1035TIP3    H224521   3.052   5.176  13.490 -0.0665 -0.4166 -0.0464
 1036TIP3   OH224522   0.376   3.414   5.830 -0.1621  0.5663  0.7215
 1036TIP3    H124523   0.446   3.350   5.824 -1.1021 -0.6263  1.7585
 1036TIP3    H224524   0.310   3.384   5.767  0.8340  2.5231 -1.3587
 1037TIP3   OH224525   5.197   5.183  12.457  0.2292 -0.3774  0.0636
 1037TIP3    H124526   5.159   5.248  12.398 -1.2577  0.3921  1.7559
 1037TIP3    H224527   5.165   5.208  12.544  0.8906 -2.4732  0.9808
 1038TIP3   OH224528   0.378   5.489   2.883  0.1488 -0.1627 -0.3467
 1038TIP3    H124529   0.322   5.420   2.850  0.7736  0.5129 -3.0271
 1038TIP3    H224530   0.460   5.445   2.907  0.0672 -0.5196 -0.7310
 1039TIP3   OH224531   2.228   4.774  16.816  0.5117  0.2974 -0.2226
 1039TIP3    H124532   2.258   4.864  16.804  0.9316  0.0495 -1.1306
 1039TIP3    H224533   2.186   4.752  16.732 -1.5264  0.3681  0.7236
 1040TIP3   OH224534   5.063   4.065   0.787  0.2617 -0.3444 -0.0441
 1040TIP3    H124535   4.993   4.062   0.721  0.8954 -0.0447 -0.7418
 1040TIP3    H224536   5.031   4.128   0.852 -0.2981 -0.5177 -0.1451
 1041TIP3   OH224537   3.235   0.977   0.296 -0.2819  0.3109 -0.0781
 1041TIP3    H124538   3.289   1.005   0.222 -1.2353 -0.3926 -1.0762
 1041TIP3    H224539   3.287   0.998   0.373 -0.3051  3.5587 -0.7727
 1042TIP3   OH224540   0.895   5.573   3.409 -0.4050 -0.4232 -0.4382
 1042TIP3    H124541   0.801   5.573   3.394 -0.0957 -0.2229 -2.7453
 1042TIP3    H224542   0.933   5.551   3.324  1.6697  0.8938  0.0580
 1043TIP3   OH224543   1.627   4.368   5.778  0.1589  0.7443  0.1741
 1043TIP3    H124544   1.601   4.325   5.860 -0.7127  0.2478 -0.3458
 1043TIP3    H224545   1.553   4.424   5.756  0.4800  1.0427 -0.1623
 1044TIP3   OH224546   4.480   5.480  16.747  0.1338 -0.1140  0.0123
 1044TIP3    H124547   4.473   5.575  16.737  0.3395  0.0782  1.4604
 1044TIP3    H224548   4.434   5.461  16.829 -0.0086 -1.2768 -0.3215
 1045TIP3   OH224549   3.795   5.244   4.575  0.2302  0.5128  0.0427
 1045TIP3    H124550   3.788   5.335   4.543  2.0534  0.0439 -1.9028
 1045TIP3    H224551   3.874   5.210   4.534 -0.3921 -1.9817  0.7355
 1046TIP3   OH224552   4.428   0.482  11.720  0.2004 -0.2777  0.1134
 1046TIP3    H124553   4.512   0.461  11.762  0.3651 -0.0787 -0.1113
 1046TIP3    H224554   4.362   0.464  11.787  0.4044 -0.6509  0.2158
 1047TIP3   OH224555   4.836   3.067  13.129 -0.1711  0.5115 -0.1914
 1047TIP3    H124556   4.806   2.984  13.093  0.7524  0.3595 -0.6428
 1047TIP3    H224557   4.787   3.134  13.080 -1.0538  0.2433  0.3048
 1048TIP3   OH224558   1.586   1.527   1.826  0.0145 -0.6464 -0.0511
 1048TIP3    H124559   1.626   1.552   1.910  0.5063  2.1670 -1.0205
 1048TIP3    H224560   1.660   1.523   1.765 -0.7091  1.2749 -1.1409
 1049TIP3   OH224561   3.721   4.589   4.861  0.2990 -0.2355  0.0122
 1049TIP3    H124562   3.642   4.594   4.807  1.4225 -1.2177 -1.8521
 1049TIP3    H224563   3.774   4.664   4.833  0.0207  0.4903  1.3393
 1050TIP3   OH224564   3.407   2.138   3.591  0.2777  0.0534  0.1044
 1050TIP3    H124565   3.351   2.061   3.605  0.9961 -0.6061 -0.5974
 1050TIP3    H224566   3.431   2.166   3.680 -1.9809  0.9951  0.4950
 1051TIP3   OH224567   3.282   6.677  16.470 -0.3535  0.3997 -0.1316
 1051TIP3    H124568   3.201   6.626  16.476 -1.3132  1.8722  0.2058
 1051TIP3    H224569   3.311   6.687  16.561  1.1340 -1.4434 -0.3449
 1052TIP3   OH224570   0.126   2.133   2.017  0.2885 -0.0674 -0.1036
 1052TIP3    H124571   0.051   2.073   2.013  0.5647 -0.4951  0.9146
 1052TIP3    H224572   0.104   2.193   2.088  0.2661  0.7112 -0.7560
 1053TIP3   OH224573   6.319   2.904  16.152 -0.1197 -0.2030  0.1645
 1053TIP3    H124574   6.269   2.976  16.188  1.4305  1.4786 -0.8773
 1053TIP3    H224575   6.383   2.883  16.221  0.9103  1.0042 -0.3869
 1054TIP3   OH224576   1.664   2.423  16.824  0.1864  0.6703  0.2402
 1054TIP3    H124577   1.701   2.510  16.839 -0.6609  1.5809 -2.3150
 1054TIP3    H224578   1.734   2.374  16.782  0.2361  0.5690  0.4422
 1055TIP3   OH224579   3.192   1.269   3.364 -0.0324 -0.2552 -0.3847
 1055TIP3    H124580   3.210   1.338   3.428  1.4779  0.0565 -1.1005
 1055TIP3    H224581   3.273   1.217   3.363 -0.2632 -0.5968 -1.5980
 1056TIP3   OH224582   3.774   2.513   6.039  0.2789 -0.5795  0.1266
 1056TIP3    H124583   3.709   2.519   6.109 -0.6708  0.9752 -0.8218
 1056TIP3    H224584   3.819   2.430   6.055 -1.2627 -1.2276  1.3910
 1057TIP3   OH224585   1.763   2.690  17.241  0.0743 -0.4708  0.0461
 1057TIP3    H124586   1.825   2.754  17.277  0.4573 -0.3185 -0.8550
 1057TIP3    H224587   1.755   2.623  17.310  0.6979 -0.1300  0.4595
 1058TIP3   OH224588   0.602   3.277  16.804 -0.8376 -0.0107 -0.1840
 1058TIP3    H124589   0.604   3.260  16.899 -1.1232 -0.0394 -0.1824
 1058TIP3    H224590   0.633   3.367  16.795 -1.5383  0.2539  0.0013
 1059TIP3   OH224591   0.913   0.439  10.716 -0.2901 -0.3324 -0.3218
 1059TIP3    H124592   0.937   0.466  10.628 -1.3412  0.7320 -0.3020
 1059TIP3    H224593   0.993   0.400  10.752 -0.0225 -1.3467 -1.9374
 1060TIP3   OH224594   2.253   0.856   1.315  0.4767 -0.2709 -0.1170
 1060TIP3    H124595   2.263   0.951   1.315  2.3247 -0.4218  0.6686
 1060TIP3    H224596   2.327   0.825   1.367  0.2376 -2.1800 -0.8650
 1061TIP3   OH224597   3.883   1.719   0.448 -0.1658  0.3387 -0.4812
 1061TIP3    H124598   3.932   1.658   0.502 -0.3448 -0.4223 -1.1559
 1061TIP3    H224599   3.861   1.669   0.369 -2.0544  0.6180 -0.1871
 1062TIP3   OH224600   6.066   4.974   1.490 -0.0780 -0.1180  0.0272
 1062TIP3    H124601   6.104   5.008   1.570 -0.7457 -0.2442  0.4071
 1062TIP3    H224602   6.127   4.906   1.461  0.0494 -0.2345  0.5577
 1063TIP3   OH224603   3.100   2.530  16.162 -0.2205 -0.1573 -0.4270
 1063TIP3    H124604   3.041   2.473  16.112 -0.9432  1.1195 -1.1001
 1063TIP3    H224605   3.087   2.504  16.253 -2.0459  0.2312 -0.5249
 1064TIP3   OH224606   0.687   4.907   1.606  0.2188 -0.2660  0.1906
 1064TIP3    H124607   0.662   4.962   1.680 -3.2017 -1.7343  0.3034
 1064TIP3    H224608   0.692   4.968   1.532  1.2718  0.8414  1.1200
 1065TIP3   OH224609   3.318   6.103   1.479  0.0602  0.2591 -0.0335
 1065TIP3    H124610   3.295   6.178   1.534  0.6844 -0.9386  1.9757
 1065TIP3    H224611   3.236   6.056   1.468 -0.0805  0.5333 -0.1651
 1066TIP3   OH224612   3.266   0.654   2.692 -0.5024 -0.1122 -0.2582
 1066TIP3    H124613   3.243   0.746   2.679 -0.4146 -0.2084 -1.1373
 1066TIP3    H224614   3.346   0.656   2.744 -1.5401  0.2553  1.4283
 1067TIP3   OH224615   1.059   0.096   1.814 -0.4322 -0.2272 -0.2522
 1067TIP3    H124616   1.083   0.031   1.748 -0.7326  1.2522 -1.9143
 1067TIP3    H224617   1.137   0.151   1.824 -0.3120 -0.5629  0.8354
 1068TIP3   OH224618   3.140   6.492   5.952  0.1434 -0.2808 -0.0052
 1068TIP3    H124619   3.119   6.538   6.033 -1.5642 -0.4078 -0.3354
 1068TIP3    H224620   3.215   6.436   5.974  0.7780  0.9237  1.0059
 1069TIP3   OH224621   1.756   5.561   5.529 -0.3368  0.2115 -0.3234
 1069TIP3    H124622   1.778   5.497   5.462  1.1870  0.7188 -0.3590
 1069TIP3    H224623   1.784   5.521   5.612 -1.0982  0.0869 -0.1133
 1070TIP3   OH224624   4.978   5.249   1.981 -0.5201 -0.0232 -0.3702
 1070TIP3    H124625   4.927   5.278   1.906  0.0524  0.1581 -0.6935
 1070TIP3    H224626   5.066   5.236   1.946  0.0741  1.3607  0.5479
 1071TIP3   OH224627   5.947   5.932  12.051 -0.2939  0.2144  0.3188
 1071TIP3    H124628   6.006   5.918  12.125 -2.1355  1.2075  2.0904
 1071TIP3    H224629   5.905   5.847  12.037  1.6421 -0.5890 -1.1647
 1072TIP3   OH224630   4.955   2.767   4.665  0.5935  0.0705 -0.5561
 1072TIP3    H124631   5.047   2.755   4.688  0.1426  0.3144  1.5784
 1072TIP3    H224632   4.932   2.852   4.702 -0.7941 -0.5271 -0.0035
 1073TIP3   OH224633   0.151   1.008   1.386 -0.1399 -0.5853  0.1624
 1073TIP3    H124634   0.190   1.046   1.465  0.5436  1.7888 -1.2066
 1073TIP3    H224635   0.086   1.073   1.358 -0.5907 -1.5213 -1.0502
 1074TIP3   OH224636   5.400   5.037  17.245  0.0119  0.3344 -0.0967
 1074TIP3    H124637   5.382   5.047  17.339  2.0417  0.5058  0.3372
 1074TIP3    H224638   5.461   4.963  17.240 -2.0304 -1.3582 -1.5943
 1075TIP3   OH224639   2.447   3.952   3.600  0.4393 -0.1733 -0.4537
 1075TIP3    H124640   2.537   3.977   3.617  0.2570 -0.3924  0.9334
 1075TIP3    H224641   2.442   3.860   3.623 -0.2936  0.0064  0.1729
 1076TIP3   OH224642   3.435   0.824  16.398  0.2930 -0.0451  0.3501
 1076TIP3    H124643   3.430   0.772  16.318 -2.0815 -0.8392  0.9361
 1076TIP3    H224644   3.394   0.770  16.465 -1.3892  2.1353  1.2038
 1077TIP3   OH224645   6.605   4.002   6.441  0.4879  0.4699  0.4621
 1077TIP3    H124646   6.552   4.015   6.520  0.2694  2.6612 -0.0059
 1077TIP3    H224647   6.625   4.090   6.410  0.6031 -0.3357 -1.9389
 1078TIP3   OH224648   2.866   6.186  12.260  0.4469  0.6644  0.5865
 1078TIP3    H124649   2.956   6.163  12.240 -0.0907 -1.3424  0.2509
 1078TIP3    H224650   2.825   6.103  12.286 -1.5546  1.3203 -0.2408
 1079TIP3   OH224651   2.659   5.703  10.866 -0.0680  0.0776 -0.9261
 1079TIP3    H124652   2.620   5.631  10.816  0.6277 -0.6228 -0.4926
 1079TIP3    H224653   2.586   5.762  10.886 -1.1455 -1.7014  0.7600
 1080TIP3   OH224654   2.537   2.329  12.147 -0.1023 -0.6044  0.1845
 1080TIP3    H124655   2.594   2.281  12.207 -0.6319 -0.6516  0.6538
 1080TIP3    H224656   2.538   2.419  12.179  0.5109 -0.3895 -0.4140
 1081TIP3   OH224657   0.338   3.019  13.724 -0.1943  0.1404  0.3667
 1081TIP3    H124658   0.301   3.082  13.663  2.3892 -1.3895 -3.1282
 1081TIP3    H224659   0.408   3.067  13.769 -0.7855  0.7358  0.6710
 1082TIP3   OH224660   5.266   1.544  13.865  0.0550 -0.5388 -0.1038
 1082TIP3    H124661   5.235   1.523  13.777  0.6877  1.7719 -0.9527
 1082TIP3    H224662   5.241   1.636  13.878  0.7890 -0.5634  1.7507
 1083TIP3   OH224663   4.852   5.077  12.220 -0.6331 -0.2683  0.2396
 1083TIP3    H124664   4.839   5.079  12.315 -0.4003 -1.1470  0.2989
 1083TIP3    H224665   4.943   5.048  12.210 -0.6133 -0.0386 -0.2534
 1084TIP3   OH224666   2.971   2.575  11.734 -0.0996 -0.1028  0.3205
 1084TIP3    H124667   2.925   2.656  11.757  1.0281  0.6696  0.0100
 1084TIP3    H224668   2.907   2.523  11.686 -0.3649  1.4073 -1.0894
 1085TIP3   OH224669   0.792   0.073  16.984 -0.1076 -0.6310  0.1934
 1085TIP3    H124670   0.728   0.119  16.930 -0.2061 -1.0981 -0.0927
 1085TIP3    H224671   0.739   0.023  17.046 -0.0313  1.8491  2.4854
 1086TIP3   OH224672   2.145   1.460   5.930 -0.2129 -0.1290 -0.0504
 1086TIP3    H124673   2.161   1.432   6.020 -1.6152 -1.6982 -0.2455
 1086TIP3    H224674   2.188   1.545   5.924  1.4794 -0.7951  1.5496
 1087TIP3   OH224675   4.630   5.038  15.518  0.5605 -0.0435  0.2665
 1087TIP3    H124676   4.603   5.118  15.564  0.3018  0.4582 -0.7278
 1087TIP3    H224677   4.721   5.025  15.543  0.4035  0.1789  0.9701
 1088TIP3   OH224678   3.038   6.500   1.519 -0.0917  0.3941 -0.5352
 1088TIP3    H124679   3.084   6.471   1.440  2.4800  0.4802  0.8155
 1088TIP3    H224680   3.088   6.463   1.591 -1.4960  1.5122  1.1141
 1089TIP3   OH224681   2.180   0.270  14.862 -0.0706 -0.8665  0.7259
 1089TIP3    H124682   2.115   0.205  14.886 -1.0476 -0.4473 -0.6545
 1089TIP3    H224683   2.256   0.219  14.834 -0.1443 -1.3759  1.4324
 1090TIP3   OH224684   4.729   5.109  14.415 -0.6082  0.1266  0.1619
 1090TIP3    H124685   4.738   5.077  14.504  1.2588  0.3717  0.0825
 1090TIP3    H224686   4.690   5.196  14.425 -0.9396 -0.0752  0.6832
 1091TIP3   OH224687   4.461   4.276  15.583 -0.2002 -0.3490  0.2015
 1091TIP3    H124688   4.543   4.270  15.633  0.0653  0.4788 -0.1164
 1091TIP3    H224689   4.422   4.189  15.591  0.5702 -0.6717  0.5950
 1092TIP3   OH224690   1.000   1.288   3.298 -0.1457 -0.7993  0.1014
 1092TIP3    H124691   1.056   1.365   3.289  0.2982 -1.0013  0.9789
 1092TIP3    H224692   1.007   1.243   3.213 -0.4766  0.1603 -0.4411
 1093TIP3   OH224693   3.537   5.436  11.736  0.1209 -0.1139  0.3161
 1093TIP3    H124694   3.533   5.365  11.672  0.1449  0.3936 -0.2443
 1093TIP3    H224695   3.616   5.484  11.715  0.7750 -0.6345  1.4667
 1094TIP3   OH224696   5.483   5.429  16.878 -0.2728  0.4717 -0.3263
 1094TIP3    H124697   5.473   5.346  16.924  2.4424  0.3587  0.2227
 1094TIP3    H224698   5.398   5.473  16.888 -0.4820 -0.4482  2.9649
 1095TIP3   OH224699   4.900   6.224   2.555  0.0903 -0.4584  0.0481
 1095TIP3    H124700   4.977   6.266   2.593  0.4053  0.7831 -1.8251
 1095TIP3    H224701   4.836   6.295   2.547 -1.1923 -1.4180  1.3322
 1096TIP3   OH224702   0.049   2.091   3.996 -0.4020  0.1085 -0.2731
 1096TIP3    H124703   0.106   2.144   3.940 -0.6279  0.8071  0.1366
 1096TIP3    H224704  -0.008   2.155   4.039 -0.5568 -0.4595  0.3850
 1097TIP3   OH224705   1.452   5.869  11.689  0.2093  0.5880  0.0621
 1097TIP3    H124706   1.397   5.947  11.701 -0.1247  0.2964  0.4635
 1097TIP3    H224707   1.502   5.864  11.770  0.0418  0.2402  0.1451
 1098TIP3   OH224708   0.824   2.105  11.410 -0.3450  0.4576 -0.0843
 1098TIP3    H124709   0.763   2.178  11.418 -0.9018 -0.0862  0.8358
 1098TIP3    H224710   0.905   2.136  11.450 -0.0201  1.1537 -1.2372
 1099TIP3   OH224711   4.750   4.106  13.809 -0.4417 -0.3079  0.3085
 1099TIP3    H124712   4.831   4.056  13.814 -0.6814 -0.6554  0.8162
 1099TIP3    H224713   4.778   4.195  13.788  0.0361 -0.5137  0.0519
 1100TIP3   OH224714   1.560   4.618  14.789 -0.1598  0.0584 -0.0963
 1100TIP3    H124715   1.482   4.655  14.829 -0.3056  1.4935 -1.6007
 1100TIP3    H224716   1.633   4.650  14.842 -0.4543  0.4388  0.0794
 1101TIP3   OH224717   4.731   1.884   5.255  0.5702  0.1159 -0.0657
 1101TIP3    H124718   4.711   1.881   5.162  0.7107 -1.2102 -0.0720
 1101TIP3    H224719   4.751   1.794   5.278  0.3449  0.3895  1.2959
 1102TIP3   OH224720   6.149   4.499  17.133  0.0261  0.5321  0.1840
 1102TIP3    H124721   6.168   4.559  17.061  3.3525 -1.4128 -0.7971
 1102TIP3    H224722   6.089   4.434  17.096  0.6039  0.3344 -0.4094
 1103TIP3   OH224723   4.327   3.776   3.709 -0.0664  0.4139  0.2173
 1103TIP3    H124724   4.253   3.813   3.756  0.2493 -0.9513  1.9000
 1103TIP3    H224725   4.391   3.754   3.777  1.7645  1.2274 -1.1511
 1104TIP3   OH224726   5.553   1.602   1.812 -0.3383 -0.1901 -0.0579
 1104TIP3    H124727   5.575   1.610   1.720  0.7276 -0.6484  0.1412
 1104TIP3    H224728   5.537   1.508   1.825  0.7571 -0.3188  0.4742
 1105TIP3   OH224729   1.018   0.851  13.810 -0.1197  0.0505 -0.2857
 1105TIP3    H124730   0.933   0.834  13.851 -0.7181  1.8447 -0.7078
 1105TIP3    H224731   1.053   0.764  13.790 -0.6998 -0.8143  2.1688
 1106TIP3   OH224732   2.467   3.597   6.229  0.1336  0.2773 -0.1113
 1106TIP3    H124733   2.445   3.506   6.213  1.4371 -0.2739  1.0483
 1106TIP3    H224734   2.390   3.646   6.200 -1.6042 -1.3357  1.5162
 1107TIP3   OH224735   1.919   6.080  12.915  0.1597  0.5589  0.1129
 1107TIP3    H124736   1.828   6.076  12.943 -0.1336  1.3577 -0.6617
 1107TIP3    H224737   1.949   6.167  12.944  0.8484  0.0831  0.8605
 1108TIP3   OH224738   0.054   1.316  10.671  0.8426 -0.4625 -0.6395
 1108TIP3    H124739  -0.014   1.327  10.604 -0.7719 -0.5845  0.8942
 1108TIP3    H224740   0.006   1.284  10.748  2.0916  2.3043  1.4880
 1109TIP3   OH224741   4.907   6.671  12.224 -0.0680  0.1029  0.3454
 1109TIP3    H124742   4.871   6.583  12.217 -1.5111  0.7794 -1.6021
 1109TIP3    H224743   4.947   6.688  12.139  1.9301  0.6740  1.3279
 1110TIP3   OH224744   1.518   1.925   5.693 -0.0941  0.1420 -0.0051
 1110TIP3    H124745   1.559   1.851   5.648 -1.1204 -1.2839  1.2717
 1110TIP3    H224746   1.475   1.974   5.623  1.3646  0.0687 -0.9978
 1111TIP3   OH224747   4.371   1.451   4.944 -0.0572  0.4930 -0.3178
 1111TIP3    H124748   4.344   1.399   4.868 -1.5325 -0.7080  0.9759
 1111TIP3    H224749   4.312   1.527   4.943 -2.5248 -1.2458  1.4961
 1112TIP3   OH224750   1.557   1.792  13.946  0.1084  0.2239  0.3378
 1112TIP3    H124751   1.537   1.854  13.876  1.7238 -0.0700 -0.4373
 1112TIP3    H224752   1.546   1.706  13.907  0.3789  0.0507  0.6316
 1113TIP3   OH224753   6.253   6.036  12.893 -0.7911 -0.1645  0.5702
 1113TIP3    H124754   6.236   6.126  12.865 -0.2887  0.0671  0.9847
 1113TIP3    H224755   6.347   6.034  12.911 -0.5294 -1.1513 -0.7649
 1114TIP3   OH224756   1.519   2.190  11.337  0.2134 -0.1511 -0.0995
 1114TIP3    H124757   1.592   2.141  11.300  0.5501 -0.4178  0.8826
 1114TIP3    H224758   1.466   2.215  11.261  1.1424 -0.2334 -0.7985
 1115TIP3   OH224759   1.252   4.534  13.071 -0.3996 -0.3842 -0.0352
 1115TIP3    H124760   1.176   4.590  13.051  0.2523 -0.3636 -2.8942
 1115TIP3    H224761   1.229   4.491  13.153 -2.4688  1.3949  0.4179
 1116TIP3   OH224762   6.569   1.379  11.902  0.7698  0.4403  0.7306
 1116TIP3    H124763   6.516   1.322  11.958  0.9139 -1.7939 -1.2483
 1116TIP3    H224764   6.595   1.323  11.829  5.1540  1.6224  1.1146
 1117TIP3   OH224765   4.413   0.607  15.563  0.4111  0.6156  0.1491
 1117TIP3    H124766   4.370   0.692  15.550  0.7507  1.0806  1.8509
 1117TIP3    H224767   4.499   0.617  15.521  0.3067  0.9764  0.0179
 1118TIP3   OH224768   5.809   5.995   2.031  0.3395  0.0717  0.4403
 1118TIP3    H124769   5.729   5.999   2.084  1.1629 -0.5298  1.7678
 1118TIP3    H224770   5.878   5.974   2.093  1.6812  1.3700 -0.5493
 1119TIP3   OH224771   2.794   4.896   5.692 -0.0357  0.0618 -0.6476
 1119TIP3    H124772   2.852   4.928   5.623 -0.0574 -0.8197 -1.0947
 1119TIP3    H224773   2.854   4.859   5.757 -0.0029  1.1154 -0.0626
 1120TIP3   OH224774   1.049   1.982  14.685 -0.1958  0.6363 -0.3397
 1120TIP3    H124775   1.131   2.007  14.643 -1.2000 -2.2996 -4.7809
 1120TIP3    H224776   0.985   2.046  14.654 -0.1945  1.0063  0.4028
 1121TIP3   OH224777   5.731   1.938   6.334  0.0113  0.6962 -0.4809
 1121TIP3    H124778   5.707   2.018   6.288  1.5328  0.0141 -2.5983
 1121TIP3    H224779   5.771   1.968   6.415  0.9098  2.1126 -1.4094
 1122TIP3   OH224780   2.026   5.148  12.188  0.7384 -0.4133  0.1662
 1122TIP3    H124781   2.063   5.228  12.151  0.9634 -1.0147 -0.9523
 1122TIP3    H224782   1.940   5.173  12.220  0.3139  0.0375 -1.2522
 1123TIP3   OH224783   3.786   1.323   0.461  0.3754 -0.0196 -0.0535
 1123TIP3    H124784   3.868   1.291   0.422 -0.1140 -0.4146 -0.7890
 1123TIP3    H224785   3.728   1.337   0.386 -0.0282  0.8695  0.4082
 1124TIP3   OH224786   6.080   0.719  14.059  0.1567 -0.3760 -0.1276
 1124TIP3    H124787   6.175   0.722  14.074  0.3533 -1.2330 -1.0996
 1124TIP3    H224788   6.070   0.681  13.972 -1.1089 -1.5810  0.4976
 1125TIP3   OH224789   2.767   4.147  13.769  0.1740  0.2891 -0.7430
 1125TIP3    H124790   2.829   4.220  13.774 -0.3198  0.6742 -0.1030
 1125TIP3    H224791   2.694   4.174  13.825 -0.5807 -0.1507 -1.4979
 1126TIP3   OH224792   5.083   3.232  11.057 -0.0044 -0.2230 -0.6059
 1126TIP3    H124793   4.996   3.204  11.086  0.6276 -0.1789  1.5286
 1126TIP3    H224794   5.106   3.171  10.988 -1.6637 -0.3319 -1.1120
 1127TIP3   OH224795   5.999   4.674  12.685 -0.3337 -0.2336 -0.6167
 1127TIP3    H124796   6.028   4.611  12.750 -0.6787 -0.9448 -1.1366
 1127TIP3    H224797   6.012   4.630  12.601  0.0606  0.6472 -1.0322
 1128TIP3   OH224798   5.999   2.588  12.352 -0.2243  0.2733  0.8116
 1128TIP3    H124799   5.983   2.635  12.433 -0.4341 -0.4756  1.2168
 1128TIP3    H224800   5.913   2.580  12.310 -0.2169  0.1087  0.8258
 1129TIP3   OH224801   3.221   5.456   2.903 -0.2932  0.0151  0.0657
 1129TIP3    H124802   3.279   5.529   2.925 -0.3024 -0.7381  3.0987
 1129TIP3    H224803   3.139   5.476   2.949 -1.8026  0.0630 -2.4922
 1130TIP3   OH224804   2.874   4.143   0.996  0.2940  0.2018 -0.1291
 1130TIP3    H124805   2.918   4.110   0.918  1.6342  1.1801  0.1611
 1130TIP3    H224806   2.880   4.239   0.987 -0.5550  0.3331  0.6150
 1131TIP3   OH224807   2.100   4.648  15.802 -0.0496  0.3467  0.5363
 1131TIP3    H124808   2.118   4.625  15.711 -0.7259  1.6283  0.0435
 1131TIP3    H224809   2.112   4.567  15.851  4.1428  0.4080 -0.0772
 1132TIP3   OH224810   3.574   0.470   0.893 -0.0867 -0.2477 -0.1002
 1132TIP3    H124811   3.660   0.445   0.859 -1.3955 -0.0833 -4.1649
 1132TIP3    H224812   3.520   0.393   0.880 -1.5856  1.0608 -2.2940
 1133TIP3   OH224813   4.986   5.593   5.424  0.2127  0.0242 -0.4672
 1133TIP3    H124814   4.988   5.559   5.334 -1.3007  0.3189 -0.6387
 1133TIP3    H224815   5.065   5.557   5.464  2.7330  2.4421 -2.7854
 1134TIP3   OH224816   6.177   6.056  11.923  0.2214  0.0721  0.9978
 1134TIP3    H124817   6.109   6.014  11.976 -0.7443 -0.0227 -0.2769
 1134TIP3    H224818   6.215   5.984  11.873 -1.3367  0.6098 -1.0850
 1135TIP3   OH224819   0.717   3.677   1.140  0.1303  0.8227  0.0118
 1135TIP3    H124820   0.779   3.618   1.183  0.2647 -0.4973 -1.8391
 1135TIP3    H224821   0.766   3.758   1.127  0.2537  1.0630  1.7747
 1136TIP3   OH224822   1.949   3.574   1.516 -0.2747 -0.0278 -0.4035
 1136TIP3    H124823   1.869   3.607   1.558 -1.6510 -2.4640 -0.8804
 1136TIP3    H224824   1.948   3.612   1.429  0.1725  1.4911  0.2216
 1137TIP3   OH224825   0.148   2.667   2.788 -0.0680  0.2518 -0.2542
 1137TIP3    H124826   0.192   2.618   2.719  0.0118 -0.9399  0.5973
 1137TIP3    H224827   0.128   2.601   2.855  0.3443  1.4307  1.1004
 1138TIP3   OH224828   1.577   3.674   2.631 -0.7063 -0.5076 -0.1914
 1138TIP3    H124829   1.517   3.686   2.557 -0.0268 -2.5420 -1.1732
 1138TIP3    H224830   1.551   3.591   2.670  1.8534 -1.8951 -1.1523
 1139TIP3   OH224831   5.737   5.901  16.672 -0.2924 -0.0630 -0.4109
 1139TIP3    H124832   5.709   5.979  16.720 -1.9666 -0.9373  0.1212
 1139TIP3    H224833   5.816   5.928  16.625 -0.8303  1.9417 -0.2435
 1140TIP3   OH224834   4.851   2.518  12.098 -0.3373 -0.2191  0.3693
 1140TIP3    H124835   4.847   2.613  12.083  0.1979 -0.0221  1.3575
 1140TIP3    H224836   4.902   2.509  12.179 -1.0129 -1.3145  0.6948
 1141TIP3   OH224837   3.933   6.516  16.104 -0.4355  0.0909 -0.6312
 1141TIP3    H124838   3.931   6.602  16.145 -1.2821 -0.5015  0.6423
 1141TIP3    H224839   3.884   6.528  16.023 -3.8185  0.0792  1.2179
 1142TIP3   OH224840   1.760   4.010   1.900  0.4490 -0.4275 -0.3255
 1142TIP3    H124841   1.791   3.945   1.964  0.3268  0.1625  0.3458
 1142TIP3    H224842   1.780   4.094   1.940  0.8328 -0.0451 -1.3031
 1143TIP3   OH224843   2.254   3.590   5.861  0.3013 -0.2344  0.1328
 1143TIP3    H124844   2.337   3.627   5.830  0.7300 -0.8091  0.5711
 1143TIP3    H224845   2.253   3.609   5.955 -0.6836  0.9171 -0.0869
 1144TIP3   OH224846   3.532   3.686   3.690 -0.3478  0.1004  0.0845
 1144TIP3    H124847   3.466   3.622   3.664 -0.3147  0.5121 -1.0612
 1144TIP3    H224848   3.614   3.636   3.692 -0.6423 -0.3803  1.3784
 1145TIP3   OH224849   5.510   6.747  12.028 -0.2754 -0.0556 -0.0731
 1145TIP3    H124850   5.557   6.784  12.103  0.9194  0.5478 -1.0744
 1145TIP3    H224851   5.507   6.653  12.045  0.6261 -0.0093  0.4058
 1146TIP3   OH224852   5.801   6.390  11.764 -0.5459 -0.4697  0.5873
 1146TIP3    H124853   5.804   6.473  11.716 -0.0128 -1.0621 -0.4473
 1146TIP3    H224854   5.708   6.370  11.771 -0.6778  0.2221  0.8526
 1147TIP3   OH224855   6.592   0.983   5.116 -0.1083 -0.1230  0.4277
 1147TIP3    H124856   6.642   0.980   5.198  1.2770  0.7910 -0.3492
 1147TIP3    H224857   6.544   1.066   5.121 -0.2113 -0.1839  0.4334
 1148TIP3   OH224858   2.030   1.769  15.509  0.6730  0.0246  0.3435
 1148TIP3    H124859   2.003   1.861  15.502 -1.9384 -0.7254 -1.1395
 1148TIP3    H224860   2.098   1.759  15.443 -0.0476  0.6302 -0.5293
 1149TIP3   OH224861   5.843   2.767  13.037 -0.5969  0.2091 -0.3701
 1149TIP3    H124862   5.776   2.698  13.030  1.4885 -1.9539 -0.3103
 1149TIP3    H224863   5.810   2.837  12.981 -3.0979 -0.5630 -0.0176
 1150TIP3   OH224864   1.076   2.988  12.910  0.0386  0.3944 -0.2411
 1150TIP3    H124865   1.167   3.008  12.932  0.3934 -0.3323 -1.0037
 1150TIP3    H224866   1.035   2.969  12.995  0.5602  0.8406  0.1190
 1151TIP3   OH224867   4.868   5.982  13.720  0.3865  0.0370  0.5809
 1151TIP3    H124868   4.898   5.963  13.631 -1.5651 -2.1671  0.2776
 1151TIP3    H224869   4.894   5.905  13.771  0.1714  0.6008  1.5643
 1152TIP3   OH224870   0.152   4.820   6.057  0.3257 -0.0024  0.0191
 1152TIP3    H124871   0.058   4.817   6.038  0.0771  2.6836  0.4112
 1152TIP3    H224872   0.167   4.909   6.090  3.0334 -0.3391 -0.0666
 1153TIP3   OH224873   6.051   3.513  15.745  0.6215  0.4203  0.0007
 1153TIP3    H124874   6.076   3.562  15.667  0.9684  0.0086 -0.1481
 1153TIP3    H224875   6.124   3.453  15.761  0.4711  0.3680  0.5320
 1154TIP3   OH224876   6.329   1.149   1.795 -0.4827 -0.0605  0.1148
 1154TIP3    H124877   6.293   1.062   1.812 -0.3242  0.2668  2.4795
 1154TIP3    H224878   6.422   1.142   1.817 -0.3858  0.5952 -0.0530
 1155TIP3   OH224879   0.241   1.287   4.211 -0.6694  0.5568  0.1879
 1155TIP3    H124880   0.331   1.291   4.178 -0.2664  0.3942  1.2165
 1155TIP3    H224881   0.248   1.315   4.303 -1.3845 -1.0279  0.7630
 1156TIP3   OH224882   0.953   2.368  16.414  0.6928  0.2703  0.0993
 1156TIP3    H124883   0.917   2.420  16.342  0.5239  0.4480  0.3097
 1156TIP3    H224884   1.019   2.313  16.373  0.4254  0.1938 -0.2325
 1157TIP3   OH224885   0.020   2.003  14.161 -0.7442 -0.3066 -0.1493
 1157TIP3    H124886   0.006   2.092  14.127 -0.0972  0.4358  1.4262
 1157TIP3    H224887  -0.024   1.946  14.097 -0.3237  1.0487 -1.7285
 1158TIP3   OH224888   0.225   2.009   3.217 -0.1709  0.2492  0.0842
 1158TIP3    H124889   0.136   2.002   3.252  0.5159 -1.2139  1.6692
 1158TIP3    H224890   0.261   1.921   3.223  2.2961  1.2664  2.1033
 1159TIP3   OH224891   5.607   3.724   3.559  0.3059  0.2374 -0.4447
 1159TIP3    H124892   5.549   3.781   3.609  2.7947  2.2987  0.2968
 1159TIP3    H224893   5.636   3.777   3.485  1.1149 -0.7779 -0.8919
 1160TIP3   OH224894   4.516   0.553  16.023  0.4951 -0.0618  0.7583
 1160TIP3    H124895   4.594   0.579  15.973 -0.3781 -1.8302 -1.7078
 1160TIP3    H224896   4.550   0.496  16.092  1.3874 -1.4074 -0.7215
 1161TIP3   OH224897   1.082   6.557  16.870  0.2901  0.1628 -0.4489
 1161TIP3    H124898   1.171   6.581  16.898  0.9571 -0.1725 -2.1214
 1161TIP3    H224899   1.049   6.635  16.828 -0.5765  0.5626  0.9167
 1162TIP3   OH224900   2.260   2.218  13.367  0.4364 -0.1615 -0.4730
 1162TIP3    H124901   2.242   2.130  13.402  1.4833 -0.1744  0.0642
 1162TIP3    H224902   2.302   2.201  13.282 -1.0304 -0.1385 -1.2449
 1163TIP3   OH224903   4.054   1.130   4.574  0.5802 -0.0175 -0.0946
 1163TIP3    H124904   3.969   1.092   4.548  0.0474  1.4371 -0.5693
 1163TIP3    H224905   4.106   1.126   4.494  1.6125 -2.4578  0.6000
 1164TIP3   OH224906   5.357   2.467  15.445  0.7098  0.1658 -0.2290
 1164TIP3    H124907   5.302   2.545  15.444 -0.6029 -0.7085  0.5887
 1164TIP3    H224908   5.444   2.499  15.469 -0.1583  1.2024  1.7498
 1165TIP3   OH224909   4.429   0.142   0.775 -0.4868  0.3059  0.5441
 1165TIP3    H124910   4.407   0.146   0.868 -1.6223 -0.8060  0.3387
 1165TIP3    H224911   4.514   0.097   0.773  0.0169  1.2090  1.0935
 1166TIP3   OH224912   0.291   1.374   1.532 -0.4229 -0.0697  0.6153
 1166TIP3    H124913   0.220   1.350   1.472 -0.1439  1.6596 -0.4620
 1166TIP3    H224914   0.248   1.422   1.602 -0.5415 -0.7287  1.0078
 1167TIP3   OH224915   5.842   0.210  14.786  0.0943 -0.1405  0.1987
 1167TIP3    H124916   5.902   0.250  14.849  0.2286 -0.0674  0.0238
 1167TIP3    H224917   5.881   0.124  14.767  0.1687 -0.0732  0.0483
 1168TIP3   OH224918   6.041   2.624  10.818 -0.5881 -1.1328 -0.3282
 1168TIP3    H124919   6.110   2.669  10.769  0.4443 -0.7400  1.3808
 1168TIP3    H224920   5.967   2.684  10.816  0.0341 -0.3381  0.0643
 1169TIP3   OH224921   4.233   6.041   1.584  0.5368  0.1057 -0.0805
 1169TIP3    H124922   4.243   6.129   1.620 -0.7690 -0.7444  2.6835
 1169TIP3    H224923   4.139   6.030   1.571  0.7672 -0.5557 -1.4063
 1170TIP3   OH224924   0.755   0.025   3.294 -0.2451 -0.0060 -0.3430
 1170TIP3    H124925   0.671  -0.017   3.279 -0.3218 -0.4142  1.0834
 1170TIP3    H224926   0.790  -0.018   3.372  0.6622  1.0779 -0.1218
 1171TIP3   OH224927   2.513   5.572   0.376  0.6131 -0.3704 -0.1885
 1171TIP3    H124928   2.453   5.616   0.436 -0.0260  1.0444 -1.7811
 1171TIP3    H224929   2.582   5.635   0.361  0.6720 -0.6315 -1.0664
 1172TIP3   OH224930   4.333   6.509   7.125  0.3667 -0.0542  0.6605
 1172TIP3    H124931   4.415   6.553   7.101  0.3937 -0.7383 -0.5959
 1172TIP3    H224932   4.345   6.418   7.098 -1.8516  0.4085 -2.4418
 1173TIP3   OH224933   1.235   3.695  14.076 -0.6213 -0.4383  0.4833
 1173TIP3    H124934   1.228   3.736  14.162 -3.2398 -0.9114  0.5904
 1173TIP3    H224935   1.293   3.621  14.089 -1.0876 -0.5820  1.9051
 1174TIP3   OH224936   2.417   4.019  15.494 -0.0200  0.2235  0.0513
 1174TIP3    H124937   2.453   4.019  15.405 -2.6953  0.3940 -1.1291
 1174TIP3    H224938   2.434   4.108  15.527  0.0396  0.4999 -0.7123
 1175TIP3   OH224939   4.748   0.927  16.420  0.0439  0.5592 -0.5415
 1175TIP3    H124940   4.705   0.842  16.432  0.9853 -0.1015 -1.6560
 1175TIP3    H224941   4.696   0.988  16.473 -1.9624 -0.3003 -1.4088
 1176TIP3   OH224942   4.323   1.368   1.040  0.4434  0.2417  0.6881
 1176TIP3    H124943   4.275   1.341   1.119  0.1437 -0.6314  0.2130
 1176TIP3    H224944   4.258   1.365   0.970  0.7429  0.8802  0.3720
 1177TIP3   OH224945   3.084   1.461   4.611 -0.4062 -0.0460  0.6221
 1177TIP3    H124946   3.161   1.480   4.664 -0.2755 -1.0759  0.8184
 1177TIP3    H224947   3.114   1.396   4.548 -0.5812  1.0720 -0.6726
 1178TIP3   OH224948   6.358   0.375   6.044  0.0628 -0.2887  0.0963
 1178TIP3    H124949   6.431   0.402   5.989 -0.1268  1.2420  0.5607
 1178TIP3    H224950   6.287   0.435   6.022 -0.5340 -0.6961  0.8457
 1179TIP3   OH224951   2.685   2.826   6.667 -0.2768  0.2367  0.3497
 1179TIP3    H124952   2.616   2.759   6.666 -0.5392  0.5160 -0.6874
 1179TIP3    H224953   2.663   2.885   6.595  0.3311  1.0652  0.8319
 1180TIP3   OH224954   2.192   1.861   3.903 -0.5043 -0.0975 -0.5905
 1180TIP3    H124955   2.202   1.776   3.946 -1.4199  0.1725  0.1839
 1180TIP3    H224956   2.196   1.841   3.809  1.1574 -0.7328 -0.4146
 1181TIP3   OH224957   0.324   6.306  17.128 -0.1230 -0.1070 -0.3606
 1181TIP3    H124958   0.412   6.314  17.091  0.4422  1.7604  1.1694
 1181TIP3    H224959   0.339   6.299  17.223 -1.5685 -2.6391 -0.2271
 1182TIP3   OH224960   0.450   3.475   0.381  0.2633  0.0826 -0.1386
 1182TIP3    H124961   0.395   3.552   0.396  0.3111  0.2702 -0.8569
 1182TIP3    H224962   0.538   3.510   0.367  0.2230 -0.0636 -0.8119
 1183TIP3   OH224963   6.487   4.726   1.008  0.3559 -0.2539  0.5936
 1183TIP3    H124964   6.504   4.765   0.922  0.7382 -2.2065 -0.2858
 1183TIP3    H224965   6.426   4.785   1.050 -0.2761  0.4759 -1.2619
 1184TIP3   OH224966   4.388   5.764   1.615 -0.5049  0.2936  0.5963
 1184TIP3    H124967   4.386   5.830   1.546  3.1265 -0.1594 -0.1614
 1184TIP3    H224968   4.419   5.811   1.692  0.3693 -0.1291  0.5191
 1185TIP3   OH224969   3.081   2.373   2.213  0.2219 -0.4375  0.6199
 1185TIP3    H124970   3.159   2.364   2.157  0.6373  0.4803  1.0217
 1185TIP3    H224971   3.012   2.328   2.165  0.3276  1.1384 -1.1244
 1186TIP3   OH224972   3.174   2.037  10.787  0.0092  0.8333 -0.1038
 1186TIP3    H124973   3.251   2.072  10.742 -0.0979 -0.0846 -1.0412
 1186TIP3    H224974   3.118   2.005  10.716 -1.2246  1.4649  0.5703
 1187TIP3   OH224975   0.280   6.287   2.674  0.8917 -0.0358 -0.2298
 1187TIP3    H124976   0.362   6.319   2.714  0.7886  0.1545 -0.1675
 1187TIP3    H224977   0.304   6.204   2.633  1.1133  0.0105 -0.1960
 1188TIP3   OH224978   4.199   0.578  13.626  0.2703 -0.3555 -0.6606
 1188TIP3    H124979   4.235   0.584  13.715 -2.4104  2.5313  0.4217
 1188TIP3    H224980   4.273   0.599  13.569  1.6497 -0.5155  0.9964
 1189TIP3   OH224981   4.536   5.241  13.520  0.7721 -0.0988 -0.2367
 1189TIP3    H124982   4.580   5.303  13.462 -0.9942  1.9777  0.5099
 1189TIP3    H224983   4.547   5.278  13.608  0.0536 -1.0932  0.2952
 1190TIP3   OH224984   0.030   0.180   3.694  0.3679  0.1987 -0.1547
 1190TIP3    H124985  -0.023   0.227   3.758 -0.6286 -0.3627 -0.5330
 1190TIP3    H224986  -0.027   0.173   3.617  1.6028  1.0205 -1.1819
 1191TIP3   OH224987   4.940   4.506   4.718  0.8964 -0.0761  0.4568
 1191TIP3    H124988   4.916   4.564   4.645  2.4996  3.0573  2.1756
 1191TIP3    H224989   4.907   4.551   4.796  1.5542 -1.9412  1.8869
 1192TIP3   OH224990   3.653   5.921   0.837 -0.3585 -0.1404  0.0790
 1192TIP3    H124991   3.584   5.860   0.811 -0.1942 -0.9776  1.5328
 1192TIP3    H224992   3.729   5.866   0.853 -0.4254  0.3268  2.2136
 1193TIP3   OH224993   2.343   1.918  15.601  0.1131 -0.0967  0.1982
 1193TIP3    H124994   2.270   1.948  15.547  0.1016 -1.2229 -0.4684
 1193TIP3    H224995   2.330   1.823  15.607  0.3919 -0.0504  1.7961
 1194TIP3   OH224996   3.982   6.181   6.198 -0.0962 -0.0769  0.8314
 1194TIP3    H124997   3.947   6.103   6.155  0.6967 -1.2236  2.1999
 1194TIP3    H224998   3.905   6.233   6.220 -0.6638 -0.6809  0.2908
 1195TIP3   OH224999   3.203   2.229   4.952 -0.5669 -0.3012  0.1141
 1195TIP3    H125000   3.290   2.263   4.975 -0.1726 -0.0898 -1.5146
 1195TIP3    H225001   3.160   2.213   5.036 -0.6698  3.8882  1.0456
 1196TIP3   OH225002   3.326   6.442  14.173  0.1775 -0.5254 -0.9883
 1196TIP3    H125003   3.281   6.518  14.138  0.0053 -0.4456 -0.5901
 1196TIP3    H225004   3.257   6.384  14.204  0.3610  0.1017  0.6828
 1197TIP3   OH225005   1.582   3.335   1.384  0.8764 -0.8396  0.1902
 1197TIP3    H125006   1.603   3.299   1.470  1.6333 -0.4588  0.1726
 1197TIP3    H225007   1.494   3.302   1.365  0.6053 -0.7446  1.2067
 1198TIP3   OH225008   3.112   4.481  14.579  0.1491 -0.5165  0.7340
 1198TIP3    H125009   3.185   4.480  14.518  1.0401 -0.6632  1.7612
 1198TIP3    H225010   3.084   4.389  14.583 -0.0967 -0.4600  0.3357
 1199TIP3   OH225011   5.250   4.611   5.799 -0.9317 -0.5275 -0.0074
 1199TIP3    H125012   5.305   4.661   5.738  1.7856 -2.6923  0.4645
 1199TIP3    H225013   5.181   4.573   5.745 -1.5726  1.5761 -0.7741
 1200TIP3   OH225014   4.630   6.622  16.060 -0.3590  0.2720  0.0673
 1200TIP3    H125015   4.568   6.550  16.068  0.9210 -0.8850 -0.0718
 1200TIP3    H225016   4.589   6.695  16.106 -1.7227 -0.5060  0.1309
 1201TIP3   OH225017   0.948   4.749   2.211 -0.3493  0.0597  0.3891
 1201TIP3    H125018   0.944   4.653   2.205 -0.5334  0.0501  0.6682
 1201TIP3    H225019   0.954   4.778   2.120  0.1270 -0.2354  0.3204
 1202TIP3   OH225020   5.913   2.575   3.382  0.2791  0.3718  0.0584
 1202TIP3    H125021   5.970   2.653   3.383 -0.0680  0.6344 -0.3566
 1202TIP3    H225022   5.973   2.502   3.367  0.4744  0.6812 -0.7136
 1203TIP3   OH225023   1.758   1.597  11.932  0.2377  0.6969 -0.2529
 1203TIP3    H125024   1.824   1.635  11.874  2.7660  0.1939  2.0472
 1203TIP3    H225025   1.701   1.671  11.956  0.7122  1.4377 -1.3472
 1204TIP3   OH225026   4.646   6.324  12.425  0.2939 -0.4611 -0.2479
 1204TIP3    H125027   4.617   6.239  12.459  0.3671  0.2756  1.7811
 1204TIP3    H225028   4.675   6.372  12.502 -0.1291  1.5720 -1.2825
 1205TIP3   OH225029   1.267   3.369   0.599  0.8645 -0.3312 -0.6013
 1205TIP3    H125030   1.299   3.398   0.684 -0.4768  1.2511 -0.5807
 1205TIP3    H225031   1.345   3.366   0.543  1.3226  1.9429 -0.1863
 1206TIP3   OH225032   1.917   3.724  12.043 -0.2123  0.6551  0.5223
 1206TIP3    H125033   1.939   3.666  11.971  1.1543  0.1870  1.2833
 1206TIP3    H225034   1.944   3.811  12.014 -1.1782  0.7521 -0.1495
 1207TIP3   OH225035   0.701   4.379  13.782  0.3168 -0.6760  0.5560
 1207TIP3    H125036   0.642   4.454  13.789 -0.6080 -1.0926 -1.9034
 1207TIP3    H225037   0.647   4.304  13.803  0.5877 -0.8808  0.5250
 1208TIP3   OH225038   5.814   5.388   0.363 -0.4011  0.1065  0.6108
 1208TIP3    H125039   5.843   5.475   0.390 -1.3178  1.2370 -1.7657
 1208TIP3    H225040   5.718   5.391   0.371 -0.5235 -0.2858 -0.5147
 1209TIP3   OH225041   5.083   0.913   1.043  0.4665 -0.0754 -0.1516
 1209TIP3    H125042   5.114   0.950   1.126  2.5088 -1.7803 -0.0542
 1209TIP3    H225043   4.988   0.921   1.047  0.6444  2.1148  1.2412
 1210TIP3   OH225044   6.559   3.373   0.248  0.5655 -0.2959  0.6260
 1210TIP3    H125045   6.613   3.441   0.209  1.7181 -0.7596  1.3436
 1210TIP3    H225046   6.503   3.342   0.177  1.3027  0.1528 -0.1659
 1211TIP3   OH225047   5.299   0.477  14.218  0.4867  0.0294 -0.0388
 1211TIP3    H125048   5.334   0.402  14.265  1.2334 -0.2524 -1.0158
 1211TIP3    H225049   5.214   0.494  14.259 -0.7563 -2.7427 -1.2236
 1212TIP3   OH225050   4.721   2.498   3.468  0.2297  0.1260 -0.2664
 1212TIP3    H125051   4.758   2.506   3.380 -0.5889 -1.1882 -0.7638
 1212TIP3    H225052   4.785   2.541   3.525  1.4350 -0.1583 -1.3485
 1213TIP3   OH225053   0.359   4.962  13.560  0.1472 -0.1979  0.2003
 1213TIP3    H125054   0.278   4.975  13.609 -0.0311  0.7720 -0.3241
 1213TIP3    H225055   0.347   5.013  13.480  0.0237 -2.5447 -1.3405
 1214TIP3   OH225056   0.272   4.114  17.065 -0.0473 -0.1380  0.6462
 1214TIP3    H125057   0.338   4.181  17.080 -0.2794  0.4618 -0.8070
 1214TIP3    H225058   0.309   4.059  16.996 -1.4800  0.8944 -1.0387
 1215TIP3   OH225059   2.245   3.852   0.955 -0.4580 -0.6107 -0.1783
 1215TIP3    H125060   2.171   3.904   0.987 -0.9189 -0.0527 -1.9940
 1215TIP3    H225061   2.315   3.868   1.018 -2.1251 -1.9684  2.1820
 1216TIP3   OH225062   1.987   6.584   2.787 -1.5185 -0.2552 -0.0159
 1216TIP3    H125063   2.009   6.605   2.696 -0.9430  1.5206  0.4763
 1216TIP3    H225064   2.021   6.496   2.801  0.9712  0.5032 -0.7381
 1217TIP3   OH225065   4.141   0.977   4.018  0.4350 -0.4011 -0.3056
 1217TIP3    H125066   4.231   0.982   3.985  1.0799 -1.0636  1.2430
 1217TIP3    H225067   4.136   0.892   4.061 -0.2577  0.4833  1.4670
 1218TIP3   OH225068   2.595   2.013  12.446 -0.2444  0.0344 -0.3001
 1218TIP3    H125069   2.508   2.002  12.409  0.3151  1.7869 -2.3387
 1218TIP3    H225070   2.628   1.924  12.458 -2.5312 -0.6947  1.2495
 1219TIP3   OH225071   2.292   6.350  14.299 -0.2334  0.0783 -0.3607
 1219TIP3    H125072   2.334   6.426  14.340  0.8907 -1.8017  2.2610
 1219TIP3    H225073   2.202   6.353  14.333 -0.8829  1.3612 -2.0334
 1220TIP3   OH225074   5.923   0.724   1.656  0.2709 -0.4568 -0.5926
 1220TIP3    H125075   5.969   0.771   1.586 -0.2673 -0.6633 -1.0884
 1220TIP3    H225076   5.836   0.762   1.658  0.3120 -0.3868  0.0377
 1221TIP3   OH225077   3.981   5.975   1.925  0.2246 -0.3178  0.1096
 1221TIP3    H125078   3.950   5.985   2.015 -3.0073 -1.1552 -0.7761
 1221TIP3    H225079   4.004   6.063   1.897  0.5856  0.0586  1.5204
 1222TIP3   OH225080   1.385   3.849   5.975 -0.1413  0.3844 -0.2348
 1222TIP3    H125081   1.304   3.816   5.937  0.8712 -0.3626 -1.8286
 1222TIP3    H225082   1.437   3.880   5.901  1.3527  0.1476  0.6513
 1223TIP3   OH225083   0.393   1.081  11.941  0.3433 -0.1499  0.1725
 1223TIP3    H125084   0.312   1.065  11.989  1.0784 -1.8011  0.9348
 1223TIP3    H225085   0.391   1.174  11.920  0.3661  0.9187  4.1400
 1224TIP3   OH225086   2.919   1.322   1.118  0.8589 -0.0279  0.2683
 1224TIP3    H125087   2.863   1.258   1.163 -0.1776  0.3490 -0.4464
 1224TIP3    H225088   2.912   1.401   1.171 -0.0910  0.3128 -0.3323
 1225TIP3   OH225089   2.845   5.733   2.778 -0.3009 -0.5146 -0.8989
 1225TIP3    H125090   2.865   5.734   2.872 -0.9033 -1.4260 -0.7542
 1225TIP3    H225091   2.925   5.767   2.737 -0.5603  1.3255  0.0243
 1226TIP3   OH225092   5.533   3.656   1.573 -0.1107 -0.1107 -0.4705
 1226TIP3    H125093   5.478   3.668   1.496 -1.3504 -0.0964  0.3911
 1226TIP3    H225094   5.482   3.693   1.645  0.9978 -0.1686  0.3742
 1227TIP3   OH225095   2.295   4.080   3.927  0.4295  0.5562 -0.0181
 1227TIP3    H125096   2.328   4.144   3.864  1.1289  0.3013  0.0835
 1227TIP3    H225097   2.369   4.022   3.943  1.5775  2.7819  3.9307
 1228TIP3   OH225098   4.590   1.111  12.247 -0.3731  0.3507  0.2967
 1228TIP3    H125099   4.545   1.195  12.261  1.2816  1.0770  1.6313
 1228TIP3    H225100   4.674   1.135  12.209 -0.3645 -0.8263 -0.4547
 1229TIP3   OH225101   2.903   2.078  16.196  0.1852 -0.1145  1.3982
 1229TIP3    H125102   2.809   2.077  16.217 -0.1123 -1.5917  0.1991
 1229TIP3    H225103   2.906   2.060  16.102  1.6581  0.4507  1.3191
 1230TIP3   OH225104   4.467   5.568   0.360 -0.1209  0.1910  0.0145
 1230TIP3    H125105   4.423   5.545   0.442 -0.2552 -1.3238 -0.4601
 1230TIP3    H225106   4.530   5.497   0.346 -0.3132  0.2682 -1.3462
 1231TIP3   OH225107   5.321   1.870  14.382  0.0515  0.1682 -0.0931
 1231TIP3    H125108   5.410   1.899  14.363 -0.3665  2.3181  0.8758
 1231TIP3    H225109   5.267   1.909  14.313 -0.6473  2.7577  1.7526
 1232TIP3   OH225110   4.301   5.192  12.471 -0.7387  0.2115  0.1832
 1232TIP3    H125111   4.221   5.194  12.524 -1.4479 -0.3238 -0.8317
 1232TIP3    H225112   4.368   5.228  12.528 -2.1025  2.7287  0.3372
 1233TIP3   OH225113   1.816   1.946   4.062  0.6550  0.0577 -0.3028
 1233TIP3    H125114   1.750   2.001   4.103  0.9861  1.1717 -1.1948
 1233TIP3    H225115   1.787   1.856   4.077  0.4334  0.4393  1.7453
 1234TIP3   OH225116   1.110   5.342   1.567  0.0338  0.1607 -1.4212
 1234TIP3    H125117   1.111   5.412   1.502 -2.4213  0.7547 -0.9134
 1234TIP3    H225118   1.056   5.273   1.528  0.5150 -0.4972 -0.9588
 1235TIP3   OH225119   6.457   4.542  12.031  0.1790  0.8415  0.5833
 1235TIP3    H125120   6.370   4.581  12.042 -0.2730 -0.2597  1.0244
 1235TIP3    H225121   6.504   4.604  11.975 -1.1566  1.0599 -0.3326
 1236TIP3   OH225122   0.221   4.606  14.311  0.4112  0.3134 -0.0558
 1236TIP3    H125123   0.252   4.559  14.233 -3.0330  0.4105 -1.6929
 1236TIP3    H225124   0.186   4.538  14.368 -0.2690  0.5098 -0.2346
 1237TIP3   OH225125   3.924   4.186   0.808 -0.0012  0.1654  0.0581
 1237TIP3    H125126   3.922   4.279   0.785  0.2583  0.0607 -0.3907
 1237TIP3    H225127   3.941   4.141   0.726 -2.2406 -0.4316 -0.1479
 1238TIP3   OH225128   3.971   5.017  15.112 -0.1874  0.1143  0.7846
 1238TIP3    H125129   3.894   5.068  15.138  0.5985  1.3672  0.7099
 1238TIP3    H225130   3.964   4.936  15.162 -2.3512 -0.4674 -0.3460
 1239TIP3   OH225131   2.564   4.273   5.848 -0.4317 -0.0629 -0.0577
 1239TIP3    H125132   2.623   4.233   5.785 -2.6370 -1.7357 -1.2117
 1239TIP3    H225133   2.621   4.310   5.915  1.8707 -3.7626  0.2795
 1240TIP3   OH225134   4.065   1.994  13.068  0.0064 -0.1365  0.2457
 1240TIP3    H125135   4.048   1.953  13.153  1.7633 -0.1501  0.6152
 1240TIP3    H225136   4.159   2.010  13.067 -0.1209  0.7038 -1.3362
 1241TIP3   OH225137   6.709   0.768   0.621 -0.2449 -0.6406 -0.1295
 1241TIP3    H125138   6.689   0.723   0.703 -0.3865  1.9962  1.3987
 1241TIP3    H225139   6.630   0.818   0.602 -0.0068 -0.7928 -1.6197
 1242TIP3   OH225140   4.529   4.685  14.682 -0.6196 -0.2413  0.3966
 1242TIP3    H125141   4.585   4.640  14.745 -1.9786 -0.6764  1.3161
 1242TIP3    H225142   4.582   4.688  14.601  0.1732 -1.9018  0.8167
 1243TIP3   OH225143   0.310   1.813  11.298  0.5815  0.0218 -0.2098
 1243TIP3    H125144   0.399   1.831  11.331  1.4936 -0.1589 -2.4051
 1243TIP3    H225145   0.318   1.819  11.203 -1.0369 -3.1205 -0.6682
 1244TIP3   OH225146   3.313   3.345   3.197  0.4423 -0.1231 -0.0529
 1244TIP3    H125147   3.235   3.291   3.193 -0.2612  0.5723  2.2410
 1244TIP3    H225148   3.334   3.350   3.291 -0.8180  5.1714  0.2721
 1245TIP3   OH225149   1.393   5.393  15.238  0.4049 -0.8128 -0.8938
 1245TIP3    H125150   1.383   5.347  15.321 -0.0273 -0.3214 -0.6673
 1245TIP3    H225151   1.395   5.324  15.172 -0.7812 -1.1368 -0.6109
 1246TIP3   OH225152   0.569   1.868  14.038 -0.1786 -1.0019 -0.3792
 1246TIP3    H125153   0.496   1.922  14.067  1.8300  0.7700  1.7986
 1246TIP3    H225154   0.529   1.796  13.989 -3.1868  0.8851 -0.9122
 1247TIP3   OH225155   1.753   3.939  10.890  0.1368 -0.6878 -0.2170
 1247TIP3    H125156   1.761   4.035  10.888 -0.3257 -0.6554 -0.6953
 1247TIP3    H225157   1.742   3.914  10.798  0.7929 -1.2508 -0.1531
 1248TIP3   OH225158   5.306   0.802   3.094  0.4143 -0.3826 -0.2312
 1248TIP3    H125159   5.336   0.766   3.011  0.0344  0.8798 -0.9523
 1248TIP3    H225160   5.369   0.871   3.115 -0.2320  0.2128 -0.1796
 1249TIP3   OH225161   4.705   6.224   6.116  0.1318  0.2574  0.3770
 1249TIP3    H125162   4.719   6.156   6.182  0.0711 -0.3835 -0.2565
 1249TIP3    H225163   4.777   6.286   6.129  0.9876 -0.6628  0.0565
 1250TIP3   OH225164   4.374   5.487   1.063  0.7848  0.3127  0.2535
 1250TIP3    H125165   4.288   5.468   1.102 -0.3582  3.3962 -0.5150
 1250TIP3    H225166   4.354   5.518   0.975  2.4840  2.6598  0.5997
 1251TIP3   OH225167   0.547   3.423  16.179 -0.6917 -0.0297  0.0030
 1251TIP3    H125168   0.497   3.418  16.097 -0.0306 -0.9949 -0.3668
 1251TIP3    H225169   0.637   3.400  16.153 -0.4963 -0.4458  1.0088
 1252TIP3   OH225170   5.461   6.596   0.996 -0.5384  0.0526  0.5657
 1252TIP3    H125171   5.391   6.534   1.016  0.9176 -1.1060  2.3876
 1252TIP3    H225172   5.476   6.587   0.902  1.0138 -4.0454  1.0054
 1253TIP3   OH225173   6.242   5.660   4.886  0.1893 -0.6694 -0.0771
 1253TIP3    H125174   6.212   5.737   4.934  1.2610 -0.8748  0.9596
 1253TIP3    H225175   6.177   5.592   4.907  1.1324 -1.0287  1.9131
 1254TIP3   OH225176   0.318   6.566   4.955 -0.3747  0.5985 -0.3666
 1254TIP3    H125177   0.263   6.644   4.963 -2.0827 -0.4966 -0.9179
 1254TIP3    H225178   0.355   6.554   5.042  0.5364  2.4079 -0.4414
 1255TIP3   OH225179   2.962   1.750  11.199 -0.1396  0.5972 -0.0424
 1255TIP3    H125180   2.913   1.698  11.262  2.3542 -1.5173  0.3195
 1255TIP3    H225181   2.895   1.788  11.142 -2.2769 -0.0696  1.8740
 1256TIP3   OH225182   0.907   5.452  16.828 -0.4799  0.0551  0.2441
 1256TIP3    H125183   0.858   5.394  16.769  1.1298 -0.1446 -0.9728
 1256TIP3    H225184   0.907   5.407  16.912  1.4229 -2.2220 -0.8447
 1257TIP3   OH225185   5.506   4.666  17.296  0.3229 -0.1365 -0.1574
 1257TIP3    H125186   5.554   4.623  17.225  0.0731 -0.1572 -0.3191
 1257TIP3    H225187   5.421   4.621  17.296  0.0924  0.2953 -0.2686
 1258TIP3   OH225188   6.333   4.754  13.796 -0.1474  0.5862  0.0464
 1258TIP3    H125189   6.239   4.759  13.815 -0.2737  1.0545 -0.6557
 1258TIP3    H225190   6.340   4.779  13.703  0.7290  1.0514  0.2272
 1259TIP3   OH225191   3.340   3.809   4.334 -0.2699 -0.3038  0.1825
 1259TIP3    H125192   3.386   3.726   4.341  2.0253  0.9171  0.5137
 1259TIP3    H225193   3.308   3.812   4.244  3.1954  0.1190 -1.1933
 1260TIP3   OH225194   4.282   2.539   2.564  0.0672  0.5488  0.0387
 1260TIP3    H125195   4.296   2.541   2.470 -1.6807 -0.0381 -0.2766
 1260TIP3    H225196   4.370   2.543   2.602  0.8015  0.6965 -1.6059
 1261TIP3   OH225197   4.503   0.336  15.654 -0.2161 -0.0833  0.6227
 1261TIP3    H125198   4.442   0.359  15.724 -1.2127  1.6671 -0.7462
 1261TIP3    H225199   4.510   0.415  15.601  2.3368 -0.6086  0.0254
 1262TIP3   OH225200   5.537   4.165   2.569  0.0786  0.7614  0.5855
 1262TIP3    H125201   5.613   4.202   2.524 -1.8998  1.2708 -2.5946
 1262TIP3    H225202   5.467   4.169   2.505 -1.8238 -2.9694  2.1599
 1263TIP3   OH225203   4.809   2.319  14.877  0.0450  0.1762  0.4677
 1263TIP3    H125204   4.848   2.314  14.964 -0.4626  2.5320  0.8940
 1263TIP3    H225205   4.715   2.309  14.893  0.0726 -1.0960 -0.0438
 1264TIP3   OH225206   0.796   4.233  14.024  0.1800  0.0769  0.5819
 1264TIP3    H125207   0.765   4.284  13.949  0.5090  2.4126  1.9260
 1264TIP3    H225208   0.783   4.142  13.999 -1.9249  0.8248 -1.3620
 1265TIP3   OH225209   6.558   1.019  17.013  0.1264 -0.5636  0.2026
 1265TIP3    H125210   6.621   0.961  16.971 -0.3756  0.6926 -2.4731
 1265TIP3    H225211   6.612   1.084  17.059  0.7415 -0.9177 -0.0109
 1266TIP3   OH225212   2.741   2.884   1.912 -0.1264  0.5103 -0.1471
 1266TIP3    H125213   2.820   2.930   1.939  0.1733 -0.7378  1.2459
 1266TIP3    H225214   2.771   2.815   1.853 -0.0840 -0.2551  0.7406
 1267TIP3   OH225215   5.116   3.983  14.942 -0.1977 -0.5516 -0.9283
 1267TIP3    H125216   5.101   4.071  14.906  0.2805 -0.5294 -1.0747
 1267TIP3    H225217   5.147   3.998  15.031 -1.2797 -0.6046 -0.5219
 1268TIP3   OH225218   5.945   0.325  16.217 -0.1675  0.2153 -0.5706
 1268TIP3    H125219   5.944   0.419  16.199 -0.3273  0.5001  0.7611
 1268TIP3    H225220   5.870   0.291  16.169 -1.6209  1.2153  0.8372
 1269TIP3   OH225221   1.587   3.584  13.830  0.5105 -0.1842  0.5546
 1269TIP3    H125222   1.515   3.606  13.770  0.5175  1.4701  1.0930
 1269TIP3    H225223   1.615   3.497  13.803 -1.3512 -0.6590 -0.0095
 1270TIP3   OH225224   4.971   5.352   1.445 -0.5983 -0.3104  0.3848
 1270TIP3    H125225   5.043   5.290   1.434 -0.7606 -0.1676 -2.0051
 1270TIP3    H225226   4.892   5.300   1.426 -0.9725 -0.0134  1.1006
 1271TIP3   OH225227   3.378   0.697   0.670  0.4892 -0.0740  0.1466
 1271TIP3    H125228   3.292   0.669   0.702 -0.2359  1.3704 -0.4281
 1271TIP3    H225229   3.429   0.712   0.750 -0.4774  1.0620  0.5813
 1272TIP3   OH225230   5.917   2.164   0.482 -0.2118  0.1031  0.5684
 1272TIP3    H125231   5.893   2.118   0.562  1.3557 -2.2108 -0.1793
 1272TIP3    H225232   6.007   2.135   0.464 -0.2704  1.0988 -1.6544
 1273TIP3   OH225233   3.603   4.015   2.441  0.0806 -0.1843  0.3207
 1273TIP3    H125234   3.675   4.020   2.379 -1.7257  2.0633 -1.7760
 1273TIP3    H225235   3.528   3.988   2.388 -0.8663 -1.6915  2.2794
 1274TIP3   OH225236   6.270   2.452  16.222 -0.5605 -0.0207  0.0754
 1274TIP3    H125237   6.178   2.471  16.241 -0.4350  3.3164 -1.8671
 1274TIP3    H225238   6.273   2.445  16.127  1.4011  1.7313 -0.0528
 1275TIP3   OH225239   0.243   3.594  12.077 -0.0367  0.9741 -0.2478
 1275TIP3    H125240   0.174   3.615  12.140  1.1941  1.2004  1.0846
 1275TIP3    H225241   0.287   3.677  12.061  0.5416  0.6649 -0.3039
 1276TIP3   OH225242   2.809   1.768  12.104 -0.8859 -0.3929  0.1003
 1276TIP3    H125243   2.761   1.836  12.056  0.2158 -0.5420 -1.2591
 1276TIP3    H225244   2.869   1.816  12.160 -1.1913 -0.2342  0.2951
 1277TIP3   OH225245   5.934   1.414   2.227  0.0692  0.2521  0.1186
 1277TIP3    H125246   5.878   1.455   2.161  1.4345  2.1136  0.0401
 1277TIP3    H225247   5.980   1.345   2.179  0.8565  1.4195 -0.8829
 1278TIP3   OH225248   0.028   3.565  13.894  0.1890 -0.0951  0.1642
 1278TIP3    H125249   0.070   3.546  13.809  0.6380 -0.3649  0.4410
 1278TIP3    H225250  -0.055   3.605  13.871  0.1449 -0.5013 -0.4163
 1279TIP3   OH225251   1.196   1.251  13.551  0.2640 -0.1346  0.2110
 1279TIP3    H125252   1.223   1.191  13.480  0.3601 -0.0862  0.2059
 1279TIP3    H225253   1.131   1.201  13.601 -2.3652  0.9905 -1.8581
 1280TIP3   OH225254   2.848   6.492   3.337 -0.1715  0.0118 -0.3622
 1280TIP3    H125255   2.766   6.443   3.339 -0.1525 -0.1568 -1.9751
 1280TIP3    H225256   2.847   6.545   3.416 -2.1040  0.4549 -0.6430
 1281TIP3   OH225257   6.253   6.198  11.534  0.3233 -0.1080  0.3736
 1281TIP3    H125258   6.301   6.115  11.541 -1.0085 -0.8019  2.3231
 1281TIP3    H225259   6.321   6.265  11.533  1.4165 -1.1764 -0.5729
 1282TIP3   OH225260   3.400   5.052  11.175  0.0838  0.5254 -0.1645
 1282TIP3    H125261   3.418   5.085  11.087 -1.4850  0.9108 -0.3744
 1282TIP3    H225262   3.336   5.113  11.211 -1.0649 -0.9230  0.3642
 1283TIP3   OH225263   0.879   2.339   4.499 -0.3596  0.3669  0.0004
 1283TIP3    H125264   0.899   2.326   4.592  0.2172  1.3049  0.0267
 1283TIP3    H225265   0.849   2.430   4.494  0.2452  0.5268 -0.8291
 1284TIP3   OH225266   2.644   0.947   6.598 -0.1014  0.0200 -0.1197
 1284TIP3    H125267   2.579   1.006   6.634  0.5460  0.5308  0.2365
 1284TIP3    H225268   2.614   0.929   6.509 -1.3748 -0.7497  0.4416
 1285TIP3   OH225269   1.879   4.574  17.058  0.3277  0.3269 -0.1274
 1285TIP3    H125270   1.873   4.551  16.965 -1.3295  0.7325 -0.1620
 1285TIP3    H225271   1.845   4.663  17.063 -4.1570 -1.1716  1.3296
 1286TIP3   OH225272   6.467   3.802  11.464  0.4936  0.2951  0.2372
 1286TIP3    H125273   6.429   3.798  11.377 -0.8570 -0.7267  0.8314
 1286TIP3    H225274   6.471   3.710  11.493 -0.1249  0.6822  1.6547
 1287TIP3   OH225275   0.220   6.318   1.790  0.9239 -0.2848 -0.1797
 1287TIP3    H125276   0.138   6.272   1.805 -0.1315  1.5992  0.1558
 1287TIP3    H225277   0.253   6.339   1.878  1.0319  0.1915 -0.3286
 1288TIP3   OH225278   2.635   5.558  14.822  0.4469 -0.2535  0.3514
 1288TIP3    H125279   2.558   5.508  14.851 -0.1468 -0.1502 -1.0077
 1288TIP3    H225280   2.629   5.560  14.727  0.3097  2.6641  0.3326
 1289TIP3   OH225281   1.316   4.999  16.178 -0.2776  0.1874  0.0004
 1289TIP3    H125282   1.409   4.988  16.200  0.2981  0.9238 -1.7855
 1289TIP3    H225283   1.283   4.911  16.164  0.6150 -0.0168 -0.9333
 1290TIP3   OH225284   2.909   5.137   6.502  0.0551 -0.9659  0.2902
 1290TIP3    H125285   2.971   5.183   6.558  0.7071 -0.7731 -0.5569
 1290TIP3    H225286   2.941   5.047   6.499  0.6282 -0.7514 -0.5671
 1291TIP3   OH225287   3.814   1.407   3.867  0.8944 -0.2600 -0.2423
 1291TIP3    H125288   3.757   1.422   3.942  1.3276  0.3203 -0.0147
 1291TIP3    H225289   3.873   1.482   3.867 -0.0019  0.4993 -2.0166
 1292TIP3   OH225290   1.303   6.530   0.332 -0.0709  0.4015 -0.0592
 1292TIP3    H125291   1.233   6.473   0.364  1.3489 -1.6454 -0.4472
 1292TIP3    H225292   1.321   6.498   0.244  0.1313  2.1057 -0.6667
 1293TIP3   OH225293   1.715   2.432   3.205 -0.0471 -0.4699  0.2229
 1293TIP3    H125294   1.685   2.482   3.129  1.2857 -0.5691 -0.3879
 1293TIP3    H225295   1.747   2.498   3.266  2.3911 -0.5233 -0.8784
 1294TIP3   OH225296   5.338   1.220  14.688 -0.4160  0.3507  0.1916
 1294TIP3    H125297   5.390   1.144  14.661 -0.8567 -0.1166  0.6227
 1294TIP3    H225298   5.325   1.271  14.608 -1.8379 -1.0829 -0.5563
 1295TIP3   OH225299   2.788   4.376   0.107 -0.0088  0.1180 -0.6252
 1295TIP3    H125300   2.709   4.405   0.153  0.4430  1.2792 -0.5502
 1295TIP3    H225301   2.760   4.301   0.054 -0.7988 -0.4973  0.6230
 1296TIP3   OH225302   0.462   0.356  15.173 -0.2114 -0.4458  0.0533
 1296TIP3    H125303   0.399   0.420  15.205  0.5783  0.0725  0.6177
 1296TIP3    H225304   0.493   0.312  15.252 -0.8869 -1.6751 -0.3452
 1297TIP3   OH225305   2.829   6.667   5.138  0.1795 -0.6793 -0.8361
 1297TIP3    H125306   2.754   6.656   5.079 -1.0275  2.1291  0.0447
 1297TIP3    H225307   2.795   6.644   5.225  1.3004 -2.4512 -0.7976
 1298TIP3   OH225308   4.944   0.543   1.868 -0.6878 -0.0125  0.0469
 1298TIP3    H125309   5.026   0.498   1.850 -0.5740 -0.3125  1.2604
 1298TIP3    H225310   4.916   0.577   1.782 -0.6187 -2.0814 -0.8422
 1299TIP3   OH225311   3.067   4.604  11.250 -0.6334  0.5707  0.1287
 1299TIP3    H125312   3.049   4.556  11.169 -0.8672 -0.2011  0.6295
 1299TIP3    H225313   3.154   4.572  11.277 -0.7658  0.4679  0.4346
 1300TIP3   OH225314   4.748   1.112   3.613 -0.2751  0.2290 -0.3711
 1300TIP3    H125315   4.706   1.187   3.656  0.3747  0.7290 -0.5821
 1300TIP3    H225316   4.821   1.089   3.671 -1.5689 -1.4795  0.6766
 1301TIP3   OH225317   4.751   4.151  11.118 -0.3209 -0.1037 -0.3161
 1301TIP3    H125318   4.692   4.147  11.193  0.1500  1.4522  0.1722
 1301TIP3    H225319   4.777   4.060  11.103 -0.0048 -0.4027  1.7415
 1302TIP3   OH225320   4.230   3.178  12.980 -0.1281 -0.4009  0.4467
 1302TIP3    H125321   4.220   3.129  12.899  1.6383 -0.2880  0.1070
 1302TIP3    H225322   4.169   3.251  12.972 -0.5521 -0.8385 -0.4247
 1303TIP3   OH225323   4.049   4.641   0.458  0.6692 -0.6689 -0.2103
 1303TIP3    H125324   3.963   4.683   0.457  1.4819  1.0967  0.0434
 1303TIP3    H225325   4.063   4.613   0.368  1.4593  2.6803 -1.2748
 1304TIP3   OH225326   2.108   1.373  13.757  0.1406  0.5170 -0.1323
 1304TIP3    H125327   2.030   1.424  13.736  0.0475  1.2895  1.8091
 1304TIP3    H225328   2.180   1.418  13.713 -0.2706  0.9193 -0.3932
 1305TIP3   OH225329   4.640   3.467  16.294 -0.0077 -0.2297 -0.1322
 1305TIP3    H125330   4.559   3.478  16.245  0.2202  1.0234 -0.2705
 1305TIP3    H225331   4.701   3.427  16.231  0.5819  2.2728 -1.2749
 1306TIP3   OH225332   5.438   5.343   3.528 -0.0557  0.4198  0.5114
 1306TIP3    H125333   5.402   5.427   3.501  0.5123 -0.0524 -1.8714
 1306TIP3    H225334   5.499   5.364   3.599 -0.2783  1.9336  0.2768
 1307TIP3   OH225335   4.410   0.769   1.378 -0.6540 -0.2450  0.4686
 1307TIP3    H125336   4.419   0.717   1.458 -2.1915 -0.4096  0.5782
 1307TIP3    H225337   4.420   0.859   1.407 -0.0507 -0.3621  0.6389
 1308TIP3   OH225338   3.404   3.154   4.906 -0.4088  0.7981 -0.2918
 1308TIP3    H125339   3.381   3.067   4.874 -0.5747  0.5737  0.4229
 1308TIP3    H225340   3.499   3.155   4.910 -0.3112  1.2770 -2.0098
 1309TIP3   OH225341   2.105   3.445  17.246  0.5083  0.0024  0.1457
 1309TIP3    H125342   2.079   3.369  17.193  1.9982  0.7184 -1.6980
 1309TIP3    H225343   2.201   3.439  17.250  0.6404  1.7572  0.0049
 1310TIP3   OH225344   3.863   5.957   6.040 -0.1053  0.3740 -0.1054
 1310TIP3    H125345   3.852   5.862   6.034 -1.9060  0.4519  1.1005
 1310TIP3    H225346   3.837   5.989   5.954 -0.3571 -0.1807 -0.2426
 1311TIP3   OH225347   5.501   4.549   1.324  0.3146  0.1336  0.1173
 1311TIP3    H125348   5.479   4.510   1.239  0.1671  1.1583 -0.3330
 1311TIP3    H225349   5.460   4.635   1.321  0.0868  0.0766  1.3463
 1312TIP3   OH225350   0.724   3.273  13.607 -0.1333 -0.0897 -0.2384
 1312TIP3    H125351   0.636   3.305  13.628  0.6595  1.6931  0.5901
 1312TIP3    H225352   0.745   3.212  13.677 -1.1245 -1.4208 -1.0611
 1313TIP3   OH225353   2.146   5.840   2.091 -0.0025  0.0536  0.5885
 1313TIP3    H125354   2.102   5.901   2.150 -1.6652  0.2461 -0.7951
 1313TIP3    H225355   2.106   5.755   2.111  0.1433 -0.0579  0.4064
 1314TIP3   OH225356   4.100   1.777   5.139  0.6989  0.4129  0.3104
 1314TIP3    H125357   4.112   1.862   5.182  3.9803 -0.5455  1.5581
 1314TIP3    H225358   4.104   1.713   5.211  1.9832 -0.9656 -0.9160
 1315TIP3   OH225359   3.338   3.555  11.866  0.4122 -0.0028  0.1691
 1315TIP3    H125360   3.359   3.503  11.788  0.9710  1.1718 -0.4938
 1315TIP3    H225361   3.302   3.491  11.928 -1.0158 -0.8027 -1.3936
 1316TIP3   OH225362   0.504   5.541   4.857  0.2650  0.5709  0.6459
 1316TIP3    H125363   0.511   5.445   4.857  0.4477  0.5778  1.7394
 1316TIP3    H225364   0.552   5.569   4.935  1.8517  1.6888 -0.6417
 1317TIP3   OH225365   0.645   2.388  15.770  0.0303 -0.1077 -0.3928
 1317TIP3    H125366   0.613   2.338  15.846  2.1301 -2.0326 -0.6412
 1317TIP3    H225367   0.568   2.402  15.716 -1.2514 -0.0109  1.3911
 1318TIP3   OH225368   5.022   2.879  10.796  0.8006 -0.4516  0.0399
 1318TIP3    H125369   5.042   2.785  10.798  0.7755 -0.4591 -0.0695
 1318TIP3    H225370   5.105   2.921  10.777  0.6755 -0.4955 -0.6414
 1319TIP3   OH225371   5.747   6.090  11.450 -0.2102  0.6759 -0.2747
 1319TIP3    H125372   5.659   6.086  11.412 -0.3633 -0.8619  0.1625
 1319TIP3    H225373   5.732   6.118  11.541 -0.1205  1.4813 -0.4957
 1320TIP3   OH225374   5.452   4.077  17.135 -0.2129 -0.2207  0.4220
 1320TIP3    H125375   5.531   4.119  17.168 -0.4980  0.4485  0.2672
 1320TIP3    H225376   5.482   4.024  17.060  0.4073 -1.6345  1.6260
 1321TIP3   OH225377   0.057   3.279   3.727  0.3888 -0.1522  0.2365
 1321TIP3    H125378   0.037   3.255   3.637 -2.1621  1.1065  0.3535
 1321TIP3    H225379   0.112   3.208   3.760  1.4272 -0.6005 -2.2968
 1322TIP3   OH225380   2.142   3.152  13.567  0.1511  0.0453  0.4310
 1322TIP3    H125381   2.237   3.140  13.564 -0.0733 -1.7489 -0.1049
 1322TIP3    H225382   2.122   3.160  13.661  1.0919  3.2794  0.4712
 1323TIP3   OH225383   5.539   1.818  17.136 -0.0664 -0.1073  0.0793
 1323TIP3    H125384   5.486   1.798  17.214  0.2953 -2.5028 -0.2021
 1323TIP3    H225385   5.629   1.799  17.163 -0.0858 -2.6587 -1.3066
 1324TIP3   OH225386   4.874   0.646  14.747 -0.1164  0.1658  0.2879
 1324TIP3    H125387   4.882   0.584  14.820 -0.7513  0.1435  0.3487
 1324TIP3    H225388   4.938   0.714  14.765 -1.2069  0.8996  1.6231
 1325TIP3   OH225389   3.296   0.866  17.126 -0.1245 -0.1029 -0.3357
 1325TIP3    H125390   3.301   0.924  17.202  0.1483 -2.4365  1.5394
 1325TIP3    H225391   3.381   0.823  17.124 -0.7119 -1.2747 -0.9365
 1326TIP3   OH225392   4.251   5.081  13.775 -0.7049  0.1316  0.0076
 1326TIP3    H125393   4.261   5.038  13.691 -1.6199  0.3875 -0.2385
 1326TIP3    H225394   4.161   5.061  13.802 -0.4982  0.2455  0.8088
 1327TIP3   OH225395   6.592   3.684  16.169  0.1650  0.1229  0.7725
 1327TIP3    H125396   6.668   3.741  16.157 -0.3930  0.5079 -1.5667
 1327TIP3    H225397   6.598   3.621  16.097 -1.7638  0.2554  0.4271
 1328TIP3   OH225398   4.406   0.726   3.665 -0.0250 -0.7375 -0.4034
 1328TIP3    H125399   4.354   0.709   3.586  0.8336 -0.3786 -1.0628
 1328TIP3    H225400   4.464   0.798   3.640 -0.3658  0.0165  0.8453
 1329TIP3   OH225401   0.423   5.358  14.003  0.4675 -0.3904  0.1067
 1329TIP3    H125402   0.356   5.373  13.937  0.4955 -1.0011 -0.0638
 1329TIP3    H225403   0.379   5.376  14.087  0.3394  0.0534 -0.0532
 1330TIP3   OH225404   4.272   2.392  16.322  0.1997  0.1708 -0.7500
 1330TIP3    H125405   4.362   2.406  16.292  0.9829 -0.2149  1.2751
 1330TIP3    H225406   4.282   2.347  16.406 -1.8836  0.5594 -0.2569
 1331TIP3   OH225407   2.361   5.531   2.665 -0.3284 -0.5501 -0.3738
 1331TIP3    H125408   2.371   5.611   2.613 -2.2030 -0.8594 -1.3235
 1331TIP3    H225409   2.448   5.491   2.666  1.2822  2.5088  1.9931
 1332TIP3   OH225410   0.504   4.902  11.211 -0.2549 -0.3184  0.2908
 1332TIP3    H125411   0.466   4.857  11.136 -0.1815  1.8538 -1.1484
 1332TIP3    H225412   0.430   4.929  11.263 -0.5268  0.8681 -0.6722
 1333TIP3   OH225413   1.022   5.293  15.465  0.1827 -0.4288 -0.2394
 1333TIP3    H125414   1.036   5.308  15.371 -1.1124  1.9119 -0.1186
 1333TIP3    H225415   0.930   5.314  15.479  0.2162 -1.2917  1.4896
 1334TIP3   OH225416   4.182   4.711  16.115  0.4590  0.1738 -0.2861
 1334TIP3    H125417   4.178   4.766  16.036  1.2138  0.6958  0.0279
 1334TIP3    H225418   4.203   4.772  16.185  0.0680 -0.3338  0.2805
 1335TIP3   OH225419   5.038   4.805  15.470  0.3751 -0.0903  0.2188
 1335TIP3    H125420   4.993   4.810  15.386 -2.1228  0.9046  1.5205
 1335TIP3    H225421   5.028   4.714  15.498  0.7340 -0.2891 -0.2857
 1336TIP3   OH225422   2.274   4.174  13.974  0.1109 -1.0293  0.5538
 1336TIP3    H125423   2.211   4.106  13.953 -0.5537 -0.0420 -0.7135
 1336TIP3    H225424   2.221   4.250  14.000  0.8437 -1.1459  2.6119
 1337TIP3   OH225425   6.433   1.682  10.976  1.0457 -1.0650  0.2065
 1337TIP3    H125426   6.438   1.625  10.899  1.0046 -0.7705 -0.0140
 1337TIP3    H225427   6.346   1.665  11.013 -0.8577  2.0449 -2.3517
 1338TIP3   OH225428   2.163   1.412  10.620 -0.1527 -0.2492  1.1648
 1338TIP3    H125429   2.100   1.340  10.621  1.2704 -1.5694  2.4720
 1338TIP3    H225430   2.153   1.452  10.534 -2.5356 -0.5838  1.2355
 1339TIP3   OH225431   0.497   1.187  17.218 -0.0896 -0.1147  0.3630
 1339TIP3    H125432   0.444   1.140  17.154 -2.3244  1.2648  1.1021
 1339TIP3    H225433   0.564   1.231  17.166 -0.8543 -0.3281 -0.8536
 1340TIP3   OH225434   2.944   2.352   1.795  0.3355 -0.2031 -0.4858
 1340TIP3    H125435   3.038   2.357   1.812 -0.0091  0.6171  1.3203
 1340TIP3    H225436   2.932   2.268   1.750  1.5852 -1.6500  1.7305
 1341TIP3   OH225437   3.100   4.113  14.056 -0.5671 -0.1614  0.8647
 1341TIP3    H125438   3.014   4.146  14.082 -0.3138  0.5136  0.8686
 1341TIP3    H225439   3.090   4.089  13.964 -0.6971  0.1481  0.7949
 1342TIP3   OH225440   5.854   1.895   3.881 -0.0347  0.3349 -0.2165
 1342TIP3    H125441   5.908   1.877   3.804  0.8922  2.0959 -0.0513
 1342TIP3    H225442   5.801   1.817   3.893  1.7068 -1.0492 -1.0583
 1343TIP3   OH225443   5.431   3.352  16.256  0.0149 -0.2948 -0.4247
 1343TIP3    H125444   5.419   3.404  16.177 -0.0992  1.1176  0.4894
 1343TIP3    H225445   5.525   3.337  16.262  0.3596  1.9595  0.5933
 1344TIP3   OH225446   5.886   3.295   0.819 -0.1861 -0.4713 -0.8549
 1344TIP3    H125447   5.905   3.328   0.906  0.1912  2.3611 -1.9020
 1344TIP3    H225448   5.791   3.301   0.811 -0.2718 -1.2587 -0.4626
 1345TIP3   OH225449   0.023   3.712  16.758 -0.2422  0.1757 -0.5041
 1345TIP3    H125450   0.070   3.757  16.828  0.4513  0.7878 -1.3475
 1345TIP3    H225451   0.090   3.664  16.709 -0.5156  0.7858 -1.5150
 1346TIP3   OH225452   3.629   1.432  17.175 -0.1317  0.3203  0.4660
 1346TIP3    H125453   3.548   1.383  17.183 -0.9147  1.6492  0.9941
 1346TIP3    H225454   3.678   1.410  17.255 -0.6330  0.6771  0.8718
 1347TIP3   OH225455   0.041   4.535  15.672  0.2746  0.1780 -0.2382
 1347TIP3    H125456   0.012   4.601  15.735  0.2912  0.5247 -0.5936
 1347TIP3    H225457  -0.023   4.539  15.601  1.4476  1.3123 -1.2787
 1348TIP3   OH225458   1.963   2.011  13.540  0.2830 -0.5219  0.2843
 1348TIP3    H125459   2.035   1.999  13.602  2.3738  0.6627 -1.7535
 1348TIP3    H225460   1.966   1.933  13.484  0.3233 -0.2288 -0.1252
 1349TIP3   OH225461   6.195   4.938  12.816 -0.3855  0.1105 -0.2122
 1349TIP3    H125462   6.241   4.995  12.877  0.4605 -1.8089  1.0058
 1349TIP3    H225463   6.173   4.860  12.866 -0.4027 -1.2025 -2.1307
 1350TIP3   OH225464   3.119   6.533   3.836 -0.4207  0.3047 -0.2657
 1350TIP3    H125465   3.099   6.626   3.845 -0.7880  0.0660  2.0809
 1350TIP3    H225466   3.078   6.507   3.754 -0.4895  2.1619 -0.8540
 1351TIP3   OH225467   4.005   6.074  15.431 -0.1298  0.0262 -0.1632
 1351TIP3    H125468   4.016   6.130  15.507 -0.1623 -0.1745 -0.0093
 1351TIP3    H225469   3.913   6.083  15.406 -0.1897 -0.1299 -0.0021
 1352TIP3   OH225470   0.857   5.822  12.766  0.4185  0.0150  0.2239
 1352TIP3    H125471   0.803   5.897  12.744  2.9228  1.7217 -0.5365
 1352TIP3    H225472   0.915   5.854  12.836  1.1476 -1.3919  0.3031
 1353TIP3   OH225473   3.057   1.096  17.332 -0.2393  1.1337 -0.1654
 1353TIP3    H125474   3.091   1.139  17.410 -0.2275  0.3450  0.2768
 1353TIP3    H225475   3.119   1.119  17.263  1.4434 -0.5601  0.6990
 1354TIP3   OH225476   4.694   2.237   1.788  0.1733 -0.0942  0.2356
 1354TIP3    H125477   4.692   2.173   1.859 -1.5900 -1.4822 -0.9611
 1354TIP3    H225478   4.613   2.286   1.797  0.2904  0.2262 -0.3888
 1355TIP3   OH225479   6.547   1.107   3.902  0.1011  0.8366 -0.1532
 1355TIP3    H125480   6.533   1.012   3.906 -1.0720  1.0114  0.2367
 1355TIP3    H225481   6.617   1.123   3.964 -0.7660  0.3960  0.9725
 1356TIP3   OH225482   5.215   6.744  11.464 -0.2504 -0.4181  0.3383
 1356TIP3    H125483   5.281   6.811  11.446  0.5407 -1.1277  0.5358
 1356TIP3    H225484   5.152   6.752  11.392 -0.9106  1.4239  1.0724
 1357TIP3   OH225485   3.567   3.239  10.548  0.2512 -0.6126  0.1528
 1357TIP3    H125486   3.501   3.184  10.589  0.2557  0.7353  2.1376
 1357TIP3    H225487   3.631   3.178  10.511 -0.3360 -1.9338  1.2618
 1358TIP3   OH225488   1.066   5.401   2.264 -0.0116  0.3499  0.3151
 1358TIP3    H125489   1.085   5.308   2.281 -1.0867 -0.1608 -1.1116
 1358TIP3    H225490   0.974   5.402   2.238 -0.0386  1.8510  0.4050
 1359TIP3   OH225491   1.036   1.041  13.623  0.9494 -0.4159  0.3059
 1359TIP3    H125492   1.049   0.985  13.546  2.2605 -1.2806  1.1211
 1359TIP3    H225493   1.032   0.980  13.696  1.1364  0.4877  1.0804
 1360TIP3   OH225494   2.312   1.543  12.113  0.1831  0.7220  0.3141
 1360TIP3    H125495   2.321   1.495  12.031 -0.8135  1.1463 -0.0522
 1360TIP3    H225496   2.321   1.477  12.181  0.1506  0.2329 -0.1543
 1361TIP3   OH225497   1.164   1.603  11.776  0.3419  0.6276 -0.9456
 1361TIP3    H125498   1.153   1.685  11.727  0.9957  0.5453 -1.2446
 1361TIP3    H225499   1.256   1.581  11.764 -0.0251 -0.6311 -1.6173
 1362TIP3   OH225500   2.233   2.543   0.890  1.4054 -0.2173 -0.3501
 1362TIP3    H125501   2.203   2.617   0.943 -0.7896 -0.3285 -1.3145
 1362TIP3    H225502   2.313   2.514   0.932 -0.1542 -0.2732  2.8711
 1363TIP3   OH225503   3.322   3.887   1.683  0.0710  0.7425 -0.3389
 1363TIP3    H125504   3.359   3.810   1.641  0.7901 -0.1178  1.7636
 1363TIP3    H225505   3.266   3.853   1.752  1.0422  2.0654  1.1738
 1364TIP3   OH225506   5.604   4.177   3.505  0.0191 -0.2273  0.5049
 1364TIP3    H125507   5.629   4.130   3.585 -0.3838  0.0611  0.8031
 1364TIP3    H225508   5.539   4.241   3.534  0.0768  0.0678 -0.0112
 1365TIP3   OH225509   3.130   1.903  12.096  0.0285  0.0124 -0.1978
 1365TIP3    H125510   3.117   1.943  12.182  2.3572  1.8975 -0.5987
 1365TIP3    H225511   3.088   1.964  12.035 -1.3698 -1.1735 -0.4699
 1366TIP3   OH225512   3.853   2.855   1.468  0.4530 -0.4296  0.5407
 1366TIP3    H125513   3.945   2.882   1.461  0.1829  0.0811 -2.3570
 1366TIP3    H225514   3.849   2.772   1.420 -0.9750  0.7100 -1.4232
 1367TIP3   OH225515   3.849   6.732  15.754 -0.6926  0.2370  0.3937
 1367TIP3    H125516   3.881   6.784  15.680 -0.8382  1.1216  0.9333
 1367TIP3    H225517   3.775   6.782  15.789 -1.5816 -0.9120  0.2337
 1368TIP3   OH225518   5.124   3.515   5.544 -0.0055  0.5427  0.3975
 1368TIP3    H125519   5.112   3.605   5.576 -1.0845  0.5464  0.0266
 1368TIP3    H225520   5.117   3.460   5.623 -2.1035  0.5915  0.3072
 1369TIP3   OH225521   4.753   5.522   4.457  0.1703 -0.0657 -0.1160
 1369TIP3    H125522   4.776   5.567   4.376 -1.1523 -0.1046 -0.5319
 1369TIP3    H225523   4.663   5.492   4.444 -0.0766 -0.0546  1.3766
 1370TIP3   OH225524   0.595   4.903   4.053 -0.0813  1.0062 -0.5296
 1370TIP3    H125525   0.689   4.918   4.060 -0.1872  1.1081  1.1484
 1370TIP3    H225526   0.583   4.865   3.966  1.6343  0.0473 -0.3935
 1371TIP3   OH225527   4.940   4.746   2.520  0.7913 -0.5396 -0.1958
 1371TIP3    H125528   4.887   4.722   2.444  1.9995 -1.2260 -0.8507
 1371TIP3    H225529   5.015   4.792   2.484  0.2854  1.1354  0.7897
 1372TIP3   OH225530   3.807   5.324   1.209 -0.1773  1.4208 -0.2700
 1372TIP3    H125531   3.894   5.307   1.174 -0.6171 -0.8749 -0.3627
 1372TIP3    H225532   3.809   5.289   1.298 -1.3767  0.0728 -0.7337
 1373TIP3   OH225533   1.571   0.436  13.681  0.1384  0.4471 -0.1922
 1373TIP3    H125534   1.634   0.462  13.748 -0.6502  1.0822  0.3198
 1373TIP3    H225535   1.568   0.340  13.688  1.0144  0.4044 -0.2084
 1374TIP3   OH225536   6.600   3.552  15.066 -0.0987  0.3570 -0.2024
 1374TIP3    H125537   6.688   3.584  15.085  0.9526 -2.4785  0.2712
 1374TIP3    H225538   6.571   3.602  14.990  2.8405 -0.0678 -1.7279
 1375TIP3   OH225539   6.289   0.737   2.576 -0.0842 -0.6738  0.1095
 1375TIP3    H125540   6.271   0.746   2.482 -1.3547 -0.8264  0.3150
 1375TIP3    H225541   6.382   0.717   2.581 -0.2513 -1.9645 -1.2003
 1376TIP3   OH225542   2.636   0.901   1.309 -0.2603  0.0494 -0.0277
 1376TIP3    H125543   2.612   0.883   1.218  1.2044 -2.8881  0.0562
 1376TIP3    H225544   2.576   0.847   1.361 -1.3002  1.9414  0.8464
 1377TIP3   OH225545   1.359   0.405  14.052  0.5487  0.1753  0.1266
 1377TIP3    H125546   1.371   0.495  14.021  0.6931  0.1506  0.1095
 1377TIP3    H225547   1.337   0.356  13.973 -1.3769  0.5204  0.3937
 1378TIP3   OH225548   6.257   2.925   4.209 -0.6430 -0.2354  0.2123
 1378TIP3    H125549   6.325   2.904   4.273  0.8740  2.2102 -0.4953
 1378TIP3    H225550   6.304   2.950   4.130 -2.3003  1.4798 -0.3212
 1379TIP3   OH225551   2.750   4.694   2.984 -0.1147  0.1374  0.2031
 1379TIP3    H125552   2.691   4.769   2.996 -0.9542 -0.5142  0.2128
 1379TIP3    H225553   2.758   4.685   2.890 -0.9396 -0.4585  0.1783
 1380TIP3   OH225554   5.710   3.309   2.973 -0.2063  0.0815 -0.2543
 1380TIP3    H125555   5.742   3.390   2.934 -1.0567  0.7340  0.3607
 1380TIP3    H225556   5.736   3.314   3.064  0.6743 -0.8554 -0.4343
 1381TIP3   OH225557   1.089   6.482  12.968 -0.6589 -0.5340  0.0558
 1381TIP3    H125558   1.098   6.388  12.985  0.5458 -0.7924 -1.7302
 1381TIP3    H225559   1.113   6.492  12.876  0.1192  1.6476  0.4356
 1382TIP3   OH225560   5.839   1.838   3.580 -0.3695 -0.3227 -0.3467
 1382TIP3    H125561   5.862   1.804   3.494  0.3401 -0.9669  0.0854
 1382TIP3    H225562   5.744   1.845   3.579 -0.3130  0.6020 -1.5161
 1383TIP3   OH225563   1.444   5.612   3.729 -0.7100 -0.4408 -0.1826
 1383TIP3    H125564   1.445   5.708   3.730 -1.6039 -0.4230 -0.8147
 1383TIP3    H225565   1.376   5.588   3.791 -0.5604 -0.6716 -0.1050
 1384TIP3   OH225566   3.285   0.348  16.101  0.1619  0.3498 -0.2137
 1384TIP3    H125567   3.215   0.412  16.115 -0.5463 -0.2574 -0.9352
 1384TIP3    H225568   3.324   0.372  16.017  0.4935  0.3679 -0.0596
 1385TIP3   OH225569   6.017   5.523   2.599 -0.0624 -0.1623 -0.3519
 1385TIP3    H125570   5.973   5.448   2.639  0.4984 -1.5023 -2.1208
 1385TIP3    H225571   6.026   5.586   2.670 -1.1924 -1.4753  1.0262
 1386TIP3   OH225572   0.621   0.658  16.293 -0.3014 -0.0373 -0.0954
 1386TIP3    H125573   0.643   0.565  16.301 -3.7153 -0.9172  1.1628
 1386TIP3    H225574   0.623   0.691  16.382  1.0023  1.1847 -0.5509
 1387TIP3   OH225575   1.584   0.711  17.104 -0.3744 -1.6247  0.0214
 1387TIP3    H125576   1.667   0.664  17.100 -0.6180 -2.0194 -0.4834
 1387TIP3    H225577   1.523   0.658  17.053 -1.0171 -1.4901  0.6201
 1388TIP3   OH225578   6.340   6.023   4.738 -0.2651  0.1726  0.1459
 1388TIP3    H125579   6.257   6.025   4.786 -0.1198 -0.6620  0.4511
 1388TIP3    H225580   6.391   5.955   4.782  0.7980  1.0434  0.3092
 1389TIP3   OH225581   0.092   1.838  12.622 -0.8584 -0.2562  0.5317
 1389TIP3    H125582   0.103   1.859  12.529  1.6360 -2.2511  0.2592
 1389TIP3    H225583   0.078   1.744  12.624  1.7879 -0.7458  2.2079
 1390TIP3   OH225584   6.581   5.176   5.972  0.3594  0.2446 -0.3775
 1390TIP3    H125585   6.489   5.183   5.998  0.4036 -0.2670 -0.0588
 1390TIP3    H225586   6.629   5.221   6.042  0.2124  2.8693 -1.8434
 1391TIP3   OH225587   1.562   5.653  12.722 -0.6795  0.2880  0.7253
 1391TIP3    H125588   1.478   5.609  12.714 -0.1574 -0.7572  0.8039
 1391TIP3    H225589   1.542   5.746  12.710 -1.4436 -0.1479 -2.2678
 1392TIP3   OH225590   5.616   1.270   0.152  0.1925 -0.1216  0.4583
 1392TIP3    H125591   5.522   1.257   0.149  0.1849  0.1187 -0.5139
 1392TIP3    H225592   5.643   1.274   0.061  0.7525  2.5124  0.6473
 1393TIP3   OH225593   0.958   1.554  15.265  0.8602 -0.3889 -0.3354
 1393TIP3    H125594   1.001   1.559  15.179  0.4217 -1.2520 -0.6172
 1393TIP3    H225595   0.963   1.462  15.289  1.5831 -0.0507  0.9036
 1394TIP3   OH225596   0.073   0.620   2.989 -0.0112 -0.8946  0.3129
 1394TIP3    H125597   0.091   0.526   2.994 -1.7323 -1.1712  3.0670
 1394TIP3    H225598   0.017   0.639   3.064 -0.4404  2.2112 -0.6185
 1395TIP3   OH225599   6.225   2.582  11.893  0.4074  0.5933  0.0587
 1395TIP3    H125600   6.259   2.600  11.981  0.1453  1.5805 -0.0223
 1395TIP3    H225601   6.281   2.513  11.859  0.3622  0.0211  1.0902
 1396TIP3   OH225602   5.313   3.493   1.414 -0.2708 -0.3669 -0.2816
 1396TIP3    H125603   5.376   3.434   1.457 -0.3298  0.3990  0.8905
 1396TIP3    H225604   5.361   3.527   1.338  0.5492 -0.1918  0.3010
 1397TIP3   OH225605   1.099   5.765  14.452 -0.2070  0.0906 -0.2611
 1397TIP3    H125606   1.129   5.677  14.429  2.1627  0.2370  1.7958
 1397TIP3    H225607   1.162   5.824  14.411 -0.8784  0.7539 -0.3616
 1398TIP3   OH225608   0.884   2.079   4.797 -0.3098 -0.3284 -0.1728
 1398TIP3    H125609   0.808   2.061   4.853 -0.2371  1.1923  0.4596
 1398TIP3    H225610   0.899   2.173   4.806  3.6764 -0.9563  2.3616
 1399TIP3   OH225611   5.711   1.072   3.429 -0.1400  0.1140 -0.0566
 1399TIP3    H125612   5.705   1.142   3.364 -0.5108  1.6143  1.5232
 1399TIP3    H225613   5.803   1.045   3.427 -0.1565  0.0801 -1.2169
 1400TIP3   OH225614   3.244   3.057  15.145  0.0365  0.2825  0.8073
 1400TIP3    H125615   3.259   3.139  15.193  1.2834  0.4066  0.2518
 1400TIP3    H225616   3.321   3.004  15.164  2.1030  1.4144 -3.2099
 1401TIP3   OH225617   0.244   5.568  11.146 -0.3941  0.4784  0.2196
 1401TIP3    H125618   0.311   5.504  11.124  0.5086  1.4983 -0.0918
 1401TIP3    H225619   0.220   5.607  11.062 -1.4967  0.0274  0.3082
 1402TIP3   OH225620   5.021   0.850  13.198  0.0422  0.0393 -0.3118
 1402TIP3    H125621   5.052   0.904  13.125 -0.7756  0.4792 -0.3580
 1402TIP3    H225622   4.993   0.914  13.264  1.3288 -0.3486  0.6562
 1403TIP3   OH225623   1.887   0.233  14.853 -0.2485  0.4954 -0.1248
 1403TIP3    H125624   1.879   0.147  14.810  0.0337  0.8547 -0.9241
 1403TIP3    H225625   1.887   0.213  14.946 -1.5978 -0.2626 -0.2576
 1404TIP3   OH225626   3.722   2.992  11.630 -0.0009 -0.2603 -0.2684
 1404TIP3    H125627   3.776   2.945  11.694 -0.3653 -2.0194 -1.1912
 1404TIP3    H225628   3.664   2.926  11.594 -2.7827  1.5363  0.5949
 1405TIP3   OH225629   4.837   5.622  11.761 -0.0528  0.6323 -0.2831
 1405TIP3    H125630   4.803   5.692  11.817 -2.3222  0.6269 -1.5620
 1405TIP3    H225631   4.820   5.542  11.811 -0.1346  0.7691 -0.0892
 1406TIP3   OH225632   0.083   4.088   0.170 -0.2784 -0.4237 -0.1708
 1406TIP3    H125633  -0.006   4.121   0.176 -0.2066 -0.3959  1.0473
 1406TIP3    H225634   0.117   4.093   0.260  0.0818 -2.8454 -0.0972
 1407TIP3   OH225635   4.077   0.575   1.671  0.5369  1.0547 -0.4682
 1407TIP3    H125636   4.141   0.626   1.621  2.3502 -0.4999  0.1189
 1407TIP3    H225637   4.022   0.535   1.604  1.6408  0.6102 -1.1488
 1408TIP3   OH225638   4.297   1.788  11.946 -0.3037  0.1621  0.0212
 1408TIP3    H125639   4.259   1.763  11.862 -0.3634 -0.6494  0.2888
 1408TIP3    H225640   4.245   1.741  12.011 -0.9000  1.5432  0.5918
 1409TIP3   OH225641   1.169   2.293   0.277  0.1231 -0.1958 -0.6936
 1409TIP3    H125642   1.123   2.316   0.197 -0.2402 -0.0714 -0.4495
 1409TIP3    H225643   1.155   2.367   0.335 -0.8277 -0.8968  0.0060
 1410TIP3   OH225644   5.257   3.498   0.669  0.4674 -0.2323 -0.2832
 1410TIP3    H125645   5.338   3.453   0.647 -0.3328 -1.5045 -0.7760
 1410TIP3    H225646   5.246   3.564   0.600 -0.3649 -2.0086 -1.9363
 1411TIP3   OH225647   6.078   1.338   1.328  0.7639 -0.2116  0.2036
 1411TIP3    H125648   6.080   1.424   1.286  1.2736  0.3742  1.3624
 1411TIP3    H225649   5.998   1.340   1.382  1.7660  0.3227  1.7403
 1412TIP3   OH225650   6.554   6.719  14.762  0.1017  0.3701  0.5446
 1412TIP3    H125651   6.636   6.767  14.755 -0.2377  1.4130  2.7303
 1412TIP3    H225652   6.574   6.631  14.732  2.3588  0.2862  2.0476
 1413TIP3   OH225653   2.594   1.214   6.209 -0.1535 -0.2366  0.2958
 1413TIP3    H125654   2.656   1.282   6.233  1.9979 -2.2613  0.8197
 1413TIP3    H225655   2.606   1.202   6.114 -2.1538  1.5522 -0.2596
 1414TIP3   OH225656   3.330   4.516  11.292 -0.7442  0.3047 -0.8201
 1414TIP3    H125657   3.352   4.471  11.210 -1.3485  0.0490 -0.8481
 1414TIP3    H225658   3.410   4.562  11.317 -0.2842 -0.3512 -1.0805
 1415TIP3   OH225659   2.741   0.585  16.305 -0.0850 -0.0339  0.0272
 1415TIP3    H125660   2.657   0.626  16.284  0.7294  1.2104 -0.9859
 1415TIP3    H225661   2.758   0.526  16.231  1.0728  1.6224 -1.1176
 1416TIP3   OH225662   5.182   6.226   3.463  0.4465  0.7302 -0.0078
 1416TIP3    H125663   5.183   6.178   3.380  1.5013  0.5315  0.1122
 1416TIP3    H225664   5.089   6.230   3.487  0.4045 -3.2828  1.1683
 1417TIP3   OH225665   0.959   1.152   3.035 -0.4064 -0.3336  0.1454
 1417TIP3    H125666   0.919   1.066   3.046 -0.9610  0.0365  1.2404
 1417TIP3    H225667   0.904   1.196   2.970 -1.9159  0.1961  1.6825
 1418TIP3   OH225668   5.181   5.879   1.898  0.4355  0.0458  0.4886
 1418TIP3    H125669   5.104   5.823   1.906  0.2127  0.6004  4.3230
 1418TIP3    H225670   5.157   5.960   1.944  2.3597  1.3913 -0.7301
 1419TIP3   OH225671   5.952   4.077   3.386  0.2789  0.0641  0.6545
 1419TIP3    H125672   6.015   4.078   3.314 -0.0977 -0.4067  0.3123
 1419TIP3    H225673   5.914   4.165   3.387  0.8248  0.2998  0.7604
 1420TIP3   OH225674   4.030   4.930   3.953 -0.3219 -0.3395  0.2912
 1420TIP3    H125675   3.970   4.864   3.919  0.9811 -0.5299 -1.8476
 1420TIP3    H225676   3.977   5.008   3.964 -0.9697 -0.4456 -1.7241
 1421TIP3   OH225677   4.609   3.026  16.412  0.8212 -0.4560  0.2337
 1421TIP3    H125678   4.697   2.990  16.402  0.8293 -1.4750  2.9444
 1421TIP3    H225679   4.623   3.116  16.441  1.0384 -0.8022  1.2617
 1422TIP3   OH225680   0.660   1.735   3.914 -0.1859  0.0287 -0.2925
 1422TIP3    H125681   0.754   1.756   3.917 -0.5276  1.6292 -0.0597
 1422TIP3    H225682   0.628   1.779   3.835 -0.5863 -1.3416 -0.9355
 1423TIP3   OH225683   3.383   4.178  14.884  0.3546 -0.0064 -0.4719
 1423TIP3    H125684   3.366   4.087  14.858  1.2972  0.2946 -2.3614
 1423TIP3    H225685   3.455   4.206  14.827  0.8948  1.5640  0.9036
 1424TIP3   OH225686   3.144   4.357   3.729  0.3661  0.3059  0.2120
 1424TIP3    H125687   3.154   4.434   3.672 -0.1003 -0.7800 -1.4048
 1424TIP3    H225688   3.229   4.313   3.724 -0.0613 -0.4604 -0.7111
 1425TIP3   OH225689   4.720   4.312  12.093  0.1910  0.1375  0.2984
 1425TIP3    H125690   4.749   4.371  12.023  0.1358  0.8816  0.8946
 1425TIP3    H225691   4.695   4.370  12.164 -1.7696 -0.5176  0.1993
 1426TIP3   OH225692   3.756   2.373   2.635 -0.2437 -0.0689 -0.3248
 1426TIP3    H125693   3.791   2.432   2.701  1.5940  0.6276 -1.8412
 1426TIP3    H225694   3.832   2.329   2.598 -1.4651 -2.6886  0.0276
 1427TIP3   OH225695   3.715   2.810  14.060 -0.0004 -0.3278 -0.3592
 1427TIP3    H125696   3.721   2.877  13.992 -0.0373 -0.6490 -0.6826
 1427TIP3    H225697   3.717   2.859  14.143 -0.4728  0.1067 -0.6002
 1428TIP3   OH225698   5.767   1.761  10.836 -0.0865 -0.3032 -0.3794
 1428TIP3    H125699   5.807   1.682  10.871 -0.3028 -0.8074 -1.2436
 1428TIP3    H225700   5.714   1.795  10.909 -0.3158 -1.1702 -0.1287
 1429TIP3   OH225701   5.844   1.394  13.285 -0.0444  0.2224  0.1231
 1429TIP3    H125702   5.858   1.357  13.198  1.2970 -3.7798  1.8399
 1429TIP3    H225703   5.783   1.334  13.328  1.5902  0.3363  2.8578
 1430TIP3   OH225704   6.689   0.960   3.625 -0.6200 -0.2138  0.3610
 1430TIP3    H125705   6.658   0.927   3.709 -0.3081 -0.2557  0.4628
 1430TIP3    H225706   6.738   1.039   3.647 -2.7465  1.3035 -0.0284
 1431TIP3   OH225707   5.995   4.934   1.162  0.1920 -0.7401  0.3312
 1431TIP3    H125708   5.914   4.948   1.112  0.0062  0.2233  0.8765
 1431TIP3    H225709   5.979   4.979   1.245  1.8467  0.8364 -0.1392
 1432TIP3   OH225710   5.182   4.866   2.526 -0.2702 -0.2460 -0.1453
 1432TIP3    H125711   5.214   4.952   2.555  1.1063 -1.0785  0.9304
 1432TIP3    H225712   5.221   4.804   2.588 -1.2755 -1.6541 -0.8743
 1433TIP3   OH225713   3.943   3.702  12.208  0.3403  0.2627  0.2014
 1433TIP3    H125714   3.885   3.721  12.134 -0.4812 -1.4738  0.3638
 1433TIP3    H225715   3.935   3.779  12.265 -1.0456  0.4799 -0.2629
 1434TIP3   OH225716   0.571   4.869  13.904  0.7107  0.5605  0.2451
 1434TIP3    H125717   0.598   4.845  13.993  1.2075  1.5544  0.3746
 1434TIP3    H225718   0.476   4.880  13.910  0.3380 -2.0079  0.0112
 1435TIP3   OH225719   4.658   0.960   1.768  0.1672 -0.2406  0.4130
 1435TIP3    H125720   4.690   0.975   1.679 -1.0171 -0.3353 -0.0496
 1435TIP3    H225721   4.565   0.941   1.757  0.3084 -1.7438  1.5420
 1436TIP3   OH225722   6.470   5.867   5.684 -0.4955  0.1431  0.0081
 1436TIP3    H125723   6.413   5.796   5.655  1.7324 -2.5788  1.7938
 1436TIP3    H225724   6.531   5.880   5.611 -0.5799 -0.1764 -0.1194
 1437TIP3   OH225725   2.368   3.364  15.513  0.5128  0.1815 -0.0840
 1437TIP3    H125726   2.432   3.372  15.442  0.7465 -0.1802  0.0769
 1437TIP3    H225727   2.399   3.426  15.579  0.1812  0.6665 -0.3742
 1438TIP3   OH225728   2.272   1.186   1.627 -0.4475  0.1402 -0.0433
 1438TIP3    H125729   2.193   1.189   1.681 -0.2618 -0.1190  0.2425
 1438TIP3    H225730   2.344   1.189   1.689 -0.2195  1.0375 -0.3335
 1439TIP3   OH225731   1.811   2.702  16.026  0.2713  0.3180  0.3543
 1439TIP3    H125732   1.737   2.700  15.965  0.8062  0.3105 -0.3091
 1439TIP3    H225733   1.818   2.794  16.053  1.1047  0.6666 -0.9611
 1440TIP3   OH225734   6.588   6.731   4.042 -0.0416  0.1160 -0.0359
 1440TIP3    H125735   6.667   6.683   4.064  0.0773  0.1125 -0.4634
 1440TIP3    H225736   6.617   6.821   4.027  0.3962 -0.4278 -3.1202
 1441TIP3   OH225737   3.403   6.341   3.330  0.6122  0.0332  0.3609
 1441TIP3    H125738   3.480   6.316   3.280  0.8673 -1.2189  1.3234
 1441TIP3    H225739   3.355   6.259   3.342  0.2825  0.3984  1.6764
 1442TIP3   OH225740   5.757   2.152  16.455 -0.2311  0.0854 -0.9278
 1442TIP3    H125741   5.743   2.059  16.437 -2.3747  0.5543 -2.0568
 1442TIP3    H225742   5.708   2.168  16.535  0.9290  0.0883 -0.1933
 1443TIP3   OH225743   5.736   1.626   4.465  0.0060  0.0316 -0.0684
 1443TIP3    H125744   5.693   1.711   4.480 -0.5071 -0.1870 -0.2536
 1443TIP3    H225745   5.682   1.563   4.513  1.0300 -0.0574  1.0126
 1444TIP3   OH225746   3.300   5.761  11.257  0.2620  0.2427  0.2466
 1444TIP3    H125747   3.225   5.774  11.199  0.0570  1.3398  0.7304
 1444TIP3    H225748   3.375   5.792  11.207  0.2775 -0.1078  0.0555
 1445TIP3   OH225749   1.491   2.063   1.276  0.1597  0.7366 -0.0354
 1445TIP3    H125750   1.409   2.024   1.246  0.0284  0.3106  0.8312
 1445TIP3    H225751   1.467   2.151   1.304  0.1295  0.8463 -0.3983
 1446TIP3   OH225752   2.026   3.282   4.301 -0.0695 -0.1898 -0.6328
 1446TIP3    H125753   2.095   3.275   4.235 -1.2783  1.4553 -2.1636
 1446TIP3    H225754   1.955   3.227   4.268  0.1426 -1.1568  0.4720
 1447TIP3   OH225755   1.725   1.364  15.385  0.1168 -1.0051 -0.1607
 1447TIP3    H125756   1.817   1.349  15.407 -0.0679 -0.9984  0.6690
 1447TIP3    H225757   1.718   1.459  15.375 -0.2187 -0.7318  1.9801
 1448TIP3   OH225758   3.843   5.512  14.259  0.5144 -0.2837 -0.3985
 1448TIP3    H125759   3.748   5.508  14.249  0.4816 -1.2278  0.1566
 1448TIP3    H225760   3.856   5.557  14.343  0.5893  0.6721 -0.9131
 1449TIP3   OH225761   5.297   2.770   0.402 -0.1693  0.4893 -0.1262
 1449TIP3    H125762   5.238   2.722   0.344 -1.8063  2.5308 -0.2861
 1449TIP3    H225763   5.322   2.706   0.469 -0.7808 -1.0467 -1.3019
 1450TIP3   OH225764   1.289   6.138  13.693 -0.0633  0.0226 -0.1716
 1450TIP3    H125765   1.374   6.096  13.701 -1.3276 -2.8963 -0.6019
 1450TIP3    H225766   1.300   6.202  13.623  1.6852 -0.5198 -0.4463
 1451TIP3   OH225767   2.061   0.041  15.275 -0.1130  0.1974  0.0454
 1451TIP3    H125768   2.154   0.023  15.259  0.0810  1.2826 -0.0717
 1451TIP3    H225769   2.022  -0.046  15.283  0.8219 -0.2864 -0.4152
 1452TIP3   OH225770   0.612   3.751   3.006 -0.0487 -0.7792 -0.1106
 1452TIP3    H125771   0.590   3.832   3.052  1.8209 -1.4837  2.2210
 1452TIP3    H225772   0.559   3.684   3.050  0.6147 -1.2481 -0.0238
 1453TIP3   OH225773   4.926   3.158   5.740 -0.3192 -0.5175  0.1736
 1453TIP3    H125774   4.883   3.082   5.779  0.0785 -2.1248 -2.2783
 1453TIP3    H225775   5.016   3.130   5.725  0.1205  0.8269  0.1478
 1454TIP3   OH225776   0.886   4.142   2.122 -0.0788  0.3038  0.1848
 1454TIP3    H125777   0.852   4.227   2.093  0.1330  0.4162  0.2665
 1454TIP3    H225778   0.928   4.105   2.045  0.5907  0.6558  0.3792
 1455TIP3   OH225779   5.381   4.728   0.152 -0.3811  0.1748  0.8119
 1455TIP3    H125780   5.372   4.818   0.119  0.3711  0.3834  1.1356
 1455TIP3    H225781   5.446   4.688   0.094 -0.6270 -0.1256  0.7422
 1456TIP3   OH225782   0.667   3.881  15.683 -0.4507  0.4649 -0.1577
 1456TIP3    H125783   0.656   3.975  15.669  1.3580  0.9331  1.2937
 1456TIP3    H225784   0.578   3.846  15.673 -0.8045  1.8800 -3.3946
 1457TIP3   OH225785   5.681   1.320   1.225 -0.4560  0.2377 -0.2732
 1457TIP3    H125786   5.592   1.351   1.239 -0.0398  1.2769  0.2077
 1457TIP3    H225787   5.727   1.395   1.186  0.0124 -0.5517 -1.2983
 1458TIP3   OH225788   4.126   0.154  10.895 -0.4185  0.5503 -0.9890
 1458TIP3    H125789   4.134   0.124  10.804 -1.5341  0.3977 -1.0462
 1458TIP3    H225790   4.124   0.249  10.889  0.4050  0.5739 -1.0376
 1459TIP3   OH225791   4.654   0.255  15.178  0.2166  0.1229 -0.1659
 1459TIP3    H125792   4.701   0.251  15.095  1.2751 -1.4826  0.4561
 1459TIP3    H225793   4.596   0.179  15.177 -2.7360  2.2114 -1.0400
 1460TIP3   OH225794   2.749   2.069   3.778 -0.6245 -0.0310  0.7017
 1460TIP3    H125795   2.799   2.018   3.714 -0.2622  0.1851  0.8123
 1460TIP3    H225796   2.666   2.087   3.733  0.3431  1.7701 -0.4933
 1461TIP3   OH225797   4.482   3.237  13.366  0.5159  0.2186  0.2777
 1461TIP3    H125798   4.493   3.170  13.298  0.3252  0.6165 -0.1535
 1461TIP3    H225799   4.403   3.284  13.339  0.5580  0.5095  0.6693
 1462TIP3   OH225800   3.243   4.347  12.656 -0.7502 -0.1723  0.3498
 1462TIP3    H125801   3.243   4.316  12.746  0.8785 -2.0778 -0.2414
 1462TIP3    H225802   3.315   4.410  12.652  0.0797 -1.1138  0.0962
 1463TIP3   OH225803   4.169   0.466   0.635 -0.0204 -0.0770 -0.1100
 1463TIP3    H125804   4.115   0.469   0.557  0.1935 -0.2947 -0.2687
 1463TIP3    H225805   4.250   0.511   0.609 -0.4687  1.0640  0.4011
 1464TIP3   OH225806   4.243   4.602  16.803  0.1861  0.3289  0.2771
 1464TIP3    H125807   4.243   4.564  16.716 -0.2436  2.1288 -0.5579
 1464TIP3    H225808   4.303   4.677  16.797 -0.7072  1.1469  1.1850
 1465TIP3   OH225809   3.655   1.202  13.770  0.4082 -0.5826  0.3307
 1465TIP3    H125810   3.710   1.206  13.692  0.2816  0.8989  0.3057
 1465TIP3    H225811   3.576   1.156  13.741 -0.3781  1.4318 -0.9138
 1466TIP3   OH225812   3.157   5.408  12.195 -0.0699  0.2720  0.0898
 1466TIP3    H125813   3.136   5.348  12.123 -1.9701 -0.7063  1.3679
 1466TIP3    H225814   3.113   5.489  12.171  3.0339  1.5626 -1.9632
 1467TIP3   OH225815   1.666   3.274  13.483 -1.2627  0.2784 -0.0209
 1467TIP3    H125816   1.655   3.316  13.568 -1.5271  1.2219 -0.5150
 1467TIP3    H225817   1.760   3.278  13.466 -1.4648  2.3651 -0.8925
 1468TIP3   OH225818   4.254   3.349  15.860 -0.6306 -0.0651 -0.1912
 1468TIP3    H125819   4.262   3.264  15.816  1.1214 -0.5340  0.9467
 1468TIP3    H225820   4.291   3.412  15.798  1.5511 -0.6774  0.4066
 1469TIP3   OH225821   1.166   3.396  15.719  0.7019 -0.2179  0.2150
 1469TIP3    H125822   1.246   3.407  15.667  0.5280 -0.5868 -0.1356
 1469TIP3    H225823   1.095   3.425  15.661  0.8037  3.1087  1.5544
 1470TIP3   OH225824   2.527   3.116   6.500 -0.1381 -1.1907 -0.2704
 1470TIP3    H125825   2.532   3.022   6.482  0.4624 -1.0844 -0.6722
 1470TIP3    H225826   2.459   3.148   6.441  0.3000 -1.2211 -0.8000
 1471TIP3   OH225827   4.996   5.277  16.380 -0.1096 -0.3049 -0.1249
 1471TIP3    H125828   4.939   5.330  16.437 -1.1239 -0.3367 -1.0721
 1471TIP3    H225829   5.007   5.195  16.428 -0.0973  0.0503  0.4965
 1472TIP3   OH225830   3.944   1.410  12.083 -0.1985 -0.1318 -0.6189
 1472TIP3    H125831   3.857   1.425  12.119  0.7184  1.8116  0.9899
 1472TIP3    H225832   3.928   1.380  11.994 -2.5307 -2.7716  0.5442
 1473TIP3   OH225833   0.811   2.218   3.099 -0.3619 -0.2783  0.8264
 1473TIP3    H125834   0.749   2.263   3.043 -1.1899 -1.4762  0.7492
 1473TIP3    H225835   0.887   2.277   3.102 -0.1695 -0.2747 -1.7482
 1474TIP3   OH225836   4.331   4.659  15.023 -0.1022 -0.3489  0.4607
 1474TIP3    H125837   4.245   4.629  15.054 -0.3688  0.3667  0.4191
 1474TIP3    H225838   4.378   4.578  15.004 -0.1795 -0.8046  2.0739
 1475TIP3   OH225839   3.536   2.799  11.523  0.1517 -0.6352 -0.3885
 1475TIP3    H125840   3.548   2.735  11.453  2.2751 -0.1142 -0.5717
 1475TIP3    H225841   3.503   2.877  11.479 -0.0370 -0.7999 -0.5438
 1476TIP3   OH225842   0.681   6.147   4.198  0.1771  0.2799 -0.2452
 1476TIP3    H125843   0.666   6.074   4.138  0.4667  1.3345 -1.6604
 1476TIP3    H225844   0.607   6.206   4.183  0.6267  0.8958 -0.1043
 1477TIP3   OH225845   1.263   6.311   4.398  0.3956 -0.2702  0.3931
 1477TIP3    H125846   1.294   6.387   4.349  0.3420 -0.5989 -0.1493
 1477TIP3    H225847   1.341   6.280   4.445  0.6087 -0.3793 -0.0338
 1478TIP3   OH225848   5.794   4.577   0.359  0.0672 -0.8248 -0.0281
 1478TIP3    H125849   5.738   4.572   0.436  0.0333 -0.0011  0.0178
 1478TIP3    H225850   5.786   4.492   0.316 -1.2717 -0.6973 -0.0599
 1479TIP3   OH225851   6.492   0.264  11.828 -0.5001 -0.4731  0.6997
 1479TIP3    H125852   6.500   0.172  11.803 -1.2466 -0.1082 -1.0693
 1479TIP3    H225853   6.555   0.309  11.773 -0.7964  0.1688  0.8736
 1480TIP3   OH225854   6.588   3.532  11.621  0.1239 -0.4276  0.1138
 1480TIP3    H125855   6.637   3.588  11.681  0.8090 -1.5761  0.6714
 1480TIP3    H225856   6.537   3.474  11.679 -0.9956 -0.0411 -0.4480
 1481TIP3   OH225857   5.045   2.362   5.540  0.5330  0.0881  0.0398
 1481TIP3    H125858   4.998   2.280   5.555 -0.0247  0.3428 -0.2546
 1481TIP3    H225859   4.976   2.424   5.514  1.1485  0.2729 -1.1845
 1482TIP3   OH225860   3.740   0.537  11.727 -0.0536  0.3599 -0.7960
 1482TIP3    H125861   3.803   0.489  11.674 -0.2442  0.1410 -0.8249
 1482TIP3    H225862   3.692   0.469  11.775 -0.3514  0.5164 -0.8699
 1483TIP3   OH225863   6.202   3.937  16.129  0.1296  0.3256  0.4232
 1483TIP3    H125864   6.182   3.944  16.036  1.6702 -0.0996  0.0188
 1483TIP3    H225865   6.130   3.983  16.173 -1.5728 -1.0178 -0.8431
 1484TIP3   OH225866   6.082   2.008   1.404 -0.1843  0.1109 -0.2317
 1484TIP3    H125867   6.129   1.939   1.450 -0.9385  0.2218  0.7450
 1484TIP3    H225868   6.041   2.060   1.474 -2.5625 -0.5647 -1.0297
 1485TIP3   OH225869   3.598   0.314   3.168  0.5495  0.0174  0.5585
 1485TIP3    H125870   3.600   0.410   3.166  0.0734  0.0272 -0.9080
 1485TIP3    H225871   3.677   0.290   3.216  0.6552  1.1422  0.9909
 1486TIP3   OH225872   5.394   0.314  15.875 -0.7153  0.0898  0.2455
 1486TIP3    H125873   5.418   0.400  15.841 -1.9164  0.8689  1.2815
 1486TIP3    H225874   5.475   0.280  15.913  0.3825 -0.3087 -2.2477
 1487TIP3   OH225875   5.792   6.097   2.443  0.4730  0.0440  0.5509
 1487TIP3    H125876   5.765   6.160   2.377  0.4955  0.8220  1.2725
 1487TIP3    H225877   5.839   6.148   2.508 -2.3013 -0.1109  2.8354
 1488TIP3   OH225878   4.526   4.694  15.993  0.1996 -0.4151 -0.1324
 1488TIP3    H125879   4.450   4.636  15.984 -0.9139  1.1418 -1.2957
 1488TIP3    H225880   4.546   4.693  16.086 -0.7445 -1.4573  0.0801
 1489TIP3   OH225881   1.999   1.914  12.195 -0.2435  0.7646  0.1327
 1489TIP3    H125882   2.090   1.888  12.184 -0.4219  0.5354 -0.8437
 1489TIP3    H225883   1.957   1.894  12.111 -0.9974  1.6671  0.2703
 1490TIP3   OH225884   0.126   2.083   4.401 -0.4850 -0.6957 -0.2262
 1490TIP3    H125885   0.171   2.160   4.365 -0.1287 -0.5364  0.5472
 1490TIP3    H225886   0.139   2.089   4.495 -2.1403 -0.6568  0.0319
 1491TIP3   OH225887   5.549   4.297  10.709 -0.1200 -0.4576  1.0595
 1491TIP3    H125888   5.482   4.257  10.764  0.0125 -3.4608 -0.6933
 1491TIP3    H225889   5.595   4.222  10.670  1.8850  1.4930 -0.5851
 1492TIP3   OH225890   4.212   2.851  16.694 -0.1257 -0.3077 -0.8017
 1492TIP3    H125891   4.218   2.946  16.707  1.2928 -0.5036  0.3423
 1492TIP3    H225892   4.286   2.830  16.637 -0.7538 -0.6630 -1.4914
 1493TIP3   OH225893   3.693   0.175   5.282  0.2484  0.1147  0.1836
 1493TIP3    H125894   3.679   0.101   5.222  1.0010 -1.6470  2.0450
 1493TIP3    H225895   3.780   0.209   5.259  0.5759 -0.6158  0.3067
 1494TIP3   OH225896   5.889   4.499  14.860 -0.0408 -0.1782 -0.2335
 1494TIP3    H125897   5.830   4.515  14.787 -0.4576 -0.9785 -0.0834
 1494TIP3    H225898   5.879   4.575  14.917  1.6789  1.3762 -1.8941
 1495TIP3   OH225899   4.097   3.436  12.992 -0.2996 -0.5347 -0.5874
 1495TIP3    H125900   4.030   3.441  13.061  1.0760 -1.1402  0.8408
 1495TIP3    H225901   4.048   3.453  12.911 -1.5377  2.8151  0.6967
 1496TIP3   OH225902   5.793   3.832   5.927  0.0402  0.0840 -0.3359
 1496TIP3    H125903   5.841   3.906   5.965  0.4442 -0.5226  0.3491
 1496TIP3    H225904   5.861   3.771   5.899 -0.3135 -0.9493  0.9709
 1497TIP3   OH225905   3.879   0.660   4.096 -0.0452  0.0085  0.3294
 1497TIP3    H125906   3.899   0.691   4.008  2.8045 -2.3197  0.0187
 1497TIP3    H225907   3.812   0.720   4.127 -1.0798  1.0266 -3.3289
 1498TIP3   OH225908   5.393   4.601   3.002 -0.5649 -0.0565 -0.1759
 1498TIP3    H125909   5.404   4.693   2.976 -2.8075  0.0293 -1.0074
 1498TIP3    H225910   5.423   4.551   2.926  1.5326 -0.0984  0.6152
 1499TIP3   OH225911   1.377   3.210   2.099 -0.1690 -0.1779 -0.1998
 1499TIP3    H125912   1.384   3.116   2.118 -2.3774 -0.3324  0.1421
 1499TIP3    H225913   1.360   3.214   2.005  1.2653 -0.0210 -0.4607
 1500TIP3   OH225914   3.852   5.596   1.550  0.1530  0.1262  0.2662
 1500TIP3    H125915   3.854   5.612   1.456  0.9108  2.4241  0.6052
 1500TIP3    H225916   3.759   5.588   1.572 -0.0189 -0.6029 -0.6851
 1501TIP3   OH225917   2.267   5.084   3.723  0.4057  0.0986  0.2591
 1501TIP3    H125918   2.346   5.108   3.674  0.1822  1.3989  0.5065
 1501TIP3    H225919   2.240   5.165   3.766 -0.5877 -0.5358  0.8643
 1502TIP3   OH225920   4.477   6.181   3.366  0.3452 -0.5105 -0.3134
 1502TIP3    H125921   4.393   6.197   3.409  1.7468 -0.0940  2.5436
 1502TIP3    H225922   4.482   6.086   3.357 -0.0946 -0.5982  0.2750
 1503TIP3   OH225923   2.362   3.107   1.298 -0.2187  0.2085  0.0185
 1503TIP3    H125924   2.307   3.069   1.366 -0.2168  0.1826  0.0055
 1503TIP3    H225925   2.338   3.060   1.218  0.5860 -0.5498  0.2156
 1504TIP3   OH225926   2.867   4.856  16.819 -0.2362  0.0820 -0.1517
 1504TIP3    H125927   2.826   4.808  16.890  0.7637 -0.0493  0.3603
 1504TIP3    H225928   2.795   4.896  16.771 -0.9883 -0.7805  0.2538
 1505TIP3   OH225929   4.469   1.322  13.935 -0.6110  0.8377 -0.3488
 1505TIP3    H125930   4.542   1.381  13.914 -1.8287  1.7286 -2.3709
 1505TIP3    H225931   4.438   1.352  14.020  2.9674 -1.3004  2.0123
 1506TIP3   OH225932   2.750   0.192  14.486 -0.2002  0.1628  0.7434
 1506TIP3    H125933   2.685   0.254  14.518 -0.7577 -0.9400  1.8055
 1506TIP3    H225934   2.753   0.123  14.552 -0.3913 -1.5193 -0.9194
 1507TIP3   OH225935   6.299   2.697   3.204 -0.4003 -0.2924 -0.0690
 1507TIP3    H125936   6.372   2.758   3.210  0.2919 -1.1088 -0.0506
 1507TIP3    H225937   6.339   2.612   3.186 -1.4488 -0.4400 -1.9936
 1508TIP3   OH225938   1.773   4.108  12.133  0.3376  0.9418  0.1879
 1508TIP3    H125939   1.840   4.059  12.180 -0.1378  0.6178  0.5306
 1508TIP3    H225940   1.727   4.042  12.081  1.1424  1.3515 -1.0937
 1509TIP3   OH225941   0.955   2.097   0.423 -0.6236 -0.3729 -0.3880
 1509TIP3    H125942   1.004   2.132   0.497 -2.0738 -0.4380  0.6399
 1509TIP3    H225943   0.929   2.009   0.450  1.6215 -1.7518 -2.3230
 1510TIP3   OH225944   1.544   6.443  13.406  0.3331  0.9787  0.6200
 1510TIP3    H125945   1.451   6.423  13.416  0.3311  0.7947  0.2508
 1510TIP3    H225946   1.546   6.524  13.354  0.4003 -0.2843 -1.4793
 1511TIP3   OH225947   2.870   6.328   3.724  0.1351 -0.0990 -0.2794
 1511TIP3    H125948   2.849   6.414   3.687 -0.3329 -0.1197 -0.0655
 1511TIP3    H225949   2.838   6.332   3.814  1.8435  0.1838  0.3594
 1512TIP3   OH225950   6.715   5.496  11.517  0.2011  0.2116 -0.1473
 1512TIP3    H125951   6.752   5.490  11.605  1.3930  0.1090 -0.6446
 1512TIP3    H225952   6.652   5.424  11.512  1.5927 -1.0356 -0.0690
 1513TIP3   OH225953   0.207   2.373   3.430 -0.1358 -0.4252 -0.0101
 1513TIP3    H125954   0.154   2.308   3.384 -0.0276  0.0958 -0.8834
 1513TIP3    H225955   0.278   2.322   3.470  0.8101 -0.6971 -1.9424
 1514TIP3   OH225956   0.779   0.602   4.919 -0.0383  0.4545  0.1428
 1514TIP3    H125957   0.777   0.621   5.013 -1.2164 -0.5020  0.3372
 1514TIP3    H225958   0.687   0.592   4.895  0.2716 -4.7217  0.0631
 1515TIP3   OH225959   2.397   3.034  12.831 -0.7855 -0.9640 -0.1317
 1515TIP3    H125960   2.430   3.075  12.911 -1.6376 -1.1968  0.3437
 1515TIP3    H225961   2.460   2.965  12.812 -0.4690 -0.7785  0.2217
 1516TIP3   OH225962   3.987   5.536   1.788  0.5049 -0.3512  0.3727
 1516TIP3    H125963   3.930   5.517   1.863  0.4980 -1.4090  0.1040
 1516TIP3    H225964   3.927   5.554   1.716  0.3860 -3.8614 -0.5582
 1517TIP3   OH225965   6.540   6.110   5.138  0.2490  0.3109  0.3294
 1517TIP3    H125966   6.457   6.119   5.090  1.2031  0.3318 -1.4217
 1517TIP3    H225967   6.598   6.173   5.095  0.9456  0.9124  2.1049
 1518TIP3   OH225968   0.059   2.245  11.996 -0.3374  0.5707 -0.5866
 1518TIP3    H125969   0.104   2.169  12.033  0.9764  1.9717  0.8767
 1518TIP3    H225970   0.125   2.285  11.939 -0.7911  0.9711 -0.8302
 1519TIP3   OH225971   3.179   2.778   2.070  0.0916  0.2484 -0.4740
 1519TIP3    H125972   3.096   2.825   2.073  0.7241  1.3898  0.1598
 1519TIP3    H225973   3.242   2.843   2.038  0.5197 -0.9581 -2.1721
 1520TIP3   OH225974   2.098   6.090  14.970 -0.0990 -0.0675 -0.2098
 1520TIP3    H125975   2.031   6.117  15.033  0.8653  0.0173  0.8040
 1520TIP3    H225976   2.181   6.099  15.017  0.5430 -1.3153 -1.0283
 1521TIP3   OH225977   1.259   6.511   1.643  0.5329  0.0602  0.1466
 1521TIP3    H125978   1.193   6.454   1.604  1.6243 -0.8843 -0.3822
 1521TIP3    H225979   1.262   6.587   1.584 -0.1829  0.1982  0.2712
 1522TIP3   OH225980   2.506   0.692  14.153 -0.0309 -0.3465  0.2873
 1522TIP3    H125981   2.494   0.677  14.059  1.2026 -0.4629  0.1296
 1522TIP3    H225982   2.591   0.654  14.173  0.5112  1.1939  1.0925
 1523TIP3   OH225983   1.675   1.695  12.278 -0.3051 -1.0790 -0.5837
 1523TIP3    H125984   1.768   1.674  12.285  0.0013  0.2680 -0.2784
 1523TIP3    H225985   1.637   1.663  12.360  0.1438 -0.4604 -0.1264
 1524TIP3   OH225986   0.812   5.651  16.668 -0.1864  0.1461 -0.0273
 1524TIP3    H125987   0.848   5.584  16.726 -3.4242 -1.5067  0.2954
 1524TIP3    H225988   0.830   5.618  16.579 -0.2883 -0.3024  0.1159
 1525TIP3   OH225989   2.420   2.946  15.361 -0.6237  0.0872  0.2981
 1525TIP3    H125990   2.338   2.911  15.326 -0.8461  0.7123  0.1706
 1525TIP3    H225991   2.413   3.041  15.347  0.1930  0.1331  0.1294
 1526TIP3   OH225992   2.766   5.933  11.174  0.4222  0.2430  0.2788
 1526TIP3    H125993   2.674   5.956  11.164  1.0206  2.5670 -0.4242
 1526TIP3    H225994   2.796   5.912  11.085  0.8798  0.8597  0.2761
 1527TIP3   OH225995   5.938   5.731   2.109  0.0801 -0.5257  0.2798
 1527TIP3    H125996   5.970   5.672   2.176 -2.2018 -0.3083  1.6356
 1527TIP3    H225997   5.993   5.809   2.118 -0.4619 -0.3220  2.2282
 1528TIP3   OH225998   2.110   0.111   2.664 -0.1282 -0.2973  0.5330
 1528TIP3    H125999   2.189   0.163   2.680 -1.5057  1.8133  0.9032
 1528TIP3    H226000   2.143   0.025   2.636  2.3019 -0.4129  3.2645
 1529TIP3   OH226001   2.649   5.767   0.216 -0.4979 -0.2278  0.2617
 1529TIP3    H126002   2.568   5.812   0.240 -1.3482 -1.5511 -0.0236
 1529TIP3    H226003   2.685   5.819   0.144 -1.7559 -0.2800 -0.4432
 1530TIP3   OH226004   6.390   2.362   5.020 -0.3117  0.3149  0.4923
 1530TIP3    H126005   6.466   2.386   4.967  0.3327 -1.6370  0.4434
 1530TIP3    H226006   6.417   2.378   5.110 -0.3668  0.9362  0.4032
 1531TIP3   OH226007   2.451   2.286  12.861 -0.6251 -0.3033  0.6608
 1531TIP3    H126008   2.494   2.253  12.782  0.8399 -1.8564  2.0103
 1531TIP3    H226009   2.358   2.279  12.843 -0.3494 -2.6837 -0.1890
 1532TIP3   OH226010   2.091   3.993  14.198 -0.4463  0.2931 -0.2265
 1532TIP3    H126011   2.021   3.948  14.246  0.3962 -0.6305  0.1859
 1532TIP3    H226012   2.068   3.982  14.106 -0.7752 -0.1314 -0.0958
 1533TIP3   OH226013   4.141   3.470   1.602  0.1416 -0.2381 -0.2286
 1533TIP3    H126014   4.165   3.400   1.663 -1.9173 -1.1398 -0.3989
 1533TIP3    H226015   4.180   3.444   1.519  0.7056 -0.3592  0.0691
 1534TIP3   OH226016   3.125   4.443  10.423  0.6294  0.0938  0.5063
 1534TIP3    H126017   3.115   4.350  10.445 -1.3846  0.0979 -0.1521
 1534TIP3    H226018   3.219   4.454  10.410  0.9327 -1.8499  0.6520
 1535TIP3   OH226019   5.671   3.410   1.555 -0.0832  0.1976  0.3156
 1535TIP3    H126020   5.616   3.365   1.619 -0.1238 -1.7960 -1.0253
 1535TIP3    H226021   5.630   3.496   1.544 -1.8373 -0.5449  0.7480
 1536TIP3   OH226022   3.393   6.351  15.115 -0.7493  0.5100  0.3825
 1536TIP3    H126023   3.306   6.314  15.127 -0.4700 -1.1827 -2.2656
 1536TIP3    H226024   3.449   6.277  15.095  0.6629  1.9138 -1.1554
 1537TIP3   OH226025   6.154   6.295   2.882  0.1847  0.3916 -0.5434
 1537TIP3    H126026   6.167   6.389   2.893 -1.4913  0.8785 -2.3041
 1537TIP3    H226027   6.060   6.285   2.867  0.3062 -1.5895 -0.2719
 1538TIP3   OH226028   1.842   4.717   5.662  0.0075  0.6200  0.5541
 1538TIP3    H126029   1.799   4.748   5.582  0.0980 -0.0917  0.2195
 1538TIP3    H226030   1.874   4.796   5.704 -2.4140  1.2890  1.3064
 1539TIP3   OH226031   2.224   0.857   4.702  0.0776  0.3946 -0.2949
 1539TIP3    H126032   2.130   0.856   4.724  0.0031  1.3823 -0.5341
 1539TIP3    H226033   2.240   0.945   4.671  1.2386  0.4223  0.3412
 1540TIP3   OH226034   5.148   0.440  11.759 -0.1356 -0.3601 -0.4533
 1540TIP3    H126035   5.204   0.459  11.683 -0.2677 -2.1841 -1.0473
 1540TIP3    H226036   5.082   0.379  11.725 -3.1514  2.3869 -0.0406
 1541TIP3   OH226037   3.547   2.677   4.294  0.5766  0.2189 -0.1964
 1541TIP3    H126038   3.536   2.772   4.300  1.5680  0.3156  0.2619
 1541TIP3    H226039   3.627   2.659   4.344 -0.1754 -0.9886  0.6111
 1542TIP3   OH226040   4.269   3.955  16.344  0.1898 -0.3417  0.1264
 1542TIP3    H126041   4.248   3.915  16.259  1.7204  0.5385 -0.7096
 1542TIP3    H226042   4.352   3.916  16.370  2.0498  2.5507 -1.0048
 1543TIP3   OH226043   1.278   5.370  11.494  0.4292 -0.1214  0.5285
 1543TIP3    H126044   1.244   5.398  11.410  0.5848 -1.4823 -0.0173
 1543TIP3    H226045   1.370   5.349  11.478  0.5383 -0.1115  1.0969
 1544TIP3   OH226046   6.749   1.242  11.121  0.0327 -0.3939  0.0833
 1544TIP3    H126047   6.839   1.233  11.153  0.3310 -1.0220 -0.8795
 1544TIP3    H226048   6.750   1.198  11.036 -1.0925 -0.0547 -0.1147
 1545TIP3   OH226049   0.549   3.375   4.255  0.4054  1.1374  0.5591
 1545TIP3    H126050   0.487   3.441   4.285  0.8969  1.8722 -0.0037
 1545TIP3    H226051   0.537   3.372   4.160  1.1941  1.2664  0.4446
 1546TIP3   OH226052   0.069   3.496   3.050  0.0889 -0.3810  0.4441
 1546TIP3    H126053   0.140   3.464   2.994 -0.2111 -0.6109  0.1830
 1546TIP3    H226054   0.002   3.524   2.988  0.7708  1.8282  0.6371
 1547TIP3   OH226055   4.006   5.384  16.141 -0.1675 -0.0994  0.0071
 1547TIP3    H126056   4.079   5.374  16.202 -0.9657 -1.5966  0.7656
 1547TIP3    H226057   4.040   5.351  16.058  0.2073 -0.2250  0.2084
 1548TIP3   OH226058   2.192   5.035   5.914  0.1214  0.1349 -0.1056
 1548TIP3    H126059   2.149   5.113   5.950 -0.2012  0.0230 -0.2391
 1548TIP3    H226060   2.265   5.069   5.862 -0.6911  0.4231 -1.1015
 1549TIP3   OH226061   6.733   2.843   1.045 -0.2498 -0.0950  0.0164
 1549TIP3    H126062   6.710   2.858   1.136 -0.7330  0.5428 -0.2056
 1549TIP3    H226063   6.654   2.808   1.005  0.2856 -1.4511  0.0774
 1550TIP3   OH226064   4.775   3.548  12.448 -0.1015 -1.0423  0.8987
 1550TIP3    H126065   4.768   3.479  12.514  0.4983  0.1895  2.3183
 1550TIP3    H226066   4.858   3.531  12.404 -0.6563 -2.0600  0.1876
 1551TIP3   OH226067   3.744   6.079  15.262  0.0484 -0.1310  0.0281
 1551TIP3    H126068   3.686   6.027  15.317  1.6998 -0.7613  1.2736
 1551TIP3    H226069   3.741   6.167  15.299  1.7780 -0.7293  1.7590
 1552TIP3   OH226070   1.248   5.089  15.726 -0.2438 -0.1391  0.4700
 1552TIP3    H126071   1.156   5.070  15.705 -0.3024 -0.2012  0.7706
 1552TIP3    H226072   1.245   5.127  15.814 -0.1430  1.4284 -0.1745
 1553TIP3   OH226073   3.821   3.206  15.192  0.2912 -0.7270 -0.3274
 1553TIP3    H126074   3.801   3.299  15.182 -1.3623 -1.0068  0.1353
 1553TIP3    H226075   3.917   3.202  15.191  0.4371  1.1507  1.0381
 1554TIP3   OH226076   5.156   2.459   2.080 -0.2425  0.1368  0.6682
 1554TIP3    H126077   5.169   2.436   2.172 -1.6636 -0.6033  0.7073
 1554TIP3    H226078   5.116   2.381   2.041  0.4136  0.4095 -0.6120
 1555TIP3   OH226079   5.538   2.389   5.723 -0.2003 -0.4063 -0.0639
 1555TIP3    H126080   5.539   2.310   5.669 -1.0819  0.0391 -0.7567
 1555TIP3    H226081   5.457   2.434   5.698 -1.5070 -0.9486  2.7716
 1556TIP3   OH226082   5.316   5.774  12.665  0.5363  0.0395 -0.0762
 1556TIP3    H126083   5.254   5.703  12.679  1.4796 -0.6191  0.8657
 1556TIP3    H226084   5.285   5.817  12.585 -0.4983 -0.9385 -0.2256
 1557TIP3   OH226085   4.895   2.655   0.073 -0.4293  0.0721 -0.1847
 1557TIP3    H126086   4.854   2.683   0.156 -0.2802  0.9299 -0.3834
 1557TIP3    H226087   4.828   2.673   0.007 -0.1615  0.3894 -0.3705
 1558TIP3   OH226088   0.054   0.950  15.467  0.0838  0.1905 -0.0843
 1558TIP3    H126089  -0.030   0.945  15.420 -0.0013  2.4774 -0.2607
 1558TIP3    H226090   0.120   0.941  15.399  0.0055 -0.6923 -0.0599
 1559TIP3   OH226091   4.844   0.076   1.025  0.1641  0.1392  0.1453
 1559TIP3    H126092   4.767   0.058   0.972 -0.3495  1.3609  0.4307
 1559TIP3    H226093   4.810   0.085   1.114  0.7535 -0.0885  0.4014
 1560TIP3   OH226094   3.428   1.366  14.812 -0.4555  0.4127 -0.4434
 1560TIP3    H126095   3.427   1.358  14.717 -1.3350  0.9892 -0.4925
 1560TIP3    H226096   3.519   1.349  14.837 -0.1899  0.4145 -1.3927
 1561TIP3   OH226097   5.577   3.488   2.248  0.3415  0.4103 -0.9483
 1561TIP3    H126098   5.514   3.437   2.196  1.5411  0.0652 -2.1114
 1561TIP3    H226099   5.578   3.574   2.207 -1.7471  1.5031  1.0681
 1562TIP3   OH226100   1.177   2.397  15.749 -0.4496 -0.3806  0.3557
 1562TIP3    H126101   1.140   2.395  15.661 -0.5668  2.5327  0.2418
 1562TIP3    H226102   1.127   2.464  15.795  1.3600  0.0727  1.8049
 1563TIP3   OH226103   0.211   1.778  14.006 -0.4263 -0.4327 -0.1794
 1563TIP3    H126104   0.277   1.725  14.050 -0.6774  0.3946  1.2653
 1563TIP3    H226105   0.254   1.862  13.990 -0.3127 -0.7490 -1.6351
 1564TIP3   OH226106   3.044   5.253  11.980 -0.3517  0.3014 -0.2117
 1564TIP3    H126107   3.041   5.312  11.905 -0.2746  0.1222 -0.3570
 1564TIP3    H226108   3.092   5.177  11.949 -0.6462  0.0640 -0.0905
 1565TIP3   OH226109   5.584   1.578  14.499 -0.2135  0.0596  0.1646
 1565TIP3    H126110   5.512   1.586  14.437 -0.0068 -0.6197 -0.1736
 1565TIP3    H226111   5.641   1.510  14.462  0.1554 -0.0235  0.8556
 1566TIP3   OH226112   4.974   3.403  17.099  0.3113 -0.7293 -0.0249
 1566TIP3    H126113   5.039   3.399  17.169 -1.4149 -1.4679  1.6479
 1566TIP3    H226114   4.929   3.318  17.103  0.2234 -0.8358 -2.1440
 1567TIP3   OH226115   6.012   6.706  13.122  0.1629  0.2188  0.2575
 1567TIP3    H126116   5.938   6.754  13.084  0.4600 -1.3893 -2.5655
 1567TIP3    H226117   5.974   6.661  13.198 -1.3210  0.8065 -0.0877
 1568TIP3   OH226118   5.177   0.439  15.304  0.0562 -0.2830 -0.0763
 1568TIP3    H126119   5.123   0.360  15.312  0.6761 -0.9206 -1.8169
 1568TIP3    H226120   5.234   0.436  15.381 -0.7197 -0.8830  0.4968
 1569TIP3   OH226121   5.888   3.884  12.687 -0.7173 -0.4803  0.5488
 1569TIP3    H126122   5.894   3.893  12.782  1.7288  1.9446  0.2897
 1569TIP3    H226123   5.835   3.958  12.659 -0.2650 -0.3707 -0.0423
 1570TIP3   OH226124   0.420   6.211  13.801  0.0919  0.3326  0.7621
 1570TIP3    H126125   0.384   6.188  13.887  2.4026  1.5572  2.1373
 1570TIP3    H226126   0.493   6.150  13.788 -0.4510 -0.0783 -0.5475
 1571TIP3   OH226127   1.224   5.982   0.620  0.0270 -0.7249 -0.2932
 1571TIP3    H126128   1.257   5.960   0.533  0.9262 -1.9400  0.3269
 1571TIP3    H226129   1.301   6.013   0.668 -0.6497  0.9390 -0.2055
 1572TIP3   OH226130   2.129   4.668  10.650  0.4587 -0.1771 -0.2734
 1572TIP3    H126131   2.142   4.595  10.590 -0.5792  0.1164 -0.8792
 1572TIP3    H226132   2.135   4.629  10.737 -1.8635 -1.3836 -0.5576
 1573TIP3   OH226133   5.741   5.004  11.307 -0.4014  0.4104  0.5158
 1573TIP3    H126134   5.720   4.970  11.220 -1.8232  0.1035  0.9572
 1573TIP3    H226135   5.827   5.045  11.296  0.6236 -1.8112 -0.4438
 1574TIP3   OH226136   2.394   6.399   0.492  0.4183  0.0096  0.4571
 1574TIP3    H126137   2.326   6.464   0.471  1.4888  0.8155 -0.6465
 1574TIP3    H226138   2.440   6.436   0.568 -1.5264 -1.4651  2.5053
 1575TIP3   OH226139   0.143   2.035  13.746 -0.3591  0.1621 -0.1665
 1575TIP3    H126140   0.107   1.985  13.673 -0.2510  0.2471 -0.2790
 1575TIP3    H226141   0.222   1.987  13.771 -1.4695 -1.0276  1.2320
 1576TIP3   OH226142   2.675   0.533   1.955 -0.7163 -0.0695 -0.4283
 1576TIP3    H126143   2.770   0.536   1.971 -0.6939  1.7905 -0.6515
 1576TIP3    H226144   2.649   0.445   1.980  1.0820 -0.6280 -0.3817
 1577TIP3   OH226145   1.386   5.121   0.772  0.4446  0.2745  0.5116
 1577TIP3    H126146   1.419   5.032   0.757  1.8827  0.6062  1.4724
 1577TIP3    H226147   1.368   5.125   0.866 -0.2125  0.8139  0.3727
 1578TIP3   OH226148   3.621   3.592  11.150 -0.6729  0.4233  0.4658
 1578TIP3    H126149   3.549   3.653  11.133 -0.1714  0.7665 -0.4585
 1578TIP3    H226150   3.678   3.600  11.074 -1.1988 -2.1105 -0.2712
 1579TIP3   OH226151   4.250   6.353  14.641  0.4091 -0.1611 -0.0324
 1579TIP3    H126152   4.229   6.376  14.732  1.8987  1.2946 -0.0169
 1579TIP3    H226153   4.166   6.360  14.595 -0.2077 -0.0917  1.0596
 1580TIP3   OH226154   3.984   1.123  17.282  0.2761  0.0279 -0.5783
 1580TIP3    H126155   4.060   1.114  17.340  0.5134  1.0646 -0.7062
 1580TIP3    H226156   4.021   1.130  17.194  0.0871  1.1099 -0.5909
 1581TIP3   OH226157   5.912   4.755   0.100  0.5433 -0.2606  0.3614
 1581TIP3    H126158   5.996   4.721   0.070  0.7550 -1.5237  2.2043
 1581TIP3    H226159   5.883   4.692   0.167 -0.6081  1.5407  1.6396
 1582TIP3   OH226160   4.818   2.570  17.193  0.3375 -0.3008 -0.1640
 1582TIP3    H126161   4.790   2.515  17.120  0.4459 -0.0899 -0.3656
 1582TIP3    H226162   4.852   2.649  17.152  2.0242 -0.8836  0.0273
 1583TIP3   OH226163   6.456   2.446  11.808  0.1782 -0.0509  0.2560
 1583TIP3    H126164   6.420   2.440  11.720  1.7209  1.2499 -0.5255
 1583TIP3    H226165   6.516   2.372  11.815  0.2601  0.0015  0.1065
 1584TIP3   OH226166   1.437   0.676  13.944  1.1061  0.1371  0.3517
 1584TIP3    H126167   1.406   0.639  13.861 -0.7634 -2.5425  2.1155
 1584TIP3    H226168   1.402   0.765  13.945 -0.5444 -0.4547 -0.8719
 1585TIP3   OH226169   5.330   5.819  16.116 -0.8176  0.3401 -0.0281
 1585TIP3    H126170   5.316   5.744  16.174  0.3641 -0.1309 -0.3195
 1585TIP3    H226171   5.424   5.834  16.119 -0.6231 -0.0824 -2.2688
 1586TIP3   OH226172   1.045   4.600   1.628 -0.2156  0.0601  0.1027
 1586TIP3    H126173   0.966   4.589   1.575  0.3820  1.3155 -1.1035
 1586TIP3    H226174   1.030   4.680   1.679 -0.6305 -0.9352  1.6224
 1587TIP3   OH226175   6.308   5.394  16.824  0.3058  0.2448 -0.7384
 1587TIP3    H126176   6.219   5.377  16.853  0.7014 -1.9485 -0.6711
 1587TIP3    H226177   6.331   5.478  16.864 -0.6667 -0.5907  1.7599
 1588TIP3   OH226178   4.706   5.533   0.758 -0.2391 -0.0875 -0.5361
 1588TIP3    H126179   4.794   5.571   0.755 -0.3216  0.1957  0.4533
 1588TIP3    H226180   4.678   5.543   0.849 -0.5000 -2.0118 -0.3643
 1589TIP3   OH226181   0.045   5.439   2.361  0.2281  0.0415 -0.2795
 1589TIP3    H126182  -0.026   5.458   2.422  1.0306  0.5908  0.5205
 1589TIP3    H226183   0.035   5.503   2.290  0.7799  1.1144  0.5825
 1590TIP3   OH226184   1.939   6.713   4.016  0.2150  0.7053  0.3208
 1590TIP3    H126185   1.891   6.661   3.952 -1.7567  1.0353  1.4501
 1590TIP3    H226186   2.024   6.669   4.023 -0.4167 -0.7761 -0.7019
 1591TIP3   OH226187   4.685   0.058   3.104  0.0202 -0.3040 -0.2908
 1591TIP3    H126188   4.750   0.127   3.119 -0.8048  0.1232  1.6463
 1591TIP3    H226189   4.603   0.094   3.138 -1.0154 -1.2771 -1.6122
 1592TIP3   OH226190   0.507   1.206   5.699 -0.3149 -0.2556  0.3103
 1592TIP3    H126191   0.423   1.188   5.657 -0.5261  3.9212 -1.6199
 1592TIP3    H226192   0.485   1.265   5.771  0.7327 -1.6418  1.8062
 1593TIP3   OH226193   5.705   5.356   5.187  0.4152  0.0864  0.1550
 1593TIP3    H126194   5.692   5.450   5.201 -0.7506 -0.2989  2.0074
 1593TIP3    H226195   5.641   5.333   5.120  0.7768  0.5957 -0.3868
 1594TIP3   OH226196   2.490   2.918   0.605  0.0911 -0.5183  0.5758
 1594TIP3    H126197   2.430   2.982   0.568  0.2164 -1.5826 -1.6160
 1594TIP3    H226198   2.560   2.970   0.645 -1.1854  0.6987  1.2718
 1595TIP3   OH226199   5.619   0.959   6.333 -0.0517 -1.0743  0.3157
 1595TIP3    H126200   5.572   0.922   6.408 -1.0722  2.3421  1.5515
 1595TIP3    H226201   5.550   0.992   6.276  0.7833 -0.1937 -0.1989
 1596TIP3   OH226202   4.204   4.757  13.722  0.3268  0.4212 -0.5616
 1596TIP3    H126203   4.219   4.668  13.691  1.6776  0.7494 -0.9457
 1596TIP3    H226204   4.284   4.805  13.696  0.5413  1.2468  1.4406
 1597TIP3   OH226205   0.769   1.791   4.712  0.0349 -0.2521  0.5151
 1597TIP3    H126206   0.859   1.791   4.745  0.1530 -1.2376  0.1999
 1597TIP3    H226207   0.744   1.884   4.711  1.5388  0.1676 -0.7206
 1598TIP3   OH226208   0.883   5.453  11.817  0.0712  0.0309 -0.0976
 1598TIP3    H126209   0.949   5.386  11.798  1.1754  0.7048  1.2422
 1598TIP3    H226210   0.899   5.521  11.751 -0.2255 -0.4266 -0.6563
 1599TIP3   OH226211   6.494   0.331  16.026 -0.5593 -0.1358  0.0128
 1599TIP3    H126212   6.548   0.291  16.094  3.2895  0.9220 -2.1139
 1599TIP3    H226213   6.422   0.270  16.013  0.1498 -1.7763  2.9663
 1600TIP3   OH226214   1.942   1.180   0.384  0.2175 -0.8559 -0.0163
 1600TIP3    H126215   2.008   1.120   0.348  0.7753 -0.6119  0.5878
 1600TIP3    H226216   1.868   1.123   0.406  0.8764 -1.3787  0.8843
 1601TIP3   OH226217   4.458   2.806  13.765  0.7099 -0.0322 -0.1058
 1601TIP3    H126218   4.501   2.747  13.827  0.5543 -0.4840 -0.4207
 1601TIP3    H226219   4.370   2.817  13.799  0.1636 -1.4211 -0.9770
 1602TIP3   OH226220   6.410   1.375  11.464 -0.1125 -0.2745  0.3322
 1602TIP3    H126221   6.497   1.356  11.430 -0.5791 -2.1208  0.0541
 1602TIP3    H226222   6.360   1.402  11.387 -0.7887 -3.0800 -0.3306
 1603TIP3   OH226223   2.524   2.200  14.459  0.3716 -0.3950 -0.3757
 1603TIP3    H126224   2.450   2.261  14.463  0.6815 -0.0210 -0.3277
 1603TIP3    H226225   2.588   2.236  14.521 -0.0775 -1.6135  0.8315
 1604TIP3   OH226226   2.353   4.176   1.324 -0.1335  0.0122 -0.0928
 1604TIP3    H126227   2.389   4.239   1.386 -0.0009 -2.2292  2.2400
 1604TIP3    H226228   2.424   4.114   1.308 -1.5547 -2.0701  1.2443
 1605TIP3   OH226229   0.575   6.230  12.163 -0.6117  0.0258  0.8940
 1605TIP3    H126230   0.510   6.205  12.229 -1.9382  0.8919 -0.0244
 1605TIP3    H226231   0.543   6.188  12.082  0.2286  0.0983  0.5151
 1606TIP3   OH226232   3.216   2.780  16.461 -0.6207  0.6733  1.1624
 1606TIP3    H126233   3.266   2.850  16.502  0.2722  0.0410  1.1897
 1606TIP3    H226234   3.137   2.771  16.514 -1.5815  2.7729  0.1984
 1607TIP3   OH226235   0.764   3.948   4.180 -0.3345  0.2574  0.6732
 1607TIP3    H126236   0.753   3.886   4.252 -0.9665 -0.5707 -0.1082
 1607TIP3    H226237   0.685   4.002   4.183 -0.3638  0.2189  0.6068
 1608TIP3   OH226238   5.488   0.777   4.839  0.3694 -0.2984 -0.0189
 1608TIP3    H126239   5.419   0.729   4.884  0.3212  0.3311  0.6053
 1608TIP3    H226240   5.450   0.863   4.822 -0.0349 -0.8861 -2.3587
 1609TIP3   OH226241   6.092   3.475  15.145  0.7955 -0.0667  0.0988
 1609TIP3    H126242   6.022   3.478  15.210 -0.2782  1.2439 -1.0422
 1609TIP3    H226243   6.165   3.522  15.186  1.0721 -1.4756  1.3147
 1610TIP3   OH226244   6.711   4.426   3.154  0.1242 -0.2914  0.5902
 1610TIP3    H126245   6.782   4.470   3.107 -1.3248 -0.2741 -1.7499
 1610TIP3    H226246   6.632   4.477   3.132 -1.2114 -2.5211 -0.1394
 1611TIP3   OH226247   0.633   0.684   0.437  0.0084 -0.0936 -0.0005
 1611TIP3    H126248   0.699   0.738   0.393 -0.7595 -0.1818 -1.3042
 1611TIP3    H226249   0.654   0.594   0.411  0.5610 -0.3468  1.2113
 1612TIP3   OH226250   3.326   6.628  16.187  0.5351 -0.1867 -0.4016
 1612TIP3    H126251   3.313   6.620  16.281 -0.5380  1.5813 -0.3621
 1612TIP3    H226252   3.246   6.594  16.148  0.4421  0.2924 -0.6292
 1613TIP3   OH226253   0.021   1.045   6.306 -0.2945  0.0595  0.2766
 1613TIP3    H126254  -0.000   1.055   6.213  1.4542  3.6073  0.1220
 1613TIP3    H226255  -0.061   1.015   6.345 -2.2669  2.2418 -1.8573
 1614TIP3   OH226256   3.376   2.524  12.765  0.0759 -0.2150 -0.6363
 1614TIP3    H126257   3.394   2.569  12.848  0.2377 -0.8083 -0.3453
 1614TIP3    H226258   3.371   2.431  12.788  0.8015 -0.4579 -1.3922
 1615TIP3   OH226259   2.412   2.195   0.596  0.1464  0.5439 -0.2493
 1615TIP3    H126260   2.412   2.107   0.633 -0.0385  0.7247  0.1878
 1615TIP3    H226261   2.498   2.230   0.618  0.0258  0.6617  0.0294
 1616TIP3   OH226262   0.904   1.264   2.732 -0.2428 -0.4578  0.0364
 1616TIP3    H126263   0.814   1.235   2.739  0.3249 -2.1378  1.0384
 1616TIP3    H226264   0.952   1.186   2.703  1.0793 -0.0334  0.9719
 1617TIP3   OH226265   2.952   0.198  15.946 -0.5403  0.4897  0.2664
 1617TIP3    H126266   2.954   0.125  16.007  1.4571 -0.6611 -1.0883
 1617TIP3    H226267   2.861   0.202  15.916 -1.0356 -0.3469  1.5857
 1618TIP3   OH226268   6.244   5.418  15.338  0.3562  0.3221  0.0480
 1618TIP3    H126269   6.214   5.327  15.337 -0.5687  0.6209 -0.5344
 1618TIP3    H226270   6.321   5.419  15.281  0.3680 -0.0912  0.0548
 1619TIP3   OH226271   0.791   2.131  15.593  0.2020  0.0693 -0.5279
 1619TIP3    H126272   0.816   2.051  15.547  3.5341  1.4666 -1.4981
 1619TIP3    H226273   0.823   2.118  15.682  0.8503  0.3050 -0.7156
 1620TIP3   OH226274   3.895   0.167  14.084 -0.4429  0.6488 -0.0723
 1620TIP3    H126275   3.878   0.207  13.999  0.8613 -1.6411 -1.5110
 1620TIP3    H226276   3.808   0.143  14.117 -0.8939  0.1740 -1.5136
 1621TIP3   OH226277   5.954   1.174  16.218 -0.6530  0.2507 -0.2020
 1621TIP3    H126278   5.953   1.083  16.189  2.8626 -0.2122  0.6177
 1621TIP3    H226279   5.874   1.185  16.269 -1.2030 -2.3146 -0.4140
 1622TIP3   OH226280   0.050   1.295  12.505  0.3383 -0.3125  0.5387
 1622TIP3    H126281   0.128   1.245  12.482 -0.3729 -1.5360  0.6504
 1622TIP3    H226282   0.009   1.316  12.422  0.1986 -0.6669  0.5159
 1623TIP3   OH226283   1.621   5.412  15.603  0.5040  0.2034  0.1448
 1623TIP3    H126284   1.606   5.478  15.535  1.7087  2.0193  1.5497
 1623TIP3    H226285   1.546   5.419  15.661  2.4174  3.3612  2.5374
 1624TIP3   OH226286   0.633   3.015  12.113 -0.0450 -0.2652  0.1452
 1624TIP3    H126287   0.558   2.974  12.156 -0.2728  0.6021  0.5974
 1624TIP3    H226288   0.632   3.105  12.144  2.5353 -0.7499  2.0292
 1625TIP3   OH226289   2.667   4.398  14.438  0.5565 -0.1884  0.4509
 1625TIP3    H126290   2.680   4.485  14.400  1.3624 -0.3268  0.3873
 1625TIP3    H226291   2.590   4.407  14.494  0.2067  0.3819 -0.1130
 1626TIP3   OH226292   0.289   4.802   5.001  0.1669  0.0585  0.2485
 1626TIP3    H126293   0.271   4.836   4.914  1.8754 -0.8408 -0.5249
 1626TIP3    H226294   0.225   4.844   5.058 -2.3141 -0.8182 -1.7161
 1627TIP3   OH226295   2.897   0.332   5.573 -0.2594  0.2836 -0.0996
 1627TIP3    H126296   2.988   0.353   5.593  0.0603 -0.3823 -0.8221
 1627TIP3    H226297   2.849   0.356   5.653  0.8451 -1.3324  1.1273
 1628TIP3   OH226298   1.346   0.448  12.050  0.3406 -0.3402 -0.6807
 1628TIP3    H126299   1.343   0.359  12.087  0.5710  0.3228  0.9966
 1628TIP3    H226300   1.326   0.505  12.123  2.3495  1.1404 -1.2176
 1629TIP3   OH226301   0.412   4.912   2.808  0.4610  0.5855  0.0182
 1629TIP3    H126302   0.457   4.874   2.883  0.1999  1.1123  0.4455
 1629TIP3    H226303   0.390   4.837   2.753  0.5637  0.1860  0.5145
 1630TIP3   OH226304   4.234   5.390   0.446 -0.8792  0.1809  0.1864
 1630TIP3    H126305   4.244   5.332   0.371  1.6144 -1.0570  1.3384
 1630TIP3    H226306   4.140   5.402   0.455 -1.2916 -0.4697 -2.4555
 1631TIP3   OH226307   3.330   4.505   6.205 -0.2642  0.0216  0.2749
 1631TIP3    H126308   3.281   4.424   6.192  0.7030 -0.3394 -1.3162
 1631TIP3    H226309   3.344   4.510   6.300 -0.6038 -1.5042  0.4223
 1632TIP3   OH226310   4.560   1.433  16.096 -0.2100  0.1563 -0.1535
 1632TIP3    H126311   4.632   1.490  16.069 -0.3113  0.5267  0.3406
 1632TIP3    H226312   4.483   1.471  16.054 -0.1614 -0.0705 -0.4483
 1633TIP3   OH226313   5.399   2.665   2.288  0.6627 -0.0523 -0.0003
 1633TIP3    H126314   5.396   2.736   2.353  3.0482  0.7419 -0.6756
 1633TIP3    H226315   5.375   2.706   2.206 -2.4543 -1.0819  0.2718
 1634TIP3   OH226316   5.612   4.547  10.790  0.4419 -0.2347  0.3406
 1634TIP3    H126317   5.611   4.562  10.885 -0.7950  0.8297  0.1820
 1634TIP3    H226318   5.575   4.459  10.780  0.0062 -0.1121  0.8128
 1635TIP3   OH226319   6.327   1.967   2.372 -0.0448 -0.0267  0.2746
 1635TIP3    H126320   6.284   2.037   2.323  0.2075 -0.3732 -0.4535
 1635TIP3    H226321   6.324   1.892   2.313  1.1790 -0.1675  0.3833
 1636TIP3   OH226322   6.470   0.341   1.640  0.2845  0.8024 -0.2584
 1636TIP3    H126323   6.534   0.403   1.605  0.7700  0.1466 -0.5687
 1636TIP3    H226324   6.409   0.327   1.567  0.7535  0.1569 -0.5355
 1637TIP3   OH226325   3.110   4.746  14.708 -0.7144 -0.1648 -0.0484
 1637TIP3    H126326   3.023   4.745  14.667 -1.0466 -0.8162  0.6445
 1637TIP3    H226327   3.134   4.654  14.716 -0.5383 -0.0528  0.9324
 1638TIP3   OH226328   5.839   6.657   0.738 -0.1481 -0.0285 -0.1725
 1638TIP3    H126329   5.933   6.650   0.723 -0.5646  0.2676 -3.5710
 1638TIP3    H226330   5.822   6.750   0.748 -0.2949  0.1350 -1.7346
 1639TIP3   OH226331   6.515   1.403  13.880  0.6304  0.4245 -0.0040
 1639TIP3    H126332   6.565   1.372  13.956  1.1084  0.6819 -0.2091
 1639TIP3    H226333   6.445   1.456  13.918  1.2841  1.1298  0.2243
 1640TIP3   OH226334   6.612   3.163  15.579 -0.6092  0.1138 -0.0905
 1640TIP3    H126335   6.601   3.255  15.555  1.4743 -0.1182 -2.2449
 1640TIP3    H226336   6.681   3.164  15.645  1.4630 -0.0150 -2.1306
 1641TIP3   OH226337   5.690   4.299   2.945  0.3940  0.5359  0.4933
 1641TIP3    H126338   5.742   4.370   2.907  0.4615 -0.8319 -2.1622
 1641TIP3    H226339   5.602   4.312   2.910 -0.1074  0.4720  1.6746
 1642TIP3   OH226340   0.036   0.082   2.662 -0.1569  0.1212  0.3766
 1642TIP3    H126341   0.005   0.023   2.593  2.5019 -0.6595 -0.2617
 1642TIP3    H226342   0.122   0.112   2.632  0.5557  0.7425  2.7896
 1643TIP3   OH226343   5.602   2.205  15.353  0.1331 -0.3715  0.1860
 1643TIP3    H126344   5.660   2.276  15.326  0.2173  0.7330  2.9533
 1643TIP3    H226345   5.661   2.131  15.372  0.3516 -0.2180  0.1072
 1644TIP3   OH226346   1.858   5.226   0.677  0.6975 -0.5757  0.0507
 1644TIP3    H126347   1.910   5.192   0.604 -1.6264 -0.2797 -1.8553
 1644TIP3    H226348   1.812   5.302   0.641 -0.7755 -0.6160  1.7097
 1645TIP3   OH226349   5.833   0.779   6.547  0.0415  0.7097  0.2480
 1645TIP3    H126350   5.814   0.861   6.594  1.0988  0.8382  0.4670
 1645TIP3    H226351   5.896   0.733   6.602 -0.1717 -0.0375 -0.1137
 1646TIP3   OH226352   1.799   4.372   5.068  0.3289 -0.4746 -0.0114
 1646TIP3    H126353   1.776   4.304   5.005 -0.0965 -0.1915 -0.1599
 1646TIP3    H226354   1.801   4.453   5.017  3.7382 -0.7236 -0.5040
 1647TIP3   OH226355   4.284   3.432   0.777 -0.1368  0.0894 -0.4343
 1647TIP3    H126356   4.248   3.351   0.814 -0.6966 -0.1369 -1.4333
 1647TIP3    H226357   4.246   3.502   0.831 -0.6763 -0.2470 -0.3653
 1648TIP3   OH226358   0.881   2.422   4.067 -0.3596 -0.7764  0.2077
 1648TIP3    H126359   0.870   2.514   4.043  0.1237 -0.2053  2.0241
 1648TIP3    H226360   0.796   2.396   4.101 -1.0752 -1.6167 -2.0239
 1649TIP3   OH226361   1.842   0.260  14.084 -0.3047 -0.4330  0.0736
 1649TIP3    H126362   1.856   0.246  14.178  0.3350  1.9876  0.3958
 1649TIP3    H226363   1.924   0.297  14.052 -0.5966 -0.9998 -1.4136
 1650TIP3   OH226364   1.486   3.903  14.836 -0.2056  0.1711 -0.3158
 1650TIP3    H126365   1.489   3.849  14.915  0.7383  0.2637 -0.2809
 1650TIP3    H226366   1.501   3.841  14.765  1.5300  0.4620 -0.2310
 1651TIP3   OH226367   0.635   6.710  16.023  0.2870  0.1516 -0.4621
 1651TIP3    H126368   0.563   6.659  16.061  0.7391 -0.9695 -1.0397
 1651TIP3    H226369   0.714   6.667  16.056  0.7196  1.6522  0.5350
 1652TIP3   OH226370   6.741   5.923  14.430 -0.3334  0.1567  0.2279
 1652TIP3    H126371   6.750   5.928  14.525  1.5515  0.8319  0.0651
 1652TIP3    H226372   6.653   5.957  14.413 -1.2552 -1.2859  1.7902
 1653TIP3   OH226373   4.106   5.821  14.603 -0.0232  0.1183  0.1264
 1653TIP3    H126374   4.127   5.812  14.696 -1.2167  1.4535  0.5448
 1653TIP3    H226375   4.148   5.902  14.577  2.2328 -1.3360 -1.1254
 1654TIP3   OH226376   5.050   6.598   4.984  0.1065  0.1372  0.6232
 1654TIP3    H126377   5.045   6.620   4.891 -0.9653 -0.0604  0.6168
 1654TIP3    H226378   4.958   6.588   5.011  0.4020  0.1863  1.6989
 1655TIP3   OH226379   3.414   0.760   3.001  0.1859 -0.2951  0.2451
 1655TIP3    H126380   3.452   0.678   2.971 -2.1668 -2.8219  3.3306
 1655TIP3    H226381   3.488   0.813   3.031  1.6611 -3.3386  2.4692
 1656TIP3   OH226382   6.092   3.108   0.471 -0.0273 -0.2281 -0.5334
 1656TIP3    H126383   6.093   3.095   0.566 -0.5982 -0.8165 -0.6002
 1656TIP3    H226384   6.155   3.043   0.438 -1.7915 -1.9238 -0.7490
 1657TIP3   OH226385   0.357   3.300  16.603 -0.4013  0.8009  0.2204
 1657TIP3    H126386   0.387   3.383  16.640  0.9850 -1.0558  3.7799
 1657TIP3    H226387   0.436   3.262  16.564 -0.8093  0.7371 -0.5553
 1658TIP3   OH226388   2.882   3.455  14.476  0.0461  0.1730 -0.2327
 1658TIP3    H126389   2.911   3.546  14.465 -0.8283  0.6612  1.1543
 1658TIP3    H226390   2.946   3.403  14.429  1.3369  1.4211  0.0861
 1659TIP3   OH226391   5.732   2.053  14.734  0.7755  0.3389 -0.5286
 1659TIP3    H126392   5.729   2.035  14.640 -2.2787 -0.3001 -0.4178
 1659TIP3    H226393   5.706   2.145  14.742 -3.7832 -0.7153 -0.2823
 1660TIP3   OH226394   3.291   4.412   1.642  0.7155  0.0544 -0.4462
 1660TIP3    H126395   3.273   4.484   1.702  0.4068 -0.0657 -0.3952
 1660TIP3    H226396   3.299   4.335   1.698  3.9444  0.4585 -0.1450
 1661TIP3   OH226397   3.044   0.689   5.998  0.1388  0.1473 -0.4889
 1661TIP3    H126398   3.019   0.681   6.090 -1.5430  0.3580 -0.8778
 1661TIP3    H226399   3.064   0.599   5.971  0.3433  0.0398  0.0132
 1662TIP3   OH226400   0.759   5.327  17.065  0.2306 -0.3966 -0.6173
 1662TIP3    H126401   0.821   5.396  17.087  0.1520 -0.6033  0.2908
 1662TIP3    H226402   0.713   5.359  16.988  1.3278 -0.1581 -1.1820
 1663TIP3   OH226403   4.595   0.536  11.385 -0.3341 -0.1696 -0.3255
 1663TIP3    H126404   4.685   0.561  11.408  0.6879 -0.9602 -3.1142
 1663TIP3    H226405   4.589   0.550  11.291 -2.2506 -2.7175 -0.7012
 1664TIP3   OH226406   1.737   0.932   2.911 -0.1906 -0.2218 -0.5706
 1664TIP3    H126407   1.752   0.860   2.972 -0.0747  0.2370 -0.0423
 1664TIP3    H226408   1.652   0.967   2.935  0.4851  0.8969  0.3333
 1665TIP3   OH226409   5.925   5.151   6.015 -0.2426 -0.0892  0.0710
 1665TIP3    H126410   5.855   5.215   6.027  0.8394  1.1311  0.0286
 1665TIP3    H226411   5.967   5.144   6.101 -1.0633 -1.6420  0.3890
 1666TIP3   OH226412   4.475   3.750  13.953 -0.1424 -0.0407 -0.0068
 1666TIP3    H126413   4.458   3.756  13.859 -3.4654  0.0361  0.4749
 1666TIP3    H226414   4.488   3.840  13.981 -0.9424  0.1365 -0.1669
 1667TIP3   OH226415   5.052   1.500   4.866 -0.0059 -0.6425 -0.6607
 1667TIP3    H126416   5.125   1.558   4.842 -0.5942 -0.2555 -1.5712
 1667TIP3    H226417   4.977   1.536   4.818 -0.5970 -1.5806 -0.4511
 1668TIP3   OH226418   3.895   5.920  15.965 -0.2209  0.5661 -0.6308
 1668TIP3    H126419   3.908   5.827  15.946 -1.7494 -0.2504  1.7829
 1668TIP3    H226420   3.970   5.964  15.924  1.0324 -1.8104 -1.0786
 1669TIP3   OH226421   3.279   5.499  12.815 -0.0921  0.3746 -0.5848
 1669TIP3    H126422   3.221   5.556  12.865  1.4280  0.1330  1.6150
 1669TIP3    H226423   3.315   5.555  12.747 -1.1561  1.1187 -0.5625
 1670TIP3   OH226424   4.274   0.384  11.915  0.2799  0.2433  0.1605
 1670TIP3    H126425   4.208   0.405  11.980 -0.2204 -1.1784  0.1575
 1670TIP3    H226426   4.350   0.354  11.966 -0.4140 -1.7229  0.1484
 1671TIP3   OH226427   4.998   4.836  13.749 -0.1918 -0.1603 -0.3166
 1671TIP3    H126428   4.999   4.889  13.829  1.9886 -1.8627  0.8866
 1671TIP3    H226429   5.081   4.857  13.705  0.8062 -2.5546  0.2585
 1672TIP3   OH226430   6.615   0.457  16.393 -0.4429 -0.2960  0.0915
 1672TIP3    H126431   6.643   0.442  16.303  0.4214 -0.4634  0.3829
 1672TIP3    H226432   6.564   0.378  16.415  1.1147 -1.2517  0.4359
 1673TIP3   OH226433   0.144   2.889   1.912 -0.1575  0.3443  0.5915
 1673TIP3    H126434   0.235   2.906   1.888 -0.0366 -1.7208 -0.6725
 1673TIP3    H226435   0.103   2.859   1.831 -1.4195 -0.7855  1.5958
 1674TIP3   OH226436   6.243   0.598  11.079 -0.2355  0.2520 -0.3676
 1674TIP3    H126437   6.308   0.643  11.025 -0.0689 -1.0877 -1.3405
 1674TIP3    H226438   6.176   0.569  11.017 -1.1268  0.4932  0.4534
 1675TIP3   OH226439   2.740   4.986   6.226  0.5605  0.0641 -0.0211
 1675TIP3    H126440   2.740   4.970   6.321  1.2526  0.5455  0.0668
 1675TIP3    H226441   2.695   5.070   6.216  0.2892 -0.0955 -0.1396
 1676TIP3   OH226442   2.772   4.218  11.652  0.1739  0.3915  0.2742
 1676TIP3    H126443   2.713   4.260  11.590  1.6310 -0.5297 -1.8472
 1676TIP3    H226444   2.724   4.220  11.735 -2.8633 -0.3029 -1.3024
 1677TIP3   OH226445   5.303   5.880  13.588  0.2127 -0.6759  0.5588
 1677TIP3    H126446   5.282   5.813  13.523  2.6106 -1.2088  0.2538
 1677TIP3    H226447   5.285   5.963  13.544  0.6283 -1.0582 -0.3379
 1678TIP3   OH226448   2.311   2.455  14.029 -0.3403 -0.3804 -0.3186
 1678TIP3    H126449   2.285   2.547  14.024  0.7930  0.0515  0.9981
 1678TIP3    H226450   2.400   2.458  14.065 -0.0989 -1.9706 -0.7355
 1679TIP3   OH226451   4.793   4.684   1.282 -0.0870  0.2101 -0.6390
 1679TIP3    H126452   4.703   4.651   1.277  0.5851 -2.3559  1.7540
 1679TIP3    H226453   4.790   4.754   1.347  0.0143 -1.7965  1.6463
 1680TIP3   OH226454   2.517   4.871  15.611 -0.3242 -0.6556 -0.2432
 1680TIP3    H126455   2.542   4.782  15.590  0.7215 -0.2456 -0.8322
 1680TIP3    H226456   2.523   4.918  15.528 -0.0959  0.1251  0.2031
 1681TIP3   OH226457   3.111   4.175  11.987 -0.4154  0.1559 -0.2488
 1681TIP3    H126458   3.036   4.231  12.009 -0.9247 -1.3574  2.2269
 1681TIP3    H226459   3.186   4.235  11.984 -1.2205  1.2324  0.4852
 1682TIP3   OH226460   2.036   4.765   3.855  0.0179 -0.2428 -0.0446
 1682TIP3    H126461   2.078   4.832   3.802 -1.3204  0.6905  0.0059
 1682TIP3    H226462   1.987   4.814   3.921 -0.2691 -1.3027  0.5561
 1683TIP3   OH226463   3.414   3.769  11.143 -0.2780 -0.0283  0.0919
 1683TIP3    H126464   3.323   3.787  11.169 -0.2355 -0.1057  0.2942
 1683TIP3    H226465   3.412   3.770  11.048 -0.7770 -1.4881  0.0718
 1684TIP3   OH226466   3.033   4.523   0.517 -0.2336 -0.2721 -0.4394
 1684TIP3    H126467   3.061   4.613   0.534  2.2183 -0.9309 -0.6705
 1684TIP3    H226468   2.987   4.528   0.433  0.2928  0.6863 -0.6830
 1685TIP3   OH226469   5.177   2.250  11.617  0.1940  0.1316  0.4035
 1685TIP3    H126470   5.115   2.180  11.640 -0.1869  0.3874  0.1636
 1685TIP3    H226471   5.206   2.285  11.702 -1.0957  0.9767  0.5239
 1686TIP3   OH226472   5.852   5.478   3.714 -0.4197 -0.8826  0.3871
 1686TIP3    H126473   5.940   5.444   3.699  0.3718  1.5145 -0.8582
 1686TIP3    H226474   5.814   5.485   3.627 -1.2549 -0.4106  0.7766
 1687TIP3   OH226475   1.712   5.702   4.860  0.4381 -0.2700  0.1645
 1687TIP3    H126476   1.748   5.757   4.929 -0.2099  0.3907 -0.0018
 1687TIP3    H226477   1.759   5.620   4.867  2.2533  0.6710 -0.3081
 1688TIP3   OH226478   5.131   0.982   5.611 -0.0186  0.2105  0.7778
 1688TIP3    H126479   5.103   1.045   5.545 -1.1195 -0.4939  0.5493
 1688TIP3    H226480   5.052   0.934   5.634  0.8117 -1.2222  0.8056
 1689TIP3   OH226481   2.607   5.044  16.271 -0.5665 -0.3897  0.0475
 1689TIP3    H126482   2.681   5.098  16.301 -2.4317  1.6714  1.2128
 1689TIP3    H226483   2.639   5.001  16.192  1.4053  1.5647 -0.3132
 1690TIP3   OH226484   6.624   3.567  16.542 -0.2094  0.4567  0.5135
 1690TIP3    H126485   6.656   3.608  16.623 -1.4463  0.1099  1.2075
 1690TIP3    H226486   6.599   3.478  16.568 -0.0422  0.1316 -0.3980
 1691TIP3   OH226487   5.136   4.373   5.174  0.3515 -0.2405  0.0535
 1691TIP3    H126488   5.049   4.404   5.201  0.8762  0.4094  1.0782
 1691TIP3    H226489   5.132   4.278   5.184 -0.0154 -0.1526  0.8109
 1692TIP3   OH226490   4.106   4.130  15.491  0.6608 -0.0126  0.5123
 1692TIP3    H126491   4.130   4.211  15.537  0.7191 -0.1677  0.7574
 1692TIP3    H226492   4.014   4.117  15.510 -0.1700  1.5965 -1.9718
 1693TIP3   OH226493   4.306   1.094  12.364 -0.3628 -0.3336 -0.4209
 1693TIP3    H126494   4.218   1.100  12.327 -0.3604  0.8666 -0.2746
 1693TIP3    H226495   4.363   1.088  12.288 -0.5179 -0.4697 -0.5295
 1694TIP3   OH226496   6.748   5.218   6.234 -0.2127 -0.8083  0.8508
 1694TIP3    H126497   6.660   5.209   6.272 -0.3696 -0.4605  0.5828
 1694TIP3    H226498   6.805   5.169   6.292 -0.5714 -0.9368  1.0950
 1695TIP3   OH226499   6.574   3.725  15.535  0.1530  0.0512  0.2697
 1695TIP3    H126500   6.665   3.750  15.553  0.1626 -0.0311  0.3377
 1695TIP3    H226501   6.538   3.700  15.620  0.3388 -0.7802  0.1163
 1696TIP3   OH226502   2.217   3.945  11.671 -0.2152 -0.7599 -0.3093
 1696TIP3    H126503   2.233   3.891  11.749 -0.7257 -0.9660 -0.3442
 1696TIP3    H226504   2.189   3.883  11.604 -1.4729 -0.3717 -0.1581
 1697TIP3   OH226505   1.010   2.716   4.299  0.2616 -0.4114 -0.5007
 1697TIP3    H126506   1.043   2.715   4.389 -0.3133  2.2607 -0.1502
 1697TIP3    H226507   0.916   2.733   4.308 -0.0831 -1.5663 -1.6019
 1698TIP3   OH226508   2.017   3.529   2.127 -1.1309  0.2075  0.0574
 1698TIP3    H126509   2.085   3.467   2.152 -1.6178 -0.4863 -0.3164
 1698TIP3    H226510   1.959   3.534   2.203 -2.4174 -1.6352 -0.7382
 1699TIP3   OH226511   3.555   0.089  13.263  0.1047 -0.1003  0.0411
 1699TIP3    H126512   3.517   0.177  13.252 -0.3418 -0.4341 -1.2373
 1699TIP3    H226513   3.637   0.093  13.215  1.9948  0.7102  3.0395
 1700TIP3   OH226514   5.484   1.525  14.055 -0.2398 -0.5482 -0.4801
 1700TIP3    H126515   5.398   1.505  14.018  0.3852 -0.3453 -2.1424
 1700TIP3    H226516   5.526   1.440  14.066 -0.3814 -0.6026 -0.3569
 1701TIP3   OH226517   6.231   3.579  16.584 -0.0737 -0.5513  0.5896
 1701TIP3    H126518   6.158   3.628  16.546  0.8827  0.6401  0.2254
 1701TIP3    H226519   6.232   3.607  16.676 -0.6849 -1.3477  0.8529
 1702TIP3   OH226520   5.278   3.506  11.539  0.0459 -0.0241  0.3555
 1702TIP3    H126521   5.329   3.447  11.484 -0.0268  1.1547 -1.0358
 1702TIP3    H226522   5.203   3.530  11.485  1.1727  3.0204 -0.0420
 1703TIP3   OH226523   5.715   5.327  15.533 -0.8125 -0.0290  0.6775
 1703TIP3    H126524   5.652   5.363  15.595 -0.3575 -0.5555  1.4562
 1703TIP3    H226525   5.752   5.251  15.577  0.4684  0.3440  0.3018
 1704TIP3   OH226526   3.194   4.577  16.609 -0.3978 -0.3480 -0.7500
 1704TIP3    H126527   3.117   4.633  16.608  0.8655  1.5963  1.2026
 1704TIP3    H226528   3.200   4.542  16.520 -2.4174  0.9638 -1.4697
 1705TIP3   OH226529   3.520   2.488   5.798  0.3417 -0.1670  0.1915
 1705TIP3    H126530   3.597   2.437   5.774  1.1544  0.2903  1.6988
 1705TIP3    H226531   3.542   2.578   5.774 -0.7664 -0.3371 -1.7039
 1706TIP3   OH226532   3.377   2.412   3.565  0.1149  0.0501  0.2322
 1706TIP3    H126533   3.377   2.426   3.470  0.0248 -0.6292  0.1283
 1706TIP3    H226534   3.383   2.317   3.575  0.6651  0.1482  0.9111
 1707TIP3   OH226535   3.487   2.285  15.295  0.1035 -0.8784  0.5043
 1707TIP3    H126536   3.540   2.212  15.264  1.8156  0.2337  0.6629
 1707TIP3    H226537   3.433   2.309  15.220  1.4037 -0.6919 -0.4239
 1708TIP3   OH226538   2.336   2.279   3.103  0.0767 -0.3088  0.1608
 1708TIP3    H126539   2.265   2.271   3.040  0.5199 -1.4435 -0.2290
 1708TIP3    H226540   2.369   2.190   3.113  1.0424  0.1016  0.8027
 1709TIP3   OH226541   5.375   4.139  14.652 -0.2330  0.5829 -0.6192
 1709TIP3    H126542   5.373   4.229  14.684  0.9818  0.1786  0.6951
 1709TIP3    H226543   5.453   4.134  14.597  0.1315  0.1374 -0.0655
 1710TIP3   OH226544   3.760   6.313  16.618 -0.1906 -0.0539 -0.2084
 1710TIP3    H126545   3.669   6.287  16.602 -0.0411  0.0294 -1.2659
 1710TIP3    H226546   3.788   6.353  16.536  1.0378 -0.7437 -0.1419
 1711TIP3   OH226547   1.292   1.280   0.022  0.1810  0.0557 -0.1855
 1711TIP3    H126548   1.337   1.314   0.100  0.2113 -1.9952  0.7400
 1711TIP3    H226549   1.361   1.272  -0.044  0.4475  0.3933  0.0494
 1712TIP3   OH226550   5.964   0.992   3.454  0.3441 -0.2606 -0.5728
 1712TIP3    H126551   5.992   0.952   3.372  1.0450 -0.3368 -0.3035
 1712TIP3    H226552   5.931   0.919   3.507 -1.0012 -0.0856 -1.1310
 1713TIP3   OH226553   3.411   1.555   3.603  0.5393  0.0117 -0.7619
 1713TIP3    H126554   3.458   1.621   3.654  2.3590 -1.7940  0.0624
 1713TIP3    H226555   3.471   1.481   3.599 -0.9186 -1.1783 -2.6902
 1714TIP3   OH226556   6.626   3.786  11.755  0.1924  0.5342 -0.0503
 1714TIP3    H126557   6.661   3.855  11.812  1.1199  0.7495 -0.8402
 1714TIP3    H226558   6.620   3.828  11.669  0.3764 -0.2446 -0.4478
 1715TIP3   OH226559   3.673   1.778  13.841  0.1280 -0.3278 -0.2167
 1715TIP3    H126560   3.634   1.743  13.761  0.8657  0.0863 -0.7705
 1715TIP3    H226561   3.742   1.715  13.864 -0.0004 -0.3814  0.0273
 1716TIP3   OH226562   0.266   2.381  16.477 -0.4632  0.1982 -0.0045
 1716TIP3    H126563   0.241   2.391  16.385  0.8506  1.5808 -0.2475
 1716TIP3    H226564   0.191   2.416  16.526 -1.1950 -0.6048 -0.5325
 1717TIP3   OH226565   5.591   1.449  13.734 -0.4870 -0.3994 -0.2921
 1717TIP3    H126566   5.589   1.544  13.745 -1.9287 -0.2498 -1.5405
 1717TIP3    H226567   5.532   1.416  13.803  0.1644 -0.4118  0.2638
 1718TIP3   OH226568   5.811   3.010  12.097 -0.2663 -0.3837  0.8808
 1718TIP3    H126569   5.719   2.988  12.111 -0.7158  0.8987  0.1053
 1718TIP3    H226570   5.817   3.103  12.119  0.8474 -0.4476  0.8912
 1719TIP3   OH226571   2.957   3.084   4.083  0.6463 -0.0907 -0.3467
 1719TIP3    H126572   2.877   3.103   4.033 -0.3476  0.0213  1.2296
 1719TIP3    H226573   2.938   3.003   4.129  2.4599 -1.5239 -1.9446
 1720TIP3   OH226574   2.147   0.250  15.815  0.2644  0.4324  0.1115
 1720TIP3    H126575   2.082   0.303  15.861 -0.4471 -0.3080 -0.0028
 1720TIP3    H226576   2.231   0.284  15.844 -0.1379 -0.3133  2.3561
 1721TIP3   OH226577   3.317   3.603  15.575 -0.2562  0.0694  0.1433
 1721TIP3    H126578   3.329   3.695  15.553  0.3666 -0.5591 -2.4935
 1721TIP3    H226579   3.403   3.574  15.607 -0.3623  0.3248  0.6595
 1722TIP3   OH226580   6.282   4.105   2.405 -0.3557  0.5034 -0.3394
 1722TIP3    H126581   6.305   4.173   2.468  0.2416 -0.8922  1.0337
 1722TIP3    H226582   6.297   4.145   2.319  0.7110  1.8385  0.4262
 1723TIP3   OH226583   1.131   3.634   4.401 -0.6554 -0.1103 -0.3634
 1723TIP3    H126584   1.221   3.608   4.386 -1.3107 -1.9543 -1.4894
 1723TIP3    H226585   1.114   3.702   4.336  0.0764  0.7109  0.2798
 1724TIP3   OH226586   6.040   0.154   6.542 -0.2066 -0.0343 -0.3546
 1724TIP3    H126587   5.956   0.167   6.498 -0.7047  1.6637  0.9994
 1724TIP3    H226588   6.100   0.213   6.498 -0.2296  0.2454 -0.0132
 1725TIP3   OH226589   6.007   4.152  13.178 -0.2257  0.2023  0.1724
 1725TIP3    H126590   6.064   4.185  13.108 -0.2170  1.2617  0.6560
 1725TIP3    H226591   6.005   4.223  13.242 -0.9309 -0.4102  0.8425
 1726TIP3   OH226592   0.982   0.972  10.763  0.6330 -0.1501  0.5513
 1726TIP3    H126593   1.067   0.997  10.800 -0.0144  1.0275  1.3134
 1726TIP3    H226594   0.918   1.007  10.826 -0.4455  0.0526 -0.6260
 1727TIP3   OH226595   6.326   6.276  12.082 -0.0768 -0.5611 -0.3089
 1727TIP3    H126596   6.323   6.212  12.153 -0.5981  0.5956  0.7505
 1727TIP3    H226597   6.308   6.225  12.003  0.2819 -1.8399  0.4075
 1728TIP3   OH226598   3.174   6.030   2.875  0.2467  0.1359  0.3994
 1728TIP3    H126599   3.132   5.971   2.813  0.9647  0.3931 -0.3494
 1728TIP3    H226600   3.257   6.054   2.833 -0.4343  2.4271  0.2427
 1729TIP3   OH226601   2.237   0.266  16.132 -0.6334  0.0671  0.2898
 1729TIP3    H126602   2.147   0.297  16.120 -0.3395  2.5660  3.2808
 1729TIP3    H226603   2.291   0.341  16.106  0.6184 -1.2027 -0.9376
 1730TIP3   OH226604   2.235   0.932   6.523  0.2405 -0.0141  0.3179
 1730TIP3    H126605   2.318   0.890   6.501  0.1346 -0.6286  1.0803
 1730TIP3    H226606   2.169   0.882   6.475  0.1332 -0.5996  1.0788
 1731TIP3   OH226607   3.868   0.015   1.327  0.2524 -0.0487  0.1720
 1731TIP3    H126608   3.873   0.071   1.249 -2.2927  0.9040  0.5986
 1731TIP3    H226609   3.799  -0.047   1.307  0.5811 -0.7308  1.1238
 1732TIP3   OH226610   0.294   0.177  13.466  0.0042 -0.2744 -0.1059
 1732TIP3    H126611   0.372   0.216  13.505  0.7375  0.4191 -2.1161
 1732TIP3    H226612   0.294   0.209  13.375 -1.5473 -1.8243 -0.7134
 1733TIP3   OH226613   2.672   2.591   6.357  0.6047  0.2470  0.1257
 1733TIP3    H126614   2.700   2.573   6.267  0.4106 -1.4046  0.3646
 1733TIP3    H226615   2.617   2.669   6.349  0.0692 -0.2391 -1.3012
 1734TIP3   OH226616   2.533   2.702  13.943  0.1310 -0.4599 -0.1770
 1734TIP3    H126617   2.547   2.621  13.993  1.1167 -1.7145 -2.3169
 1734TIP3    H226618   2.477   2.675  13.871 -0.6456  1.1129 -0.1752
 1735TIP3   OH226619   0.160   5.481  13.064  0.0465  0.5049 -0.0906
 1735TIP3    H126620   0.151   5.575  13.045 -0.6821  0.2452 -1.1224
 1735TIP3    H226621   0.094   5.464  13.131  1.7365  1.1617  1.8503
 1736TIP3   OH226622   5.450   0.363   0.501  0.4231 -0.2045  0.2922
 1736TIP3    H126623   5.545   0.378   0.506  0.6000 -1.4210  0.9974
 1736TIP3    H226624   5.415   0.445   0.467  1.8883 -0.2562 -1.5528
 1737TIP3   OH226625   5.033   2.110  12.313  0.1260 -0.5332 -0.3763
 1737TIP3    H126626   5.013   2.078  12.401 -0.0182 -0.0575 -0.2311
 1737TIP3    H226627   5.127   2.126  12.314  0.3944 -1.9668 -0.7922
 1738TIP3   OH226628   4.455   1.556  14.924 -0.2179  0.3655 -0.4257
 1738TIP3    H126629   4.387   1.517  14.979  0.2674 -3.0900 -2.0028
 1738TIP3    H226630   4.536   1.513  14.952  1.3363  3.7198  0.7779
 1739TIP3   OH226631   3.355   5.353  13.693  0.6322  0.0755 -0.2971
 1739TIP3    H126632   3.311   5.301  13.760  2.6004  0.5686  1.4741
 1739TIP3    H226633   3.390   5.288  13.632 -1.5891 -0.3590 -1.2237
 1740TIP3   OH226634   6.675   2.561  17.017 -0.2642  0.2359 -0.5355
 1740TIP3    H126635   6.702   2.550  17.108  3.2608 -0.0642 -1.4827
 1740TIP3    H226636   6.621   2.640  17.017  0.8500  1.0584  1.6079
 1741TIP3   OH226637   3.343   4.620   4.336 -0.1853 -0.2456 -0.0032
 1741TIP3    H126638   3.332   4.713   4.359  0.1796  0.4085 -2.2768
 1741TIP3    H226639   3.404   4.620   4.263 -3.1024 -1.8886 -2.6587
 1742TIP3   OH226640   4.953   4.842   1.898 -0.0295 -0.1268 -0.2604
 1742TIP3    H126641   5.034   4.851   1.848  0.5525 -2.9998 -0.0464
 1742TIP3    H226642   4.973   4.775   1.964 -1.8178  1.0053  1.5480
 1743TIP3   OH226643   6.534   0.473   5.072 -0.2912 -0.1464  0.4370
 1743TIP3    H126644   6.482   0.470   4.992 -0.0815 -1.0262  0.3186
 1743TIP3    H226645   6.609   0.416   5.054  0.7379  1.1296  0.5955
 1744TIP3   OH226646   4.720   0.998   0.229 -0.2406 -0.0904 -0.1280
 1744TIP3    H126647   4.655   0.938   0.193 -0.3639 -0.0459  0.0198
 1744TIP3    H226648   4.688   1.018   0.317 -1.1816  1.6523 -0.8220
 1745TIP3   OH226649   4.038   2.238   2.593  0.0519  0.3957  0.3037
 1745TIP3    H126650   4.075   2.151   2.605  1.6815  0.9980 -0.0393
 1745TIP3    H226651   4.075   2.268   2.509 -0.9640  1.1860  0.1142
 1746TIP3   OH226652   4.823   1.019   4.404  0.0602  0.1119 -0.1489
 1746TIP3    H126653   4.842   1.038   4.312 -0.4834 -1.7533 -0.7029
 1746TIP3    H226654   4.732   0.989   4.404  0.6755 -1.9814  0.5946
 1747TIP3   OH226655   4.843   2.780  13.526 -0.4993 -0.2940 -0.1526
 1747TIP3    H126656   4.860   2.870  13.501  1.2926 -0.2854  0.8844
 1747TIP3    H226657   4.884   2.771  13.612 -1.5751 -1.8058  0.2440
 1748TIP3   OH226658   1.596   2.998  13.479  0.1404 -0.4186 -0.2197
 1748TIP3    H126659   1.682   2.970  13.449  0.5748  0.0459  0.5507
 1748TIP3    H226660   1.598   3.093  13.472 -0.4248 -0.4236 -0.4894
 1749TIP3   OH226661   0.519   4.056   3.402  0.0223  0.0239  0.3663
 1749TIP3    H126662   0.437   4.007   3.412 -0.3594  0.3886 -0.7656
 1749TIP3    H226663   0.550   4.070   3.491 -0.0793 -1.8830  0.7608
 1750TIP3   OH226664   1.160   5.598  12.027  0.1682 -0.5854  0.0788
 1750TIP3    H126665   1.100   5.638  11.964 -0.9757 -0.5614  1.1605
 1750TIP3    H226666   1.233   5.660  12.032  0.4734 -0.7626 -1.4827
 1751TIP3   OH226667   6.109   3.739   5.128  0.1940 -0.5633 -0.5987
 1751TIP3    H126668   6.024   3.774   5.102  0.8024 -0.1605 -2.1429
 1751TIP3    H226669   6.164   3.817   5.141  0.8138 -0.8551 -1.3983
 1752TIP3   OH226670   6.746   1.761  11.449  0.2903 -0.3053  0.0737
 1752TIP3    H126671   6.728   1.814  11.371 -0.8761 -0.7974 -0.0160
 1752TIP3    H226672   6.828   1.796  11.484  1.6701 -1.0247 -2.1953
 1753TIP3   OH226673   2.262   1.985   3.349 -0.4080 -0.5444 -0.3362
 1753TIP3    H126674   2.218   1.949   3.426  0.3845 -0.4590  0.1544
 1753TIP3    H226675   2.333   2.039   3.383 -1.5248  1.4997 -1.0588
 1754TIP3   OH226676   3.581   4.985  14.549  0.1213  0.3387  0.3396
 1754TIP3    H126677   3.498   4.938  14.539 -0.6636  1.7702 -0.3314
 1754TIP3    H226678   3.648   4.920  14.531 -0.8743 -0.7531  0.4388
 1755TIP3   OH226679   0.083   0.974  14.559  0.0046 -0.1889  0.1283
 1755TIP3    H126680   0.039   1.054  14.587  0.6025 -0.0405  0.6746
 1755TIP3    H226681   0.069   0.971  14.464  0.7474  1.0677 -0.0557
 1756TIP3   OH226682   5.465   6.106   1.971 -0.1666  1.2770  0.3791
 1756TIP3    H126683   5.517   6.049   2.026 -1.1344 -0.7268 -0.6758
 1756TIP3    H226684   5.441   6.179   2.027 -0.0286 -0.0297  2.2050
 1757TIP3   OH226685   4.870   1.911   2.783  0.3775  0.1485  0.0872
 1757TIP3    H126686   4.877   1.870   2.696  0.1017 -0.6237  0.4188
 1757TIP3    H226687   4.869   2.005   2.765 -0.0486 -0.0073 -0.7772
 1758TIP3   OH226688   3.688   1.073  17.251 -0.2156 -0.0779 -0.0653
 1758TIP3    H126689   3.772   1.119  17.255 -1.1014  1.5817 -0.0520
 1758TIP3    H226690   3.712   0.980  17.262  1.4251  0.5224  2.2830
 1759TIP3   OH226691   3.112   0.301  12.897  0.0401 -0.0186 -0.3326
 1759TIP3    H126692   3.159   0.218  12.886 -0.8020 -0.4152 -1.0658
 1759TIP3    H226693   3.109   0.315  12.991  1.3674 -0.1277 -0.2598
 1760TIP3   OH226694   5.520   0.257   6.119  0.1392 -0.3671 -0.2610
 1760TIP3    H126695   5.468   0.188   6.159 -0.6595  0.6233  0.4851
 1760TIP3    H226696   5.479   0.338   6.150  0.7837  0.4421 -1.4391
 1761TIP3   OH226697   0.393   1.303   2.298  0.7041 -0.1061  0.5220
 1761TIP3    H126698   0.449   1.235   2.335  2.4034  2.8635  4.0602
 1761TIP3    H226699   0.454   1.365   2.257 -0.7615 -0.3131 -2.2634
 1762TIP3   OH226700   4.417   3.960  10.896 -0.2375  0.2745 -0.6227
 1762TIP3    H126701   4.512   3.964  10.886 -0.1763  0.9370  0.0766
 1762TIP3    H226702   4.399   4.012  10.975 -1.1622  0.0148 -0.6473
 1763TIP3   OH226703   4.947   3.228  14.517  0.2611 -0.0843 -0.5711
 1763TIP3    H126704   4.898   3.280  14.453 -0.6426 -0.5064 -0.2380
 1763TIP3    H226705   4.909   3.141  14.511 -1.4518  0.3864  2.1414
 1764TIP3   OH226706   4.207   2.285   6.039 -0.4125 -0.4680  0.4070
 1764TIP3    H126707   4.202   2.290   6.135  0.6201  0.9814  0.4176
 1764TIP3    H226708   4.116   2.290   6.010 -0.6448  1.0774  1.2785
 1765TIP3   OH226709   5.596   0.734  15.295  0.3783  0.3033  0.0339
 1765TIP3    H126710   5.596   0.645  15.258  1.0220  0.7890 -1.1667
 1765TIP3    H226711   5.503   0.757  15.300  0.2171 -0.3454  0.1212
 1766TIP3   OH226712   0.852   5.785  11.323 -0.4670  0.1466  0.8369
 1766TIP3    H126713   0.937   5.807  11.285 -1.7084  1.8208 -1.1997
 1766TIP3    H226714   0.833   5.857  11.382 -0.4807 -0.2179  1.2789
 1767TIP3   OH226715   6.053   6.245   1.705 -0.1361 -0.3574  0.1964
 1767TIP3    H126716   6.120   6.300   1.747 -0.3425  0.8613 -0.9866
 1767TIP3    H226717   5.989   6.229   1.774 -1.0542  2.5489  0.1784
 1768TIP3   OH226718   6.617   1.518  13.652 -0.4705  0.2968  0.5574
 1768TIP3    H126719   6.530   1.513  13.614 -0.2665 -1.1785  0.2190
 1768TIP3    H226720   6.611   1.469  13.734 -0.1080  0.7037  0.8347
 1769TIP3   OH226721   0.451   3.926  13.312  0.1781  0.0484 -0.0776
 1769TIP3    H126722   0.464   3.871  13.234  0.3050  2.5173 -1.8974
 1769TIP3    H226723   0.391   3.994  13.284  0.2681  1.0534  1.9990
 1770TIP3   OH226724   2.939   5.766   5.122  0.4585 -0.1708  0.1545
 1770TIP3    H126725   2.865   5.750   5.180 -0.1777 -0.2191 -0.6453
 1770TIP3    H226726   2.901   5.811   5.047  1.2651 -0.0853 -0.2130
 1771TIP3   OH226727   0.453   4.912  14.568 -0.0073  0.2045 -0.0107
 1771TIP3    H126728   0.443   4.900  14.474  0.6117  1.0433 -0.1937
 1771TIP3    H226729   0.375   4.960  14.595 -1.2808 -1.9090  0.3118
 1772TIP3   OH226730   6.231   1.189  11.799  0.1438  0.0760 -0.9569
 1772TIP3    H126731   6.317   1.154  11.776 -1.0029 -1.9497 -2.5264
 1772TIP3    H226732   6.172   1.154  11.732 -1.8486  1.7669 -0.1946
 1773TIP3   OH226733   4.474   2.694  10.689  0.6030 -0.2522  0.5045
 1773TIP3    H126734   4.383   2.697  10.718  0.0151 -0.5279 -1.2130
 1773TIP3    H226735   4.525   2.700  10.770 -0.9032  1.6318  1.4110
 1774TIP3   OH226736   4.230   6.397   1.470 -0.1737 -0.3029 -0.3524
 1774TIP3    H126737   4.189   6.323   1.425 -2.8783  0.5935  0.4301
 1774TIP3    H226738   4.168   6.469   1.458  1.1781  1.1670  1.0339
 1775TIP3   OH226739   5.535   1.899  15.923  0.0919  0.7583 -0.2008
 1775TIP3    H126740   5.492   1.939  15.848  0.2352 -1.9420 -1.8683
 1775TIP3    H226741   5.480   1.824  15.946  0.2722  1.2616  2.1903
 1776TIP3   OH226742   5.655   2.388   1.614 -0.5532  0.1115  0.3582
 1776TIP3    H126743   5.695   2.462   1.661 -0.3980 -0.2364  0.7854
 1776TIP3    H226744   5.659   2.316   1.676 -0.3561 -0.3585 -0.1916
 1777TIP3   OH226745   0.466   5.714  10.854  0.2494 -0.0575  0.6134
 1777TIP3    H126746   0.390   5.768  10.830  0.1251 -0.5296 -0.0796
 1777TIP3    H226747   0.541   5.765  10.824  0.0850 -0.9007 -1.4551
 1778TIP3   OH226748   0.518   4.616   5.772  0.2873 -0.8509  0.0012
 1778TIP3    H126749   0.478   4.633   5.858  1.5814 -2.2828  0.9473
 1778TIP3    H226750   0.476   4.679   5.713 -0.6768  0.1513  1.6699
 1779TIP3   OH226751   3.541   5.936   5.235  0.1819  0.5815  0.2217
 1779TIP3    H126752   3.601   5.964   5.166  0.3704  0.4467  0.3278
 1779TIP3    H226753   3.475   5.883   5.191  0.3479  0.4282  0.1559
 1780TIP3   OH226754   5.192   6.607   0.351 -0.4520  0.0757 -0.1761
 1780TIP3    H126755   5.166   6.587   0.261  0.7325 -0.2851 -0.4536
 1780TIP3    H226756   5.171   6.700   0.362 -1.7007 -0.1645 -0.4170
 1781TIP3   OH226757   2.233   3.315  14.671  0.4551 -0.2742  0.3495
 1781TIP3    H126758   2.300   3.274  14.725  0.2087 -1.4363 -0.1948
 1781TIP3    H226759   2.176   3.360  14.733 -0.0854 -1.9607  1.1364
 1782TIP3   OH226760   3.064   4.134  15.542  0.4040  0.0649  0.5491
 1782TIP3    H126761   3.037   4.045  15.523  0.1365  0.0018  1.2108
 1782TIP3    H226762   3.056   4.180  15.458 -1.0217 -0.1393  0.5520
 1783TIP3   OH226763   5.008   4.642  17.362 -0.6253  0.5834 -0.1094
 1783TIP3    H126764   4.993   4.714  17.423 -1.3614  0.4139 -0.0896
 1783TIP3    H226765   5.084   4.596  17.398 -1.6087 -0.0725  1.2102
 1784TIP3   OH226766   3.126   1.520   2.543  0.7175 -0.3246  0.5813
 1784TIP3    H126767   3.072   1.571   2.603 -0.0652 -1.0827  0.5510
 1784TIP3    H226768   3.172   1.585   2.489 -1.0043  0.3583 -0.1348
 1785TIP3   OH226769   1.748   4.858   0.271  0.5382  0.9110  0.0081
 1785TIP3    H126770   1.820   4.800   0.297  1.4716  2.3633  0.8133
 1785TIP3    H226771   1.757   4.935   0.328 -2.0110  0.9126  0.5598
 1786TIP3   OH226772   5.253   2.602  10.572 -0.8503 -0.3247  0.5393
 1786TIP3    H126773   5.286   2.676  10.521  0.6855 -1.4727 -0.2298
 1786TIP3    H226774   5.184   2.639  10.627  0.2191  1.7596  0.5634
 1787TIP3   OH226775   3.051   3.700   2.214 -0.0342  0.0962  0.4644
 1787TIP3    H126776   3.071   3.776   2.269  0.9253  0.4531 -0.3491
 1787TIP3    H226777   2.984   3.732   2.154 -0.1099  0.0992  0.5495
 1788TIP3   OH226778   2.723   6.664   5.398 -0.4264  0.0459 -0.4285
 1788TIP3    H126779   2.788   6.703   5.457 -1.6438 -0.1977  1.1670
 1788TIP3    H226780   2.663   6.736   5.377 -1.0535 -0.2743  0.1917
 1789TIP3   OH226781   1.126   6.316  17.285 -0.0077 -0.1517  0.4519
 1789TIP3    H126782   1.126   6.284  17.195  0.1376  1.6389 -0.2334
 1789TIP3    H226783   1.036   6.345  17.300  0.6008  2.4274 -0.2868
 1790TIP3   OH226784   1.107   6.222  13.069  0.7531 -0.1137 -0.1689
 1790TIP3    H126785   1.039   6.167  13.107  0.8676 -0.0266  0.1668
 1790TIP3    H226786   1.180   6.216  13.131  0.4826  1.0404  0.2726
 1791TIP3   OH226787   0.017   5.163   5.743  0.1425 -0.3677 -0.1465
 1791TIP3    H126788   0.027   5.181   5.837 -1.6910  1.4776 -0.2177
 1791TIP3    H226789  -0.054   5.221   5.715 -0.5007 -2.0531 -2.3517
 1792TIP3   OH226790   1.828   1.501  14.199  0.2834  0.1018  0.3556
 1792TIP3    H126791   1.912   1.528  14.238 -0.2305  2.2698  0.0714
 1792TIP3    H226792   1.818   1.556  14.122 -1.0915 -0.6173 -0.0171
 1793TIP3   OH226793   0.285   6.560  12.887  0.7460 -0.1176  0.2034
 1793TIP3    H126794   0.211   6.575  12.946 -0.5342 -0.3449 -1.2785
 1793TIP3    H226795   0.293   6.465  12.882 -0.4396 -0.1678 -1.4642
 1794TIP3   OH226796   1.757   3.034  13.745 -0.3295  0.2311 -0.2618
 1794TIP3    H126797   1.674   3.042  13.698  0.4074 -1.3500 -1.9152
 1794TIP3    H226798   1.759   2.944  13.776  0.3987  0.5003  0.5133
 1795TIP3   OH226799   4.449   5.800   4.118  0.3542 -0.1202 -0.4699
 1795TIP3    H126800   4.385   5.872   4.122  0.4834 -0.0143 -0.2779
 1795TIP3    H226801   4.531   5.840   4.148  0.4031 -0.3747 -0.2675
 1796TIP3   OH226802   0.981   0.043  14.409 -0.5314 -0.0983  0.0706
 1796TIP3    H126803   1.076   0.038  14.395 -0.3500  2.3500  0.0038
 1796TIP3    H226804   0.944   0.038  14.321 -0.3310  0.7579 -0.0693
 1797TIP3   OH226805   6.444   2.515   2.263  0.0838  0.1564  0.1228
 1797TIP3    H126806   6.436   2.474   2.177  0.6374 -2.3312  1.1423
 1797TIP3    H226807   6.539   2.520   2.277  0.0152  1.3522  0.2776
 1798TIP3   OH226808   2.263   2.191   4.892  0.4490 -0.0036 -0.0398
 1798TIP3    H126809   2.346   2.174   4.936  1.4657  0.7805 -1.5738
 1798TIP3    H226810   2.199   2.200   4.963  1.5961 -0.9277  1.1527
 1799TIP3   OH226811   6.055   5.687  11.487 -0.0442 -0.5271 -0.2681
 1799TIP3    H126812   5.966   5.723  11.493 -1.6028 -3.9070 -0.5314
 1799TIP3    H226813   6.081   5.700  11.396 -0.7092 -0.3860 -0.4412
 1800TIP3   OH226814   4.276   3.178   6.268 -0.4118  0.8586 -0.4950
 1800TIP3    H126815   4.243   3.103   6.319 -1.2450  0.7146 -1.2321
 1800TIP3    H226816   4.234   3.254   6.308  0.3418  0.9325  0.1775
 1801TIP3   OH226817   5.236   6.513   2.412 -0.3662 -0.2502 -0.3006
 1801TIP3    H126818   5.298   6.442   2.428  0.3881 -0.8260 -4.6109
 1801TIP3    H226819   5.290   6.593   2.412 -0.0952 -0.4218 -1.2697
 1802TIP3   OH226820   2.556   5.491  10.716  0.1197  0.4034  0.2387
 1802TIP3    H126821   2.477   5.450  10.753 -0.2179  2.4347  1.9778
 1802TIP3    H226822   2.628   5.436  10.746 -0.4914 -0.4342  0.2099
 1803TIP3   OH226823   5.921   3.679   4.525 -0.1566 -0.6721  0.1042
 1803TIP3    H126824   5.942   3.735   4.599  0.6133  0.4410 -0.9066
 1803TIP3    H226825   5.978   3.603   4.533  0.7064 -0.0334  0.0663
 1804TIP3   OH226826   5.795   3.856  16.078  0.5055  0.1934 -0.0720
 1804TIP3    H126827   5.751   3.903  16.007 -0.6787 -1.4309 -0.4878
 1804TIP3    H226828   5.877   3.826  16.040  0.4033  0.3196 -0.3969
 1805TIP3   OH226829   6.722   5.452  14.944  0.6564  0.2943  0.0973
 1805TIP3    H126830   6.644   5.505  14.929  1.8892  1.5570 -2.5540
 1805TIP3    H226831   6.692   5.379  14.998 -2.1036  1.2839  0.0201
 1806TIP3   OH226832   3.676   5.078   3.538 -0.3696  0.0498  0.0681
 1806TIP3    H126833   3.629   4.994   3.542  2.0803 -1.3760  1.1497
 1806TIP3    H226834   3.663   5.108   3.448 -1.0362 -1.6603 -0.4541
 1807TIP3   OH226835   3.590   5.112   1.296 -1.4126 -0.8310  0.0781
 1807TIP3    H126836   3.574   5.018   1.301  0.1879 -1.1207  0.0854
 1807TIP3    H226837   3.664   5.128   1.355 -0.3978  0.1064 -1.3686
 1808TIP3   OH226838   3.041   0.474   1.050 -0.2192 -0.4056 -0.4183
 1808TIP3    H126839   2.972   0.501   1.110 -0.3480 -0.2536 -0.6357
 1808TIP3    H226840   3.060   0.383   1.075 -0.5388 -0.4663 -0.3971
 1809TIP3   OH226841   2.506   5.765  16.731  0.2602  0.2963  0.1307
 1809TIP3    H126842   2.515   5.854  16.767  1.0604  0.3023 -0.0748
 1809TIP3    H226843   2.589   5.748  16.687  0.6210 -1.0516  1.2710
 1810TIP3   OH226844   6.683   6.128   3.214  0.2880  0.1872  0.1067
 1810TIP3    H126845   6.603   6.180   3.222  1.1704  1.6665 -0.2433
 1810TIP3    H226846   6.655   6.048   3.169 -0.8806  0.9774 -0.6439
 1811TIP3   OH226847   3.635   4.593   2.803 -0.2442  0.2111 -0.1028
 1811TIP3    H126848   3.566   4.642   2.758  1.1713  0.7196 -1.8022
 1811TIP3    H226849   3.709   4.595   2.743  1.3152 -0.2278  1.7181
 1812TIP3   OH226850   4.625   4.605  13.683  0.4076  0.6979  0.2367
 1812TIP3    H126851   4.692   4.556  13.634 -0.2311  0.3886 -0.3437
 1812TIP3    H226852   4.641   4.696  13.660  1.3955  0.7588  1.0643
 1813TIP3   OH226853   3.624   4.345  11.513  0.4183  0.0072  0.4887
 1813TIP3    H126854   3.640   4.252  11.497 -1.8615 -0.2456 -0.7468
 1813TIP3    H226855   3.651   4.359  11.604  3.4918 -1.1287 -0.1210
 1814TIP3   OH226856   1.365   2.025   5.399 -0.8493  0.0677 -0.9094
 1814TIP3    H126857   1.439   2.034   5.338  0.2377  1.8126  0.5451
 1814TIP3    H226858   1.359   1.931   5.416  1.4478 -0.0838 -0.6171
 1815TIP3   OH226859   0.354   6.147  11.999  0.3934 -0.3222  0.0885
 1815TIP3    H126860   0.309   6.082  12.052  2.6542 -1.8442  0.2685
 1815TIP3    H226861   0.351   6.112  11.910 -1.8063  1.3440 -0.5892
 1816TIP3   OH226862   5.562   4.753   2.360 -0.1615  0.1849  0.3590
 1816TIP3    H126863   5.509   4.826   2.328 -0.0449 -0.5019 -1.5705
 1816TIP3    H226864   5.501   4.679   2.366  0.3870 -0.4395 -1.2282
 1817TIP3   OH226865   2.843   1.603  12.322 -0.1733  0.0012 -0.3183
 1817TIP3    H126866   2.809   1.663  12.255  0.2978  1.4973  0.7275
 1817TIP3    H226867   2.816   1.516  12.292 -1.4293  0.7731 -1.5710
 1818TIP3   OH226868   2.125   2.924  12.790  0.1103  0.0189 -0.5736
 1818TIP3    H126869   2.210   2.966  12.799 -0.2806  0.7553 -0.2606
 1818TIP3    H226870   2.144   2.840  12.748  0.7851  0.9267 -2.1504
 1819TIP3   OH226871   0.957   2.932   0.182 -0.1374  0.0117  0.3504
 1819TIP3    H126872   0.987   2.961   0.096  1.4191  0.2659  0.9660
 1819TIP3    H226873   0.988   2.998   0.243 -1.4843 -0.0094  1.0968
 1820TIP3   OH226874   2.417   0.550   0.467 -0.2572 -0.3978 -0.6174
 1820TIP3    H126875   2.373   0.476   0.426 -1.9190  0.3275 -0.2028
 1820TIP3    H226876   2.347   0.600   0.509  0.9743  0.7566  0.1472
 1821TIP3   OH226877   4.618   5.602  10.756  0.8508 -0.9969 -0.2473
 1821TIP3    H126878   4.618   5.686  10.801 -2.1779 -0.1248 -1.6556
 1821TIP3    H226879   4.709   5.590  10.728  1.7080  0.9421  1.4361
 1822TIP3   OH226880   3.515   4.701  13.819 -0.1096 -0.0603 -0.0309
 1822TIP3    H126881   3.493   4.609  13.833  1.0327 -0.2879  0.4145
 1822TIP3    H226882   3.431   4.743  13.801 -0.9101 -0.8403  1.6444
 1823TIP3   OH226883   4.161   1.718  11.098 -0.0326  0.1563 -0.1847
 1823TIP3    H126884   4.084   1.729  11.154  1.1018 -1.0974  1.7433
 1823TIP3    H226885   4.231   1.764  11.144  1.0201 -1.2328 -0.3461
 1824TIP3   OH226886   0.243   1.261  17.132  0.6011 -0.9022 -0.1021
 1824TIP3    H126887   0.249   1.331  17.067 -0.0099 -0.1458  0.6300
 1824TIP3    H226888   0.221   1.183  17.081  0.9982 -0.5053 -0.8983
 1825TIP3   OH226889   3.508   5.482   6.199  0.9685  0.1219  0.0095
 1825TIP3    H126890   3.478   5.416   6.135  1.1202  0.7009 -0.6654
 1825TIP3    H226891   3.547   5.430   6.269 -0.9095 -0.6378  0.5671
 1826TIP3   OH226892   0.075   3.943  16.194 -0.5032 -0.5942 -0.2147
 1826TIP3    H126893   0.006   3.953  16.128 -1.3787 -0.8313  0.6255
 1826TIP3    H226894   0.103   4.033  16.212 -0.0866 -0.5498 -1.0823
 1827TIP3   OH226895   5.178   6.445   4.508  0.1934  0.5176 -0.6682
 1827TIP3    H126896   5.121   6.385   4.460  0.6877 -0.3615 -0.1963
 1827TIP3    H226897   5.257   6.451   4.456  0.9312 -0.8371  0.2405
 1828TIP3   OH226898   3.145   4.914  10.349 -0.3584 -0.2098  0.1908
 1828TIP3    H126899   3.217   4.908  10.411 -0.2326 -0.9074 -0.0097
 1828TIP3    H226900   3.186   4.904  10.263 -0.1412  3.4802 -0.2534
 1829TIP3   OH226901   5.912   2.118  12.718  0.5716  0.8982  0.3518
 1829TIP3    H126902   5.968   2.049  12.683  0.4361  0.4615  0.9705
 1829TIP3    H226903   5.966   2.161  12.784  0.2079  0.5147  0.9063
 1830TIP3   OH226904   4.208   0.094   2.576 -0.1276  0.0686  0.6326
 1830TIP3    H126905   4.194   0.188   2.564  0.3518  0.0930  0.2304
 1830TIP3    H226906   4.277   0.088   2.643 -0.5218 -0.0105  1.0385
 1831TIP3   OH226907   4.299   6.541  13.709 -0.1685 -0.4693 -1.0110
 1831TIP3    H126908   4.274   6.629  13.737 -0.0068 -0.4979 -0.7816
 1831TIP3    H226909   4.388   6.551  13.676  0.0989 -0.6772 -0.3594
 1832TIP3   OH226910   0.252   4.480   0.998 -0.1451 -0.6177  0.0354
 1832TIP3    H126911   0.160   4.470   0.976 -0.5278  1.0328  0.6921
 1832TIP3    H226912   0.276   4.566   0.963  0.4615  0.0392  1.8975
 1833TIP3   OH226913   5.626   5.700   4.643  0.3500  0.1040 -0.0440
 1833TIP3    H126914   5.663   5.614   4.665 -0.8654 -0.7226 -1.0305
 1833TIP3    H226915   5.581   5.685   4.559  0.5963  1.8613 -0.5185
 1834TIP3   OH226916   2.127   1.733   3.675 -0.1345 -0.0925 -0.4860
 1834TIP3    H126917   2.123   1.676   3.752  0.3582 -0.3706 -0.6627
 1834TIP3    H226918   2.088   1.680   3.605 -0.9297  0.2988 -0.3492
 1835TIP3   OH226919   6.143   5.300  11.874  0.4145 -0.0998 -0.1842
 1835TIP3    H126920   6.093   5.307  11.956 -0.1687  0.9988 -0.6053
 1835TIP3    H226921   6.233   5.283  11.902  0.7625  2.8929  0.8651
 1836TIP3   OH226922   0.869   0.685  14.590  0.5801  0.0928  0.5974
 1836TIP3    H126923   0.774   0.679  14.579  0.7259  0.4044 -1.0730
 1836TIP3    H226924   0.900   0.596  14.577  0.5277 -0.0230  1.2175
 1837TIP3   OH226925   0.717   5.759  15.064  0.4636 -0.4831 -0.6216
 1837TIP3    H126926   0.717   5.811  14.984 -0.6752 -0.9997 -0.9651
 1837TIP3    H226927   0.791   5.699  15.054  1.0613  0.2559 -0.7396
 1838TIP3   OH226928   5.336   4.696   5.000 -0.4382  0.0749 -0.3127
 1838TIP3    H126929   5.329   4.765   5.066 -0.2579 -0.2592  0.0563
 1838TIP3    H226930   5.334   4.743   4.916 -0.7291  0.4946 -0.0756
 1839TIP3   OH226931   3.087   4.690  11.511  0.1970 -0.5121 -0.1300
 1839TIP3    H126932   3.046   4.674  11.426 -2.5976  0.9443  0.7899
 1839TIP3    H226933   3.096   4.603  11.550 -0.7474 -1.0177 -0.9884
 1840TIP3   OH226934   2.538   4.788  17.282  0.5307  0.0073 -0.2045
 1840TIP3    H126935   2.475   4.717  17.275  1.0961 -0.6761  1.3065
 1840TIP3    H226936   2.520   4.844  17.206 -2.2712  0.1785  0.4834
 1841TIP3   OH226937   5.334   5.773  14.429  0.1529  0.1124 -0.3694
 1841TIP3    H126938   5.326   5.853  14.480 -1.5397  0.0564 -0.5032
 1841TIP3    H226939   5.358   5.802  14.341 -1.3637  0.5788 -0.6585
 1842TIP3   OH226940   0.242   1.991   5.196  0.4632 -0.0485  0.4112
 1842TIP3    H126941   0.297   1.920   5.229  1.2874  0.7647  0.8260
 1842TIP3    H226942   0.189   2.017   5.271 -0.0628 -0.4237  0.1757
 1843TIP3   OH226943   3.243   0.535   2.432 -0.1611 -0.2286  0.4156
 1843TIP3    H126944   3.192   0.454   2.441 -1.8906  0.6223 -1.0351
 1843TIP3    H226945   3.279   0.551   2.519 -1.2653 -1.5854  1.1609
 1844TIP3   OH226946   5.602   3.007   6.074  0.6045 -0.0590 -0.1890
 1844TIP3    H126947   5.556   3.089   6.091  0.6660 -0.2339  0.8423
 1844TIP3    H226948   5.535   2.939   6.085  0.4002 -0.1321 -1.6453
 1845TIP3   OH226949   2.704   1.853  14.389  0.4421  0.0653  0.8936
 1845TIP3    H126950   2.734   1.796  14.318 -1.1985  0.2765 -0.0201
 1845TIP3    H226951   2.776   1.913  14.404  1.2873 -0.7588  0.2536
 1846TIP3   OH226952   5.099   3.239  14.067  0.4868  0.9473 -0.4759
 1846TIP3    H126953   5.108   3.264  14.159  0.5719  1.1541 -0.5381
 1846TIP3    H226954   5.019   3.283  14.038  1.7395  2.9141 -1.1515
 1847TIP3   OH226955   1.715   0.865   0.648 -0.1892  0.6603 -0.1752
 1847TIP3    H126956   1.632   0.825   0.621  1.0276 -0.6977 -2.2291
 1847TIP3    H226957   1.747   0.809   0.719  0.3243 -0.6462 -1.3839
 1848TIP3   OH226958   5.585   3.672  12.728 -0.0430 -0.1995  0.0424
 1848TIP3    H126959   5.563   3.680  12.821 -1.0227 -1.1146 -0.0899
 1848TIP3    H226960   5.502   3.651  12.685  0.4889 -0.3167 -0.9666
 1849TIP3   OH226961   1.501   0.839   1.559 -0.2502  0.1348  0.0026
 1849TIP3    H126962   1.407   0.823   1.556 -0.3641  0.8174 -0.2078
 1849TIP3    H226963   1.520   0.890   1.480  0.4060 -0.5248 -0.2794
 1850TIP3   OH226964   1.835   2.015  11.419 -1.1270 -0.0037 -0.4218
 1850TIP3    H126965   1.830   2.009  11.324  1.2829  0.0334 -0.6083
 1850TIP3    H226966   1.856   2.107  11.437  0.4881 -0.4264 -0.0149
 1851TIP3   OH226967   1.057   3.022   2.169  0.0240  0.3819  0.0009
 1851TIP3    H126968   0.968   2.987   2.176  0.3556 -0.7118 -1.0704
 1851TIP3    H226969   1.096   3.006   2.256 -0.1086 -1.1787 -0.2024
 1852TIP3   OH226970   4.511   5.289   5.992 -0.3211  0.4626  0.1019
 1852TIP3    H126971   4.546   5.234   6.062  0.3444  0.5688 -0.1369
 1852TIP3    H226972   4.424   5.316   6.023 -2.1706 -3.3708 -1.1428
 1853TIP3   OH226973   4.489   6.106  16.068 -0.0387  0.3095  0.3015
 1853TIP3    H126974   4.570   6.064  16.039 -0.2124  0.2683 -0.1289
 1853TIP3    H226975   4.420   6.046  16.041 -0.2692  0.7365 -0.0752
 1854TIP3   OH226976   6.332   0.846  10.601 -1.0723  0.6101  0.0212
 1854TIP3    H126977   6.375   0.770  10.639 -2.6583  0.3416  1.3936
 1854TIP3    H226978   6.354   0.918  10.660 -0.5401  0.9895 -0.6237
 1855TIP3   OH226979   1.342   1.265  11.661 -0.3248  0.4975 -0.3221
 1855TIP3    H126980   1.399   1.190  11.678 -1.9676 -0.1706  3.0269
 1855TIP3    H226981   1.385   1.338  11.705 -0.9927  0.4567  0.4152
 1856TIP3   OH226982   5.261   0.247  12.471 -0.1004  0.1050 -0.6787
 1856TIP3    H126983   5.332   0.305  12.444 -1.0843  2.1948  0.9203
 1856TIP3    H226984   5.266   0.172  12.412  3.8065 -0.1642 -0.2162
 1857TIP3   OH226985   3.714   2.298   5.322 -0.2300  0.5710 -0.2291
 1857TIP3    H126986   3.714   2.348   5.404 -0.3088 -0.1409  0.2054
 1857TIP3    H226987   3.726   2.365   5.255 -0.5323  1.2110  0.3298
 1858TIP3   OH226988   0.930   2.549  14.348 -0.1234  0.1338 -0.3708
 1858TIP3    H126989   0.967   2.586  14.267 -0.8828  1.9479  0.0567
 1858TIP3    H226990   1.002   2.553  14.411  0.0650  0.0196 -0.5773
 1859TIP3   OH226991   2.863   1.907   4.807 -0.5281 -0.3685 -0.0816
 1859TIP3    H126992   2.935   1.896   4.746  0.3851  1.7484  0.5513
 1859TIP3    H226993   2.902   1.894   4.894 -1.3093 -0.9683  0.2030
 1860TIP3   OH226994   5.176   5.052  13.242  0.3516  0.1221 -0.4715
 1860TIP3    H126995   5.256   5.101  13.226 -0.4190  1.4117 -0.6036
 1860TIP3    H226996   5.204   4.973  13.288  1.5974  0.9680  0.2712
 1861TIP3   OH226997   3.488   6.105   3.556  0.1238  0.9608 -0.4278
 1861TIP3    H126998   3.492   6.019   3.597 -1.7005  0.1578 -1.8138
 1861TIP3    H226999   3.562   6.106   3.494  0.4812  0.6331 -0.0144
 1862TIP3   OH227000   5.023   0.529   5.925 -0.1527 -0.1665 -0.5098
 1862TIP3    H127001   4.944   0.576   5.898  0.1778  0.2692 -0.7318
 1862TIP3    H227002   5.066   0.589   5.986  0.3618 -0.1071 -0.9275
 1863TIP3   OH227003   3.901   1.377   2.938 -0.1198 -0.3047 -0.1716
 1863TIP3    H127004   3.816   1.399   2.900  0.5207  0.8315 -1.0066
 1863TIP3    H227005   3.893   1.285   2.964 -1.7111 -0.1128  0.1110
 1864TIP3   OH227006   5.538   4.458  15.247  0.0386  0.4698 -0.0914
 1864TIP3    H127007   5.628   4.427  15.237 -0.9161 -2.4142 -0.8664
 1864TIP3    H227008   5.520   4.508  15.168  0.7200  0.3521 -0.3238
 1865TIP3   OH227009   3.618   0.917   2.347 -0.0726 -0.3548 -0.4488
 1865TIP3    H127010   3.584   0.909   2.258 -0.8942  2.1158 -0.4375
 1865TIP3    H227011   3.682   0.988   2.341  2.5037 -2.4553  0.2912
 1866TIP3   OH227012   4.326   5.243   4.026 -0.1343  0.6117 -0.2999
 1866TIP3    H127013   4.317   5.338   4.033  0.4956  0.8588 -2.2118
 1866TIP3    H227014   4.413   5.230   3.989 -0.9723 -0.5836 -1.9804
 1867TIP3   OH227015   3.750   3.436   0.878 -0.0827 -0.2934  0.9978
 1867TIP3    H127016   3.751   3.342   0.897  0.2141 -0.2561  1.1881
 1867TIP3    H227017   3.809   3.474   0.944 -1.3571  0.2182  1.8914
 1868TIP3   OH227018   2.578   4.938   4.394  0.2610 -0.4253 -0.0544
 1868TIP3    H127019   2.526   4.988   4.458 -0.9134 -0.0707 -1.2422
 1868TIP3    H227020   2.608   4.862   4.443 -0.1461  0.1109  1.0771
 1869TIP3   OH227021   0.271   6.667   2.373  0.1876 -0.3131 -0.2212
 1869TIP3    H127022   0.205   6.628   2.429 -0.0409  1.6378  0.9646
 1869TIP3    H227023   0.232   6.750   2.344  1.3977  0.0169 -0.9869
 1870TIP3   OH227024   5.742   3.593   0.620 -0.0147  0.1642  0.4398
 1870TIP3    H127025   5.794   3.591   0.540  0.5682 -1.2620  0.8265
 1870TIP3    H227026   5.654   3.568   0.593 -0.1726  1.1511  0.0156
 1871TIP3   OH227027   6.407   1.867   1.109 -0.3686 -0.0255  0.2655
 1871TIP3    H127028   6.382   1.831   1.194 -1.7686  0.3868  0.0423
 1871TIP3    H227029   6.399   1.793   1.048 -0.8941  0.0644  0.2238
 1872TIP3   OH227030   5.475   2.736  13.565  0.3931 -0.0526 -0.8498
 1872TIP3    H127031   5.482   2.651  13.520 -1.7184 -0.4523 -0.4964
 1872TIP3    H227032   5.398   2.727  13.621  0.3744  1.9812 -0.4987
 1873TIP3   OH227033   4.691   3.918  10.925 -0.3974 -0.0793  0.3242
 1873TIP3    H127034   4.758   3.919  10.993 -1.1100 -1.4906  1.1071
 1873TIP3    H227035   4.669   3.825  10.914 -2.0295  0.3155 -0.0757
 1874TIP3   OH227036   4.250   4.912   4.881  0.2847 -0.4104  0.1186
 1874TIP3    H127037   4.161   4.892   4.910  0.2727 -1.9068 -0.8482
 1874TIP3    H227038   4.247   4.906   4.786  0.8205  2.2715 -0.1513
 1875TIP3   OH227039   0.968   0.210  12.830  0.4026 -0.9265 -0.2421
 1875TIP3    H127040   0.881   0.188  12.797 -0.3992  0.8084  0.5955
 1875TIP3    H227041   1.009   0.259  12.758 -0.8056  1.5931  0.6639
 1876TIP3   OH227042   1.719   0.153   0.197  0.0698 -0.2125  0.1205
 1876TIP3    H127043   1.771   0.202   0.133 -1.9279  1.9218 -0.0430
 1876TIP3    H227044   1.646   0.212   0.218 -0.9736 -2.0618  2.1174
 1877TIP3   OH227045   0.807   5.243  13.193 -0.2807 -0.2073  0.0499
 1877TIP3    H127046   0.900   5.266  13.193 -0.0816 -0.9896 -0.6011
 1877TIP3    H227047   0.774   5.279  13.276  0.3465  1.0537 -0.2310
 1878TIP3   OH227048   4.264   5.882   1.139 -0.0750  0.5523 -0.0988
 1878TIP3    H127049   4.284   5.843   1.054  0.9074  2.2760 -0.6955
 1878TIP3    H227050   4.169   5.893   1.138 -0.3152 -1.2131 -0.1416
 1879TIP3   OH227051   4.017   1.431   4.816  0.2068 -0.2847  0.4366
 1879TIP3    H127052   4.012   1.455   4.723 -0.1552 -0.2164  0.4728
 1879TIP3    H227053   3.929   1.447   4.849  0.3103 -0.4097  0.7690
 1880TIP3   OH227054   2.202   4.207  12.422  0.5144 -0.0800 -0.4423
 1880TIP3    H127055   2.155   4.125  12.431 -0.1287  0.0794 -1.9596
 1880TIP3    H227056   2.283   4.195  12.472 -0.6131 -0.7546  1.3042
 1881TIP3   OH227057   5.568   1.828   3.539  0.3038 -0.3687 -0.0901
 1881TIP3    H127058   5.505   1.756   3.535  1.0983 -1.0275 -1.6690
 1881TIP3    H227059   5.515   1.907   3.529 -0.5419 -0.7021  1.3128
 1882TIP3   OH227060   2.891   3.440   4.496  0.1368  0.2075 -0.2285
 1882TIP3    H127061   2.796   3.451   4.487  0.0787 -0.5739 -0.6578
 1882TIP3    H227062   2.901   3.385   4.574  0.2145 -0.0175 -0.3957
 1883TIP3   OH227063   4.801   4.254  16.350  0.3182 -1.0672  0.4383
 1883TIP3    H127064   4.767   4.168  16.324 -1.3548 -0.2258 -0.2562
 1883TIP3    H227065   4.832   4.294  16.269 -2.8382  0.6549 -0.0502
 1884TIP3   OH227066   1.116   4.297  10.730 -0.0136  0.1174  0.0064
 1884TIP3    H127067   1.137   4.215  10.685  1.2681  0.2121  0.3710
 1884TIP3    H227068   1.167   4.364  10.684  0.4894  0.3809  0.9168
 1885TIP3   OH227069   1.058   1.549   2.608  0.4588  0.1810 -0.6088
 1885TIP3    H127070   1.046   1.631   2.656  0.0279  0.5954 -1.4040
 1885TIP3    H227071   0.971   1.530   2.573 -0.3604 -2.4550  2.3940
 1886TIP3   OH227072   5.988   4.902   2.090  0.0140 -0.2607  0.4817
 1886TIP3    H127073   5.962   4.817   2.054 -0.5630  0.3061 -0.4985
 1886TIP3    H227074   5.932   4.913   2.167 -0.8743 -0.2022 -0.1484
 1887TIP3   OH227075   5.794   4.327   3.357 -0.6548  0.0864  1.2094
 1887TIP3    H127076   5.738   4.402   3.339 -0.2726  0.6637  2.3110
 1887TIP3    H227077   5.737   4.265   3.403 -0.5295  0.4955  1.9459
 1888TIP3   OH227078   1.336   2.875   5.818  0.7195 -0.3792 -0.0094
 1888TIP3    H127079   1.248   2.913   5.815  0.1751 -1.4028 -4.4332
 1888TIP3    H227080   1.345   2.844   5.908 -2.2215  2.3121  1.4439
 1889TIP3   OH227081   1.344   2.918   1.593  1.1036  0.1733  0.4175
 1889TIP3    H127082   1.390   2.943   1.674 -0.8742  0.7345  1.4304
 1889TIP3    H227083   1.344   2.823   1.595  1.2335  0.1769  0.9787
 1890TIP3   OH227084   2.506   2.504   5.913  0.2209  0.2737  0.2918
 1890TIP3    H127085   2.487   2.570   5.979 -1.7880 -0.7462  0.7943
 1890TIP3    H227086   2.596   2.476   5.933  0.4205  1.4944  1.2302
 1891TIP3   OH227087   5.947   2.166   5.195  0.1745 -0.4167  0.3450
 1891TIP3    H127088   6.037   2.137   5.184  0.7798  1.5211 -0.3503
 1891TIP3    H227089   5.955   2.256   5.229 -1.4256  0.4641 -1.4359
 1892TIP3   OH227090   6.446   1.421   1.949  1.0865  0.0209 -0.6606
 1892TIP3    H127091   6.381   1.450   1.886 -1.9192 -0.5846  1.9118
 1892TIP3    H227092   6.508   1.494   1.955  0.0187  1.1339 -2.3665
 1893TIP3   OH227093   5.600   2.336   0.470  0.7574  1.0039  0.5412
 1893TIP3    H127094   5.563   2.258   0.430  2.4502  0.1503  0.5494
 1893TIP3    H227095   5.562   2.339   0.557 -0.1984  0.8452  0.1373
 1894TIP3   OH227096   3.153   5.286  12.558  0.1634  0.0232  0.2670
 1894TIP3    H127097   3.232   5.266  12.608 -0.0558 -2.2968 -0.2057
 1894TIP3    H227098   3.175   5.261  12.468  0.0154  2.6450 -0.5853
 1895TIP3   OH227099   1.535   5.432  16.658  0.3305  0.5134 -0.0094
 1895TIP3    H127100   1.550   5.441  16.752 -1.8230  3.2666  0.2148
 1895TIP3    H227101   1.615   5.464  16.617 -0.3224  3.7521  0.9978
 1896TIP3   OH227102   4.685   2.384   6.815  0.5596  0.3430 -0.0857
 1896TIP3    H127103   4.626   2.387   6.891  1.2134 -0.8102  0.4897
 1896TIP3    H227104   4.630   2.353   6.743  0.3862 -0.4637  0.3837
 1897TIP3   OH227105   5.335   1.320   4.389 -0.5695  0.2547 -0.0878
 1897TIP3    H127106   5.367   1.362   4.310  1.3091  0.3024  0.6390
 1897TIP3    H227107   5.335   1.390   4.455 -0.0612 -0.2393  0.4530
 1898TIP3   OH227108   6.624   5.764   4.240  0.1738 -0.2225 -0.0819
 1898TIP3    H127109   6.615   5.733   4.150  2.4206  1.8362 -1.1508
 1898TIP3    H227110   6.679   5.698   4.283 -0.3391 -0.8682 -0.4059
 1899TIP3   OH227111   1.205   4.289   5.730 -0.7746 -0.0937 -0.1914
 1899TIP3    H127112   1.113   4.316   5.728 -1.1683 -1.2738  0.7423
 1899TIP3    H227113   1.224   4.263   5.640 -1.9532 -1.6221 -0.0462
 1900TIP3   OH227114   2.442   6.752  16.494 -0.9076 -0.5543 -0.2561
 1900TIP3    H127115   2.511   6.810  16.461 -0.7159  0.3052  1.4989
 1900TIP3    H227116   2.366   6.772  16.439 -0.3905  0.1807 -0.7310
 1901TIP3   OH227117   3.012   5.841  16.735 -0.0350  0.9313  0.0791
 1901TIP3    H127118   2.924   5.808  16.722 -0.0563  0.5172  1.1899
 1901TIP3    H227119   3.034   5.885  16.653 -0.1508 -1.4692 -1.3270
 1902TIP3   OH227120   2.428   4.216  15.830  0.1111  0.1384 -0.0793
 1902TIP3    H127121   2.357   4.154  15.848  0.6109  0.0609  1.7949
 1902TIP3    H227122   2.386   4.302  15.833 -0.2548 -0.0014 -0.9374
 1903TIP3   OH227123   3.154   0.270   4.979 -0.1232 -0.0348  0.0192
 1903TIP3    H127124   3.202   0.344   5.017  0.7362 -1.1144  1.1185
 1903TIP3    H227125   3.168   0.198   5.040  1.6197 -2.0055 -2.4505
 1904TIP3   OH227126   5.267   5.567  16.273  0.5876  0.2994  0.3510
 1904TIP3    H127127   5.201   5.623  16.316  0.2955 -0.0691  0.3884
 1904TIP3    H227128   5.248   5.479  16.305  2.0281  0.3868  1.4925
 1905TIP3   OH227129   5.547   2.947   4.130  0.9298 -0.2040 -0.7267
 1905TIP3    H127130   5.591   3.027   4.101 -2.5864  2.3584  0.2847
 1905TIP3    H227131   5.482   2.930   4.061  0.8249 -1.4923 -0.3239
 1906TIP3   OH227132   0.778   2.235  15.196  0.1281 -0.4840 -0.2547
 1906TIP3    H127133   0.713   2.273  15.255  0.3703  0.0135 -0.2983
 1906TIP3    H227134   0.749   2.145  15.182 -0.5772 -0.2476 -0.3230
 1907TIP3   OH227135   4.063   1.068   2.758  0.0755 -0.4489  0.2631
 1907TIP3    H127136   4.136   1.008   2.740  0.6518 -0.2026  1.6454
 1907TIP3    H227137   4.007   1.062   2.680  1.9363 -0.0981 -1.1723
 1908TIP3   OH227138   4.392   2.587  14.724  0.3543  0.2109  0.1525
 1908TIP3    H127139   4.332   2.515  14.705 -1.1260  1.4025  0.1564
 1908TIP3    H227140   4.383   2.646  14.649  0.0094  1.3840  1.1043
 1909TIP3   OH227141   0.410   5.955   2.257  0.0748 -0.1964 -0.0404
 1909TIP3    H127142   0.412   6.050   2.251  0.4435 -0.1586  0.6180
 1909TIP3    H227143   0.463   5.934   2.334 -1.5938 -0.8124  1.0017
 1910TIP3   OH227144   5.828   1.913  16.748 -0.3306  0.5239 -0.0586
 1910TIP3    H127145   5.828   1.872  16.661  0.4854  1.1663 -0.3764
 1910TIP3    H227146   5.825   1.839  16.809 -1.5793  0.0765 -0.6176
 1911TIP3   OH227147   4.304   5.272   1.870  0.4465  0.2375 -0.5604
 1911TIP3    H127148   4.311   5.189   1.919  2.4949  0.2542 -0.7232
 1911TIP3    H227149   4.315   5.340   1.936 -0.7326  0.3925 -0.5025
 1912TIP3   OH227150   4.450   6.499   4.806 -0.8722 -0.1007  0.1394
 1912TIP3    H127151   4.445   6.462   4.893  0.9350  0.3309  0.4647
 1912TIP3    H227152   4.432   6.593   4.818  0.1822  0.1056  0.1931
 1913TIP3   OH227153   0.403   6.061   4.534  0.3536 -0.1107 -0.3022
 1913TIP3    H127154   0.309   6.047   4.523  0.0591  1.9604 -0.8449
 1913TIP3    H227155   0.419   6.046   4.628 -0.3657 -1.1010 -0.3207
 1914TIP3   OH227156   3.838   6.450  13.755 -0.1325 -0.4544  0.2615
 1914TIP3    H127157   3.788   6.531  13.763 -0.3892 -0.3752 -1.6014
 1914TIP3    H227158   3.832   6.409  13.841  0.8067  1.9384  1.5714
 1915TIP3   OH227159   5.499   5.219   2.306 -0.5587  0.1473  0.2112
 1915TIP3    H127160   5.568   5.215   2.373  0.9598  0.0430 -1.3022
 1915TIP3    H227161   5.547   5.228   2.223 -2.4158  1.9104 -0.7381
 1916TIP3   OH227162   3.358   6.579  15.642 -0.2712  0.0778  0.0562
 1916TIP3    H127163   3.386   6.655  15.693  2.5780 -0.8005 -0.0268
 1916TIP3    H227164   3.294   6.535  15.698 -1.5016  2.1359  0.3645
 1917TIP3   OH227165   5.450   6.725   1.335  0.4762  0.9977  0.6578
 1917TIP3    H127166   5.509   6.755   1.404 -1.1017  0.9914  2.0767
 1917TIP3    H227167   5.432   6.633   1.357  0.7826  0.6758 -0.3866
 1918TIP3   OH227168   2.128   5.782   4.060  0.1151 -0.1379  0.0919
 1918TIP3    H127169   2.039   5.754   4.037  0.3205 -0.1927 -0.6672
 1918TIP3    H227170   2.125   5.796   4.154 -0.2737 -1.7581  0.3570
 1919TIP3   OH227171   4.603   3.747  15.749  0.4382 -0.0112  0.3199
 1919TIP3    H127172   4.674   3.802  15.782  1.0234 -1.1485  1.0176
 1919TIP3    H227173   4.527   3.772  15.802  0.6460  0.2763  0.4855
 1920TIP3   OH227174   5.415   6.648  13.309  0.1608  0.3348  0.0136
 1920TIP3    H127175   5.422   6.590  13.385 -1.0603  0.1852  0.0336
 1920TIP3    H227176   5.402   6.735  13.347 -1.4145  0.1334  0.0160
 1921TIP3   OH227177   1.028   0.525   4.266  0.8579  0.0213 -0.0337
 1921TIP3    H127178   0.949   0.499   4.313 -0.8681  0.0637 -2.6825
 1921TIP3    H227179   1.057   0.446   4.221  0.6053  0.6314 -1.3278
 1922TIP3   OH227180   4.395   4.212   4.229  0.3099  0.2836  0.7486
 1922TIP3    H127181   4.406   4.302   4.261  0.8162  0.5728 -0.2097
 1922TIP3    H227182   4.419   4.157   4.304 -0.5077  0.9276  1.5174
 1923TIP3   OH227183   6.259   2.151  11.616  0.8099 -0.3447  0.5165
 1923TIP3    H127184   6.260   2.076  11.675 -1.2440 -0.9137 -0.0859
 1923TIP3    H227185   6.189   2.207  11.649  1.7661  0.9193  0.4674
 1924TIP3   OH227186   5.278   3.429  11.820 -0.1393  0.3171  0.5828
 1924TIP3    H127187   5.239   3.508  11.857 -0.8208  0.6853 -0.8613
 1924TIP3    H227188   5.316   3.458  11.737 -1.0759 -1.0030 -0.3509
 1925TIP3   OH227189   0.121   6.417   0.337 -0.1693 -0.0952 -0.2329
 1925TIP3    H127190   0.155   6.362   0.266  2.9176  2.4229 -0.9489
 1925TIP3    H227191   0.134   6.366   0.416 -1.3069 -1.9626 -1.1893
 1926TIP3   OH227192   1.273   4.863   1.485 -0.3199 -0.0819 -0.1966
 1926TIP3    H127193   1.268   4.852   1.580 -2.1569 -0.6243 -0.3169
 1926TIP3    H227194   1.210   4.799   1.450  1.9161 -1.4840 -1.9198
 1927TIP3   OH227195   2.778   0.691   6.502  0.0304 -0.3146 -0.1658
 1927TIP3    H127196   2.782   0.606   6.545  0.2423  0.4326  1.3335
 1927TIP3    H227197   2.727   0.746   6.561  3.2926  1.7435  0.9569
 1928TIP3   OH227198   2.101   6.169   2.546 -0.5122  0.2381  0.4107
 1928TIP3    H127199   2.081   6.236   2.481 -1.0614 -0.1587  0.1652
 1928TIP3    H227200   2.015   6.139   2.577 -0.2805 -0.6423  0.2190
 1929TIP3   OH227201   5.615   3.191  15.756  0.0585  0.0527 -0.4242
 1929TIP3    H127202   5.590   3.122  15.694 -0.1816  0.7683 -1.1389
 1929TIP3    H227203   5.662   3.255  15.703  1.6996 -0.3015  0.5269
 1930TIP3   OH227204   2.949   2.599   0.789 -0.0930  0.1628  0.2220
 1930TIP3    H127205   3.006   2.629   0.860  0.5164 -0.2124 -0.0948
 1930TIP3    H227206   2.917   2.513   0.817 -0.1415  0.1755  0.2056
 1931TIP3   OH227207   2.758   5.453  15.282 -1.0107 -0.0462 -0.0943
 1931TIP3    H127208   2.794   5.523  15.337 -3.7262  2.1456 -0.8745
 1931TIP3    H227209   2.803   5.464  15.198 -0.0312 -0.5502  0.3451
 1932TIP3   OH227210   4.120   3.145  16.172 -0.3960 -0.1752 -0.0423
 1932TIP3    H127211   4.176   3.100  16.109 -0.1773 -1.3907  0.9858
 1932TIP3    H227212   4.110   3.233  16.136 -0.7249 -0.9657 -2.0470
 1933TIP3   OH227213   4.186   2.819   4.708 -0.3539 -0.7776  0.5446
 1933TIP3    H127214   4.221   2.799   4.795 -1.1397  1.9266  1.5800
 1933TIP3    H227215   4.226   2.903   4.685 -1.3363 -0.6975 -1.0243
 1934TIP3   OH227216   4.819   4.439  10.548  0.1022 -0.8724 -0.5804
 1934TIP3    H127217   4.865   4.517  10.577 -0.6537 -0.4308 -0.5400
 1934TIP3    H227218   4.820   4.444  10.452 -3.3935  1.3697 -0.7081
 1935TIP3   OH227219   3.794   4.632  15.548  0.4136  0.1246 -0.0681
 1935TIP3    H127220   3.788   4.575  15.625  2.3942 -1.3795 -0.9447
 1935TIP3    H227221   3.711   4.679  15.547  0.1238 -0.1268  2.7110
 1936TIP3   OH227222   6.712   4.586  15.239  0.0446 -0.0524 -0.3480
 1936TIP3    H127223   6.783   4.620  15.185  0.3960  0.2111  0.2715
 1936TIP3    H227224   6.712   4.492  15.222  0.7235 -0.0950 -0.1393
 1937TIP3   OH227225   6.223   0.851  14.448 -0.3569 -0.0786 -0.1231
 1937TIP3    H127226   6.161   0.919  14.472  1.0935  0.3556  2.7992
 1937TIP3    H227227   6.272   0.887  14.374 -0.8082  1.3028  0.2337
 1938TIP3   OH227228   6.394   3.174  14.571 -0.0638  0.1183 -0.6764
 1938TIP3    H127229   6.429   3.177  14.482  0.0796  1.6704 -0.6089
 1938TIP3    H227230   6.305   3.210  14.563 -0.6025 -1.1235 -0.4102
 1939TIP3   OH227231   2.906   6.298  16.749 -0.1302 -0.0411 -0.4136
 1939TIP3    H127232   2.822   6.254  16.766  0.2956 -0.2767  1.1542
 1939TIP3    H227233   2.898   6.383  16.790 -0.3630  0.8035 -2.1080
 1940TIP3   OH227234   4.256   5.946  13.197 -0.6296 -0.0855  0.2296
 1940TIP3    H127235   4.175   5.926  13.149 -0.0376  0.1730 -0.9063
 1940TIP3    H227236   4.230   5.943  13.289 -2.0985  0.6508 -0.1268
 1941TIP3   OH227237   0.862   1.196  12.380  0.2418 -0.2875 -0.2136
 1941TIP3    H127238   0.924   1.139  12.426  2.5261  0.3745 -2.2437
 1941TIP3    H227239   0.911   1.228  12.304 -2.3497  1.0146 -1.4665
 1942TIP3   OH227240   0.513   5.258   4.886  0.3761  0.4564  0.0602
 1942TIP3    H127241   0.585   5.272   4.948 -0.2983  1.7155  0.6072
 1942TIP3    H227242   0.471   5.177   4.915  0.8147  0.3912  0.5188
 1943TIP3   OH227243   1.107   0.301   1.047 -0.3480 -0.1686  0.1207
 1943TIP3    H127244   1.181   0.308   1.107  0.7200  1.7007 -1.2734
 1943TIP3    H227245   1.118   0.216   1.005  1.4093  0.3201 -0.4888
 1944TIP3   OH227246   6.216   1.199  14.303 -0.2093 -0.6811  0.7275
 1944TIP3    H127247   6.153   1.225  14.370  0.5501  0.7730  0.9191
 1944TIP3    H227248   6.200   1.258  14.230  0.0461 -1.1793  0.2673
 1945TIP3   OH227249   5.138   1.768  15.441  0.0602  0.3747  0.1948
 1945TIP3    H127250   5.062   1.755  15.384  0.7391  0.3477 -0.7199
 1945TIP3    H227251   5.106   1.824  15.511 -1.3118 -1.1663  0.8572
 1946TIP3   OH227252   0.550   3.277  14.272  0.5476 -0.3267 -0.3032
 1946TIP3    H127253   0.639   3.261  14.305  0.2613 -0.0169  0.6723
 1946TIP3    H227254   0.503   3.196  14.292  0.4994 -0.3244 -0.4103
 1947TIP3   OH227255   4.904   6.744  13.926 -0.0936 -0.9087  0.9381
 1947TIP3    H127256   4.988   6.708  13.897  0.9364  1.0149  1.4205
 1947TIP3    H227257   4.913   6.755  14.020 -0.2572  0.8489  0.7704
 1948TIP3   OH227258   3.551   3.922   4.602  0.0503  0.1628  0.0572
 1948TIP3    H127259   3.609   3.861   4.556  1.3470  0.7452  0.8382
 1948TIP3    H227260   3.530   3.877   4.684  0.4523  0.4615  0.3317
 1949TIP3   OH227261   0.486   1.075  12.685  0.4165  0.3042 -0.1044
 1949TIP3    H127262   0.530   1.136  12.626  0.2550  1.4454  0.9090
 1949TIP3    H227263   0.508   1.106  12.773  0.5456 -1.2642  0.4662
 1950TIP3   OH227264   2.202   4.982  17.106 -0.3615 -0.0944  0.1327
 1950TIP3    H127265   2.277   4.940  17.147  0.4096  0.9034 -0.2371
 1950TIP3    H227266   2.228   4.995  17.015 -1.3518 -0.5915 -0.2410
 1951TIP3   OH227267   0.188   1.019  12.698  0.6072 -0.3394  0.2195
 1951TIP3    H127268   0.274   1.036  12.659  0.0251  0.8643 -0.5984
 1951TIP3    H227269   0.152   0.947  12.647  0.4486  0.2664 -0.5313
 1952TIP3   OH227270   4.549   2.625  15.491  0.1040 -0.6606  0.1090
 1952TIP3    H127271   4.524   2.564  15.421 -0.2911  0.6269 -0.9094
 1952TIP3    H227272   4.566   2.708  15.446  3.3098 -0.6361  1.1151
 1953TIP3   OH227273   0.557   0.558   0.667  0.0964 -0.3146  0.2002
 1953TIP3    H127274   0.587   0.619   0.599 -0.1952 -1.1274 -0.6960
 1953TIP3    H227275   0.508   0.492   0.618  0.7945 -1.5172  1.0768
 1954TIP3   OH227276   2.779   5.053   4.656 -0.3049 -0.4226  0.0588
 1954TIP3    H127277   2.847   4.992   4.683 -0.2953  0.2378  1.6508
 1954TIP3    H227278   2.824   5.116   4.600  0.1754 -0.6033  0.2356
 1955TIP3   OH227279   4.490   4.640  12.110  0.1454  0.3874 -0.5089
 1955TIP3    H127280   4.484   4.606  12.020  0.4001  0.0565 -0.4065
 1955TIP3    H227281   4.470   4.733  12.102 -4.6942 -0.3664 -0.2586
 1956TIP3   OH227282   5.946   0.665   2.206  0.6208  0.7653 -0.4313
 1956TIP3    H127283   5.862   0.689   2.246  1.1871  1.0842  0.6169
 1956TIP3    H227284   5.924   0.635   2.118 -0.4015  2.5458 -0.8163
 1957TIP3   OH227285   0.092   5.481   0.161  0.0126 -0.3861 -0.3395
 1957TIP3    H127286   0.122   5.494   0.071  0.8148 -0.2173 -0.0519
 1957TIP3    H227287   0.124   5.394   0.185 -0.2877 -0.4730 -0.2553
 1958TIP3   OH227288   2.503   2.304   2.719  0.2682  0.1523  0.1553
 1958TIP3    H127289   2.543   2.331   2.801  0.2620  0.3994  0.0782
 1958TIP3    H227290   2.576   2.273   2.665  0.1190 -1.2562  0.7303
 1959TIP3   OH227291   3.145   6.176  12.248 -0.2444 -0.1979 -0.1444
 1959TIP3    H127292   3.192   6.155  12.168 -1.3349  0.7681 -1.0684
 1959TIP3    H227293   3.146   6.271  12.252 -1.3181 -0.1979  0.3000
 1960TIP3   OH227294   5.359   1.025  12.946 -0.0065  0.0060 -0.7797
 1960TIP3    H127295   5.424   1.018  12.877  0.6043 -1.1663 -0.1179
 1960TIP3    H227296   5.330   0.935  12.961 -1.8998  0.5037 -1.1434
 1961TIP3   OH227297   2.257   0.573   4.687 -0.0478  0.2687 -0.1980
 1961TIP3    H127298   2.311   0.564   4.766 -0.6426  1.2376  0.3417
 1961TIP3    H227299   2.247   0.668   4.675 -0.3584  0.1270 -1.1727
 1962TIP3   OH227300   3.042   3.654  16.042  0.3817 -0.1571  0.3443
 1962TIP3    H127301   3.009   3.674  15.954 -1.6016  0.7360  1.2176
 1962TIP3    H227302   3.002   3.570  16.065 -1.6171  1.0187  1.4837
 1963TIP3   OH227303   0.097   0.086  11.537 -0.3489  0.2551  0.0514
 1963TIP3    H127304   0.116   0.021  11.469  1.7417  1.1562 -0.3079
 1963TIP3    H227305   0.150   0.162  11.513 -2.3092  1.9367  0.7415
 1964TIP3   OH227306   6.012   2.973   1.633  0.3499  0.0850  0.1557
 1964TIP3    H127307   5.934   2.933   1.671  0.8735  1.5642  3.1351
 1964TIP3    H227308   5.981   3.056   1.597  0.2737 -0.1805 -0.4067
 1965TIP3   OH227309   4.786   3.922   5.271 -0.5321  0.5868  0.1665
 1965TIP3    H127310   4.781   3.867   5.349  0.2197 -0.6892 -0.6524
 1965TIP3    H227311   4.833   3.869   5.207  1.0273  2.5300 -0.3828
 1966TIP3   OH227312   0.999   5.379  14.957  0.0933 -0.1261 -0.3240
 1966TIP3    H127313   0.966   5.465  14.981 -0.8536 -0.4035 -0.5907
 1966TIP3    H227314   1.000   5.379  14.861  0.1355 -0.3926 -0.3249
 1967TIP3   OH227315   2.643   0.979  14.910  0.2917 -0.9273  0.2209
 1967TIP3    H127316   2.701   1.018  14.845 -0.8207  0.7507  0.1726
 1967TIP3    H227317   2.555   0.991  14.874 -0.1557 -3.0725  0.4693
 1968TIP3   OH227318   3.792   6.454  12.839 -0.5964 -0.2146 -0.5553
 1968TIP3    H127319   3.871   6.404  12.817  0.4530  0.7807  0.7772
 1968TIP3    H227320   3.729   6.430  12.771  0.3476 -2.1817 -0.8100
 1969TIP3   OH227321   4.039   2.416   5.097 -0.2930  0.3616 -0.0267
 1969TIP3    H127322   4.088   2.483   5.049 -0.7852 -0.3329 -1.5732
 1969TIP3    H227323   4.011   2.354   5.030  1.0009 -1.9832  1.4469
 1970TIP3   OH227324   3.167   4.528   5.166  0.1113 -0.1969  0.0645
 1970TIP3    H127325   3.233   4.461   5.150  0.1883 -0.0280 -0.3441
 1970TIP3    H227326   3.135   4.510   5.254  0.5714 -0.3935  0.1951
 1971TIP3   OH227327   4.762   0.945  15.601  0.2707  0.2918  0.1098
 1971TIP3    H127328   4.685   1.002  15.611  0.2172  0.1468  0.5445
 1971TIP3    H227329   4.807   0.951  15.685 -0.4476 -1.3314  0.6499
 1972TIP3   OH227330   5.766   4.384  15.115 -0.5212 -0.1851 -0.0775
 1972TIP3    H127331   5.840   4.433  15.079 -1.3394  1.2314  0.0900
 1972TIP3    H227332   5.805   4.322  15.176  0.5679  0.0699 -0.4951
 1973TIP3   OH227333   6.610   4.187  16.114 -0.3466  0.0869  0.1755
 1973TIP3    H127334   6.535   4.167  16.171 -0.5927 -0.3163 -0.2702
 1973TIP3    H227335   6.594   4.276  16.083 -1.4587 -0.5109 -1.1032
 1974TIP3   OH227336   3.582   0.727  17.055 -0.0311  0.1233  0.0322
 1974TIP3    H127337   3.642   0.769  16.993 -0.2402  1.7242  0.8666
 1974TIP3    H227338   3.639   0.676  17.113  0.1537 -1.5024 -1.5022
 1975TIP3   OH227339   1.397   2.882  13.659  0.4756  0.3105 -0.0168
 1975TIP3    H127340   1.470   2.929  13.619 -0.7936  0.6048 -2.0913
 1975TIP3    H227341   1.324   2.942  13.653 -0.7828 -1.2620 -1.1747
 1976TIP3   OH227342   0.672   0.131   1.745  0.7067  0.6554 -0.0462
 1976TIP3    H127343   0.582   0.101   1.762  0.5849  0.4086 -1.0582
 1976TIP3    H227344   0.677   0.216   1.789  0.0875  0.5215  0.3061
 1977TIP3   OH227345   2.094   0.547   2.963 -0.4825 -0.4843  0.6283
 1977TIP3    H127346   2.143   0.465   2.959  0.1201 -0.1126  0.2250
 1977TIP3    H227347   2.042   0.540   3.043 -0.9552 -1.5431  0.2347
 1978TIP3   OH227348   0.454   6.528  14.986  0.2698  0.1073  0.4186
 1978TIP3    H127349   0.497   6.545  14.902  1.7737 -0.2302  1.0856
 1978TIP3    H227350   0.475   6.604  15.040  1.0069 -0.5551  1.1087
 1979TIP3   OH227351   0.975   6.539  11.928 -0.2362  0.4542  0.4071
 1979TIP3    H127352   0.898   6.484  11.938 -0.5025  0.2380 -2.2281
 1979TIP3    H227353   1.047   6.485  11.961 -0.7931 -0.6236 -0.0929
 1980TIP3   OH227354   4.329   5.953  13.772  0.2969 -0.0748  0.6568
 1980TIP3    H127355   4.292   5.894  13.837  1.8864  0.7626  2.4081
 1980TIP3    H227356   4.404   5.906  13.736  0.0145 -0.1390  0.1382
 1981TIP3   OH227357   5.793   3.731  12.234  1.0304 -0.3775  0.2962
 1981TIP3    H127358   5.873   3.715  12.284 -0.3561 -1.2246  2.3417
 1981TIP3    H227359   5.725   3.742  12.300 -0.7589 -0.7414 -1.4109
 1982TIP3   OH227360   2.365   5.583   5.568  0.1355 -0.1059 -0.3138
 1982TIP3    H127361   2.321   5.666   5.585 -0.4565 -0.7409  1.6504
 1982TIP3    H227362   2.353   5.567   5.475 -1.1653  1.2262 -0.4087
 1983TIP3   OH227363   3.393   2.310   2.412  0.0676  0.7688  0.6921
 1983TIP3    H127364   3.363   2.371   2.345  1.0297  0.6227  0.1084
 1983TIP3    H227365   3.314   2.286   2.460 -1.3633 -1.7301 -2.4692
 1984TIP3   OH227366   3.598   5.700   2.611  0.1146 -0.5822  0.8460
 1984TIP3    H127367   3.674   5.672   2.560  0.6239 -0.0488  1.3023
 1984TIP3    H227368   3.594   5.639   2.685  1.1911  0.4770  1.8100
 1985TIP3   OH227369   4.627   3.722   1.191 -0.0795  0.2407 -0.4392
 1985TIP3    H127370   4.655   3.757   1.106  0.8194 -1.3077 -0.8255
 1985TIP3    H227371   4.604   3.631   1.172 -0.2840  0.0034  0.9011
 1986TIP3   OH227372   0.276   4.678   3.211  0.0192 -0.0796 -0.3776
 1986TIP3    H127373   0.310   4.762   3.242 -2.2961  0.0909  2.1083
 1986TIP3    H227374   0.338   4.613   3.246  0.1716  0.4416  0.3508
 1987TIP3   OH227375   1.802   2.746   0.329 -0.5410  0.7033  0.4407
 1987TIP3    H127376   1.880   2.713   0.373 -0.7560 -0.6770 -0.1544
 1987TIP3    H227377   1.745   2.669   0.319  0.1615  0.4761 -3.5851
 1988TIP3   OH227378   2.944   1.470   2.326  0.1085  0.5317 -0.1513
 1988TIP3    H127379   3.027   1.435   2.292 -0.6675 -0.9065 -0.6609
 1988TIP3    H227380   2.967   1.506   2.411  1.0490 -1.0336  0.3090
 1989TIP3   OH227381   4.646   3.321  17.171 -0.3674 -0.7330 -0.0357
 1989TIP3    H127382   4.559   3.346  17.140  0.0701 -0.7133 -1.3251
 1989TIP3    H227383   4.699   3.400  17.159 -0.0388 -0.9196  0.1781
 1990TIP3   OH227384   4.509   1.293   5.127  0.2232 -0.5997 -0.3179
 1990TIP3    H127385   4.443   1.321   5.064 -1.2190  0.1867  1.4936
 1990TIP3    H227386   4.547   1.374   5.161  1.3393 -1.0288 -0.4675
 1991TIP3   OH227387   1.376   3.314  11.231  0.4975 -0.4271  0.6877
 1991TIP3    H127388   1.336   3.310  11.318  0.0779  0.2504  0.5340
 1991TIP3    H227389   1.368   3.406  11.206 -1.4277 -0.9757 -1.0085
 1992TIP3   OH227390   5.775   1.518  14.878  0.0158 -0.8591  0.2351
 1992TIP3    H127391   5.838   1.544  14.944 -1.0210 -0.2526  1.0083
 1992TIP3    H227392   5.707   1.585  14.881 -0.6415 -1.4569 -0.6207
 1993TIP3   OH227393   1.456   4.703  10.813  0.1953  0.2660 -0.2527
 1993TIP3    H127394   1.448   4.756  10.892 -0.0958 -0.2195  0.0499
 1993TIP3    H227395   1.537   4.732  10.772  0.5099  0.3055  0.3903
 1994TIP3   OH227396   6.034   3.208  15.822  0.1973  0.4060  0.1471
 1994TIP3    H127397   6.002   3.219  15.911  1.7849  1.9894  0.5849
 1994TIP3    H227398   6.114   3.260  15.819  0.3349  0.1581 -2.1350
 1995TIP3   OH227399   2.350   4.138   5.650 -0.3599 -0.0116  0.2094
 1995TIP3    H127400   2.291   4.146   5.724  0.2735  1.2040  0.6122
 1995TIP3    H227401   2.436   4.160   5.685  0.0420  0.0252 -0.7569
 1996TIP3   OH227402   5.710   3.030   3.008 -0.0181 -0.0571 -0.7173
 1996TIP3    H127403   5.780   3.089   2.983  0.5288 -0.2003  0.4401
 1996TIP3    H227404   5.630   3.075   2.980  0.4696  0.5095 -1.2366
 1997TIP3   OH227405   4.654   1.729  16.756  0.6924 -0.6510  0.0643
 1997TIP3    H127406   4.616   1.787  16.690  0.5743 -0.1716  0.5401
 1997TIP3    H227407   4.716   1.785  16.804  0.5344 -0.8965  0.5646
 1998TIP3   OH227408   4.937   4.914  12.819  0.1246 -0.8762 -0.0952
 1998TIP3    H127409   4.950   4.826  12.854 -0.7176 -0.4408  1.3821
 1998TIP3    H227410   5.025   4.953  12.819  0.2601 -1.1581  0.8234
 1999TIP3   OH227411   3.074   0.067  12.540 -1.0917 -0.1570 -0.4835
 1999TIP3    H127412   3.082  -0.003  12.475  1.3027 -0.9459  0.5642
 1999TIP3    H227413   3.110   0.030  12.621  1.9149  2.6887 -0.2782
 2000TIP3   OH227414   6.358   2.197   2.629 -0.0625 -0.3123  0.6313
 2000TIP3    H127415   6.351   2.281   2.584  0.1231 -0.6203  0.0162
 2000TIP3    H227416   6.390   2.137   2.562 -0.9585 -1.0539  0.8418
 2001TIP3   OH227417   0.385   4.707  12.315 -0.4520  0.0232 -0.2671
 2001TIP3    H127418   0.384   4.775  12.248 -1.0511 -1.1960 -1.5471
 2001TIP3    H227419   0.470   4.718  12.359 -0.6085  1.6707 -0.3148
 2002TIP3   OH227420   2.219   5.717   1.044 -0.1793 -1.3029  0.1405
 2002TIP3    H127421   2.203   5.636   1.092  0.7643 -1.4485  0.2424
 2002TIP3    H227422   2.272   5.689   0.969  0.3565 -0.7507  0.3089
 2003TIP3   OH227423   6.003   2.452   3.042 -0.2566  0.2506  0.3724
 2003TIP3    H127424   5.932   2.508   3.075 -0.4494  1.1450 -1.3907
 2003TIP3    H227425   6.023   2.489   2.956  1.8864 -0.4251  0.5342
 2004TIP3   OH227426   4.729   3.711  14.284 -0.0492  0.0096 -0.4364
 2004TIP3    H127427   4.723   3.713  14.189 -1.0051  0.6224 -0.3688
 2004TIP3    H227428   4.822   3.726  14.302 -0.2085  2.2379 -1.2126
 2005TIP3   OH227429   2.939   2.662   2.972 -0.3206 -0.4507  0.2286
 2005TIP3    H127430   2.991   2.686   2.896 -1.2948 -1.2509 -0.7282
 2005TIP3    H227431   2.943   2.567   2.975  0.1115 -0.4120  1.4957
 2006TIP3   OH227432   6.372   1.705  14.597 -0.2365  0.2587  0.0361
 2006TIP3    H127433   6.349   1.634  14.538  1.2565 -1.9057  1.8708
 2006TIP3    H227434   6.441   1.752  14.552  1.1903 -1.6238  0.1309
 2007TIP3   OH227435   0.919   3.054   1.135  0.2721 -0.0178 -0.4373
 2007TIP3    H127436   0.848   3.028   1.193  2.3531 -1.6879  1.5434
 2007TIP3    H227437   0.878   3.115   1.073 -3.2594 -2.2620 -0.5879
 2008TIP3   OH227438   2.924   0.611   3.009  0.1110 -0.4685  0.0595
 2008TIP3    H127439   2.934   0.696   2.967  2.2893 -0.2035  0.9922
 2008TIP3    H227440   3.005   0.599   3.059 -2.2445 -0.7035  4.3337
 2009TIP3   OH227441   3.563   1.642  11.736  0.4191  0.8151 -0.6817
 2009TIP3    H127442   3.524   1.728  11.755 -1.1404  0.1569 -0.7789
 2009TIP3    H227443   3.542   1.626  11.644  0.7974  0.3723 -0.6908
 2010TIP3   OH227444   5.661   2.690  12.067 -0.4516  0.2994 -0.0729
 2010TIP3    H127445   5.736   2.632  12.079 -3.4806 -3.9327  0.8868
 2010TIP3    H227446   5.650   2.734  12.151 -0.8732 -1.6808  0.9789
 2011TIP3   OH227447   1.448   1.140  13.821 -0.6441 -0.0411 -0.4100
 2011TIP3    H127448   1.392   1.185  13.885  0.7421  1.5267 -0.2340
 2011TIP3    H227449   1.462   1.204  13.752  0.1532 -0.7472 -0.9197
 2012TIP3   OH227450   5.013   3.703   2.972  0.0925  0.4116 -0.1414
 2012TIP3    H127451   4.963   3.689   2.892 -0.0015 -1.1529  0.1620
 2012TIP3    H227452   5.095   3.744   2.942 -1.4403  3.4763 -0.5823
 2013TIP3   OH227453   6.124   1.486   3.236 -0.3722  0.2368 -0.3050
 2013TIP3    H127454   6.102   1.397   3.262  0.7047 -0.3326 -1.2169
 2013TIP3    H227455   6.152   1.529   3.317 -0.3813 -0.4310  0.0556
 2014TIP3   OH227456   1.988   4.262  12.904 -0.4319  0.6604  0.2333
 2014TIP3    H127457   1.927   4.199  12.864 -3.1070  2.8604  0.5201
 2014TIP3    H227458   1.990   4.238  12.996 -1.4529  0.9594  0.3460
 2015TIP3   OH227459   3.259   4.649  14.964 -0.2563  0.6723  0.1904
 2015TIP3    H127460   3.248   4.570  14.911 -1.0010 -0.6673  2.2397
 2015TIP3    H227461   3.223   4.719  14.910 -0.7845 -0.5882 -1.1614
 2016TIP3   OH227462   0.847   1.832   0.431  0.3414  0.4311 -0.0185
 2016TIP3    H127463   0.850   1.777   0.509 -0.8605  0.4814  0.0855
 2016TIP3    H227464   0.758   1.867   0.430 -0.4900 -1.4533 -2.7089
 2017TIP3   OH227465   1.051   1.394   3.840 -0.6629  0.2245  0.1243
 2017TIP3    H127466   1.137   1.381   3.880 -0.3660  2.0425  0.1696
 2017TIP3    H227467   1.005   1.453   3.900 -1.2212  0.8007 -0.8309
 2018TIP3   OH227468   1.050   6.194   0.746  0.0664 -0.1475  0.2617
 2018TIP3    H127469   1.113   6.189   0.673  1.9237  3.0718  1.4403
 2018TIP3    H227470   0.986   6.259   0.718  0.5211  0.7538  1.2384
 2019TIP3   OH227471   2.444   6.094  14.270 -0.0718  0.7972  0.0239
 2019TIP3    H127472   2.393   6.175  14.277 -0.3159  0.5790  0.9145
 2019TIP3    H227473   2.450   6.062  14.360 -1.8877 -1.3372 -0.5073
 2020TIP3   OH227474   6.294   6.042  15.513  0.2952 -0.0516 -0.3556
 2020TIP3    H127475   6.267   6.134  15.520 -3.7272 -1.0607 -0.0275
 2020TIP3    H227476   6.323   6.033  15.422 -0.7037  1.2409 -0.8458
 2021TIP3   OH227477   2.710   1.398   3.100 -0.0037 -0.1209  0.3452
 2021TIP3    H127478   2.767   1.469   3.132  1.3064 -0.9467 -0.0765
 2021TIP3    H227479   2.701   1.414   3.006 -1.7932  0.8823  0.6447
 2022TIP3   OH227480   5.175   2.971  12.463 -0.2844 -0.0720 -0.1151
 2022TIP3    H127481   5.126   2.933  12.536  0.6889  0.5204  0.8864
 2022TIP3    H227482   5.108   3.009  12.407 -1.1048 -1.1546  0.0922
 2023TIP3   OH227483   5.622   6.163  16.739  0.1326 -0.3418 -0.2509
 2023TIP3    H127484   5.546   6.156  16.681  0.3518  0.7553 -0.7102
 2023TIP3    H227485   5.682   6.221  16.692  1.3659 -1.3793 -0.0032
 2024TIP3   OH227486   2.490   2.443  13.346  0.0839  0.3169 -0.2210
 2024TIP3    H127487   2.480   2.367  13.404 -0.4402  1.4840  1.2860
 2024TIP3    H227488   2.504   2.405  13.259 -0.1389 -1.4970  0.4871
 2025TIP3   OH227489   2.985   0.805  16.795  0.0692 -0.2704  0.0336
 2025TIP3    H127490   3.002   0.746  16.868 -1.1062 -1.0347 -0.2894
 2025TIP3    H227491   3.036   0.884  16.816 -1.3063  0.0798  2.3750
 2026TIP3   OH227492   1.344   3.299   2.351  0.1031 -0.2231 -0.0186
 2026TIP3    H127493   1.439   3.298   2.362  0.3865  2.8970 -1.2348
 2026TIP3    H227494   1.331   3.300   2.257 -1.0166  1.7254  0.1236
 2027TIP3   OH227495   1.310   6.016  15.722  0.4598 -0.3087  0.3285
 2027TIP3    H127496   1.269   5.962  15.654 -0.2567  0.7873 -0.1467
 2027TIP3    H227497   1.366   6.077  15.673 -1.0476  1.3373  0.5833
 2028TIP3   OH227498   3.434   1.369  14.530  0.8390 -0.4953 -0.0502
 2028TIP3    H127499   3.414   1.461  14.547  2.4820  0.1333 -1.2953
 2028TIP3    H227500   3.359   1.337  14.482  1.3387  0.9505 -1.9176
 2029TIP3   OH227501   5.816   0.358  17.125  0.2135  0.1345 -0.2192
 2029TIP3    H127502   5.870   0.308  17.186  0.3963  0.9529  0.3059
 2029TIP3    H227503   5.839   0.449  17.141 -0.1110  0.3988 -1.1612
 2030TIP3   OH227504   2.531   5.658  12.981 -0.2973  0.2953  0.3152
 2030TIP3    H127505   2.547   5.704  12.899  0.5893  0.1719  0.4144
 2030TIP3    H227506   2.436   5.664  12.993 -0.4353  0.3593 -0.6872
 2031TIP3   OH227507   5.577   4.856  10.693 -0.0428  0.2918  0.4936
 2031TIP3    H127508   5.518   4.905  10.751 -2.6517 -0.2620 -1.4883
 2031TIP3    H227509   5.530   4.774  10.675  0.6445  0.3955 -2.2694
 2032TIP3   OH227510   3.881   1.475  11.533  0.1660 -0.2501 -0.1715
 2032TIP3    H127511   3.892   1.564  11.499  0.8351  0.3546  1.5050
 2032TIP3    H227512   3.840   1.427  11.462  0.2539  1.2746 -1.3056
 2033TIP3   OH227513   1.423   2.288  15.876 -0.6312  1.1112 -0.3920
 2033TIP3    H127514   1.452   2.367  15.830 -0.5628  1.0795 -0.4027
 2033TIP3    H227515   1.501   2.256  15.921  0.1337 -0.5880 -2.7153
 2034TIP3   OH227516   6.004   3.413   2.635  0.1511  0.6124  0.6758
 2034TIP3    H127517   6.036   3.389   2.722 -1.0482  0.6904  1.1607
 2034TIP3    H227518   5.987   3.507   2.640  1.3257  0.8879 -0.0714
 2035TIP3   OH227519   1.072   1.619  15.036  0.3746  0.9605  0.0176
 2035TIP3    H127520   1.077   1.685  14.966  2.3956 -0.2395 -1.0638
 2035TIP3    H227521   1.160   1.620  15.075  0.1383 -0.4212  0.6247
 2036TIP3   OH227522   6.522   5.255   2.416  0.5743 -0.0222 -0.0066
 2036TIP3    H127523   6.549   5.273   2.506 -0.2028  2.4444 -0.1997
 2036TIP3    H227524   6.434   5.216   2.426 -0.0508  1.4088  0.2978
 2037TIP3   OH227525   2.567   3.030   1.770  0.2988  0.7032  0.0234
 2037TIP3    H127526   2.624   2.978   1.827 -1.3832  1.0586  2.1434
 2037TIP3    H227527   2.513   2.966   1.724 -0.3325  0.4645  1.0628
 2038TIP3   OH227528   2.998   2.460  16.424 -0.5415 -0.2629  0.0062
 2038TIP3    H127529   2.980   2.549  16.455  0.3859  0.4034 -1.2828
 2038TIP3    H227530   2.911   2.419  16.417 -1.0557  0.8209 -0.1666
 2039TIP3   OH227531   3.658   4.625  10.462 -0.3003 -0.1421  0.2385
 2039TIP3    H127532   3.618   4.658  10.542 -0.6516  0.3369 -0.1261
 2039TIP3    H227533   3.739   4.677  10.453 -0.4012 -0.0026  0.1366
 2040TIP3   OH227534   3.668   1.756  15.842  0.3116 -0.2468 -0.4627
 2040TIP3    H127535   3.651   1.840  15.885 -0.8987 -0.7466  0.0823
 2040TIP3    H227536   3.675   1.778  15.749 -2.7517  0.1836 -0.7164
 2041TIP3   OH227537   0.481   2.665  12.924 -0.4151  0.5768  0.0106
 2041TIP3    H127538   0.461   2.622  12.840 -0.0019 -0.6235  0.4950
 2041TIP3    H227539   0.525   2.746  12.900  0.0244  0.0736 -0.9381
 2042TIP3   OH227540   4.567   5.341   3.961 -0.3946  0.5544  0.6400
 2042TIP3    H127541   4.567   5.436   3.967  1.6150  0.7555 -1.1037
 2042TIP3    H227542   4.584   5.323   3.869 -2.7396 -1.5583  0.5225
 2043TIP3   OH227543   1.632   3.750   5.772 -0.3110 -0.4154  0.0224
 2043TIP3    H127544   1.584   3.833   5.773 -0.8279 -0.6517  2.6863
 2043TIP3    H227545   1.574   3.689   5.726 -1.2446  0.0357  0.5606
 2044TIP3   OH227546   4.666   0.865  12.459 -0.5501 -0.5218  0.1039
 2044TIP3    H127547   4.689   0.772  12.453  1.6280 -0.0794  0.7476
 2044TIP3    H227548   4.572   0.867  12.443 -0.5861 -2.7874 -0.3504
 2045TIP3   OH227549   2.576   5.108   5.101 -0.3028 -0.0810 -0.1243
 2045TIP3    H127550   2.631   5.030   5.093  0.4330  0.5042 -1.0918
 2045TIP3    H227551   2.572   5.144   5.012 -1.0873  0.6781  0.1956
 2046TIP3   OH227552   4.671   4.454  11.778 -0.4585  0.0683 -0.3395
 2046TIP3    H127553   4.731   4.476  11.849 -0.4367 -0.3707 -0.2173
 2046TIP3    H227554   4.590   4.500  11.800 -0.0389  1.0165 -0.7367
 2047TIP3   OH227555   5.130   5.498  15.591 -0.1719 -0.1234  0.4288
 2047TIP3    H127556   5.173   5.583  15.600 -0.6850  0.0965  0.8257
 2047TIP3    H227557   5.064   5.497  15.660 -0.5336 -0.6236  0.0806
 2048TIP3   OH227558   5.062   0.725  14.399  0.1183 -0.2614  0.1562
 2048TIP3    H127559   5.154   0.746  14.409  0.2465 -0.7683  0.0794
 2048TIP3    H227560   5.061   0.634  14.369 -0.4073 -0.2961  0.2618
 2049TIP3   OH227561   5.817   2.545  15.668 -0.4237 -0.0619  0.0429
 2049TIP3    H127562   5.858   2.600  15.735  0.2464 -1.8356  1.1712
 2049TIP3    H227563   5.800   2.462  15.712 -4.0890  0.1060 -0.7615
 2050TIP3   OH227564   6.333   3.424  16.876  0.3911 -0.3028 -0.3600
 2050TIP3    H127565   6.392   3.380  16.814  0.6854  0.9059 -0.9638
 2050TIP3    H227566   6.384   3.433  16.956  0.4903 -0.6232 -0.3844
 2051TIP3   OH227567   5.695   3.252  16.323 -0.2565  0.5695 -0.0636
 2051TIP3    H127568   5.713   3.196  16.398  1.5155 -0.7014 -1.3585
 2051TIP3    H227569   5.734   3.337  16.347  0.9371 -0.0276  0.1908
 2052TIP3   OH227570   6.501   2.580   2.971 -0.0169 -0.2220  0.5591
 2052TIP3    H127571   6.543   2.620   3.047  0.8496  1.1445 -0.5855
 2052TIP3    H227572   6.513   2.486   2.984  0.8541  0.0285  1.7094
 2053TIP3   OH227573   1.308   3.388  13.555  0.1839  0.0692  0.0977
 2053TIP3    H127574   1.378   3.452  13.548  0.1285  0.0693 -0.6226
 2053TIP3    H227575   1.244   3.427  13.615  0.1523  0.6875 -0.3310
 2054TIP3   OH227576   5.434   2.691  10.868 -0.4331 -0.2593 -0.3026
 2054TIP3    H127577   5.512   2.730  10.828 -1.1976 -2.9356 -5.2564
 2054TIP3    H227578   5.370   2.762  10.871  0.5980  0.7506 -1.3639
 2055TIP3   OH227579   6.655   4.609  11.795 -0.5519 -0.0710 -0.0758
 2055TIP3    H127580   6.593   4.682  11.804 -0.1312  0.0800  2.0316
 2055TIP3    H227581   6.600   4.532  11.784 -1.1581  0.0566  1.8028
 2056TIP3   OH227582   1.729   0.056   5.537 -0.1750 -0.2952  0.0705
 2056TIP3    H127583   1.732   0.016   5.450  0.9723  1.1821 -0.6065
 2056TIP3    H227584   1.638   0.085   5.547 -0.5052 -1.1674 -0.2875
 2057TIP3   OH227585   4.253   3.995   1.471 -0.0151 -0.2467  0.3098
 2057TIP3    H127586   4.265   4.083   1.436 -2.0192 -0.2101 -0.4133
 2057TIP3    H227587   4.294   3.937   1.407 -0.1775  0.0633 -0.0787
 2058TIP3   OH227588   0.090   5.960  16.194 -0.0755  0.3869  0.2994
 2058TIP3    H127589   0.166   6.005  16.230  0.2069  0.5574 -0.4809
 2058TIP3    H227590   0.117   5.936  16.105 -0.5075 -0.6205  0.4347
 2059TIP3   OH227591   3.960   3.636  12.607  0.0534 -0.0735  0.0990
 2059TIP3    H127592   4.006   3.719  12.624  0.4560 -0.3180  0.2158
 2059TIP3    H227593   4.028   3.577  12.574  0.1205 -0.8519  1.5390
 2060TIP3   OH227594   2.283   1.266   0.334  0.0446  0.5117 -0.1499
 2060TIP3    H127595   2.217   1.206   0.368 -0.5337  1.7107  0.9524
 2060TIP3    H227596   2.233   1.336   0.292  0.6609  0.7732 -0.4616
 2061TIP3   OH227597   2.217   1.675  15.344 -0.1657  0.7392 -0.5356
 2061TIP3    H127598   2.152   1.655  15.276  0.1348 -0.9279 -0.3814
 2061TIP3    H227599   2.279   1.733  15.300 -1.5564  2.1250 -0.7729
 2062TIP3   OH227600   1.162   3.348   4.181 -0.3325  0.0586 -0.0972
 2062TIP3    H127601   1.165   3.426   4.126 -1.8265  0.1306 -0.1271
 2062TIP3    H227602   1.211   3.372   4.260  0.7071  0.4052 -0.8355
 2063TIP3   OH227603   0.914   0.543   6.608 -0.0635  0.1159 -0.1483
 2063TIP3    H127604   0.834   0.529   6.556  0.7747 -0.0926 -1.4101
 2063TIP3    H227605   0.917   0.638   6.622 -0.8539  0.0639  0.4604
 2064TIP3   OH227606   5.326   1.174   6.100  0.4129  0.4061  0.2512
 2064TIP3    H127607   5.417   1.182   6.073  0.6752 -0.1919  0.9071
 2064TIP3    H227608   5.276   1.222   6.034  1.2088  0.8142 -0.0631
 2065TIP3   OH227609   2.433   5.808   3.775 -0.1880 -0.1682  0.4393
 2065TIP3    H127610   2.352   5.791   3.726 -0.4078 -2.3562  1.4823
 2065TIP3    H227611   2.403   5.842   3.859 -0.0701 -1.5012  1.0319
 2066TIP3   OH227612   3.321   5.940  16.448  0.3167 -0.1483 -0.1063
 2066TIP3    H127613   3.290   5.865  16.398  0.0896 -0.3094  0.2703
 2066TIP3    H227614   3.333   6.009  16.383  0.1830 -0.4033 -0.4049
 2067TIP3   OH227615   5.402   1.598  14.309  0.6382  0.6066  0.0332
 2067TIP3    H127616   5.423   1.602  14.215  1.0062  0.5756  0.1166
 2067TIP3    H227617   5.358   1.682  14.326 -1.4474 -0.2718 -0.6575
 2068TIP3   OH227618   6.267   1.437   5.472 -0.1475 -0.2210  0.7684
 2068TIP3    H127619   6.228   1.433   5.385  0.0445  0.5729  0.6362
 2068TIP3    H227620   6.262   1.530   5.496 -0.2556 -0.4393  1.6308
 2069TIP3   OH227621   3.032   2.256  15.154 -0.1656 -0.2908  0.2454
 2069TIP3    H127622   3.098   2.325  15.159  1.2671 -1.6737  0.8836
 2069TIP3    H227623   3.081   2.175  15.141 -1.8965 -1.0074 -2.8118
 2070TIP3   OH227624   0.997   2.098   1.511  0.1459 -0.5664 -0.1656
 2070TIP3    H127625   1.007   2.029   1.576 -2.1686 -1.8945 -1.0942
 2070TIP3    H227626   1.066   2.080   1.447 -0.1226 -1.7621 -0.1498
 2071TIP3   OH227627   4.116   6.048  13.629  0.0308 -0.1490  0.2078
 2071TIP3    H127628   4.187   6.006  13.677  0.8777  1.1340  0.1510
 2071TIP3    H227629   4.118   6.139  13.659  0.0510  0.5022 -1.6201
 2072TIP3   OH227630   0.686   5.201   0.029 -0.3134  0.0862  0.3073
 2072TIP3    H127631   0.663   5.133  -0.034  1.5836  0.0597 -0.4207
 2072TIP3    H227632   0.672   5.283  -0.018  0.2025  0.0950  0.1634
 2073TIP3   OH227633   4.647   2.101  12.510 -0.1384 -0.2426  0.5964
 2073TIP3    H127634   4.695   2.073  12.431  0.5441  0.1835  0.8498
 2073TIP3    H227635   4.664   2.195  12.516 -0.0834 -0.2943  1.3165
 2074TIP3   OH227636   0.155   5.528   6.018  0.4116 -0.1729  0.2827
 2074TIP3    H127637   0.108   5.605   6.051 -1.1158 -1.2543  0.7736
 2074TIP3    H227638   0.244   5.558   6.003 -0.4515  2.0314 -0.8261
 2075TIP3   OH227639   2.500   1.127   6.725  0.3792  0.0128  0.1622
 2075TIP3    H127640   2.447   1.056   6.760 -0.5823 -0.7301 -2.4960
 2075TIP3    H227641   2.526   1.179   6.801 -2.8340 -0.5138  1.7798
 2076TIP3   OH227642   2.542   1.451  14.157  0.7979  0.2509  0.4080
 2076TIP3    H127643   2.460   1.451  14.207  1.7178  1.3184  2.0165
 2076TIP3    H227644   2.530   1.384  14.091 -1.4552  0.5167  0.4710
 2077TIP3   OH227645   6.512   2.004  16.628  0.3713  0.4478 -0.5177
 2077TIP3    H127646   6.490   2.096  16.614  0.2430  0.6116  0.6926
 2077TIP3    H227647   6.608   2.003  16.631  0.3694  1.0118  2.1746
 2078TIP3   OH227648   3.405   1.777  17.213  0.5592  0.8233  0.5598
 2078TIP3    H127649   3.467   1.737  17.274  0.2563  0.2704  0.5100
 2078TIP3    H227650   3.332   1.804  17.269 -0.1931 -0.6316  0.3276
 2079TIP3   OH227651   2.062   3.232  14.921 -0.1255 -0.0884 -0.6542
 2079TIP3    H127652   2.099   3.199  15.003 -1.3433  0.1312 -0.0017
 2079TIP3    H227653   2.068   3.158  14.860 -0.4653 -0.6859  0.0299
 2080TIP3   OH227654   0.288   2.631  16.098  0.8129 -0.0300 -0.2864
 2080TIP3    H127655   0.331   2.583  16.028  0.6256  0.3052 -0.6312
 2080TIP3    H227656   0.358   2.675  16.145  1.0256 -0.8935  0.2375
 2081TIP3   OH227657   3.141   2.440   1.509  0.3536 -0.7845 -0.3885
 2081TIP3    H127658   3.220   2.443   1.456  0.2689  0.1230 -0.4779
 2081TIP3    H227659   3.097   2.523   1.492 -0.9406 -1.5289 -0.8209
 2082TIP3   OH227660   6.156   0.156  14.301 -0.4102  0.6253  0.0240
 2082TIP3    H127661   6.191   0.186  14.385  0.4313 -2.0864  0.7618
 2082TIP3    H227662   6.223   0.181  14.238  1.0284 -0.9756  0.8409
 2083TIP3   OH227663   3.186   1.415   6.171  0.1831 -0.6722 -0.0821
 2083TIP3    H127664   3.096   1.404   6.140  0.6731 -1.5743 -1.2659
 2083TIP3    H227665   3.183   1.384   6.262 -0.4394 -1.9786 -0.5211
 2084TIP3   OH227666   4.603   1.341  15.756  0.5974 -0.0343 -0.0794
 2084TIP3    H127667   4.636   1.384  15.835  1.0352  0.2090 -0.3908
 2084TIP3    H227668   4.541   1.403  15.719  1.5996  0.5645 -0.7991
 2085TIP3   OH227669   2.901   0.656   6.246  0.1725 -0.1649  0.7398
 2085TIP3    H127670   2.855   0.659   6.329 -2.0343 -1.0697 -0.3711
 2085TIP3    H227671   2.835   0.630   6.182  1.5959  1.2096 -1.4544
 2086TIP3   OH227672   3.504   3.424   4.656 -0.1927 -0.0571  0.5441
 2086TIP3    H127673   3.483   3.474   4.735  0.1529 -1.6812  1.7237
 2086TIP3    H227674   3.595   3.395   4.669  0.7181  1.6132 -1.5740
 2087TIP3   OH227675   3.448   3.788  13.270 -0.1528  1.1012  0.6317
 2087TIP3    H127676   3.417   3.879  13.265  0.0564  1.1435  0.0192
 2087TIP3    H227677   3.368   3.736  13.268 -0.2082  1.1192 -3.0140
 2088TIP3   OH227678   3.853   4.576   5.356  0.0164 -0.7453 -0.0733
 2088TIP3    H127679   3.932   4.525   5.339  0.4455 -0.1986  0.2560
 2088TIP3    H227680   3.885   4.661   5.387 -0.7021 -0.7699  0.7789
 2089TIP3   OH227681   3.380   4.394  17.250 -0.2038 -0.0589 -0.0695
 2089TIP3    H127682   3.406   4.315  17.298  0.1209  0.2085  0.1958
 2089TIP3    H227683   3.284   4.390  17.247 -0.1539 -0.9733 -0.9234
 2090TIP3   OH227684   2.525   2.918   1.488 -0.0136 -0.6046 -0.3483
 2090TIP3    H127685   2.448   2.877   1.527  1.1695 -2.2644  0.3503
 2090TIP3    H227686   2.491   2.970   1.416 -1.8824 -0.4146  0.6138
 2091TIP3   OH227687   2.363   5.142  12.294  0.2579 -0.3508 -0.2950
 2091TIP3    H127688   2.308   5.073  12.332  0.9198 -1.1685 -0.7945
 2091TIP3    H227689   2.312   5.222  12.305 -0.5233 -0.9179  0.2985
 2092TIP3   OH227690   1.203   3.299  13.039  0.1278  0.3182  0.3135
 2092TIP3    H127691   1.189   3.349  12.959  1.9090  0.6482  0.1512
 2092TIP3    H227692   1.290   3.259  13.027  0.6024  0.6783  2.2000
 2093TIP3   OH227693   2.811   3.408  11.927  0.0806  0.0474  0.5125
 2093TIP3    H127694   2.901   3.380  11.944 -0.3515  0.1754  3.6677
 2093TIP3    H227695   2.820   3.493  11.884  1.3791 -1.1491 -1.8128
 2094TIP3   OH227696   4.218   1.005  14.933  0.2019 -0.5160  0.2363
 2094TIP3    H127697   4.257   0.961  15.009  0.2221  2.4435  2.0942
 2094TIP3    H227698   4.128   0.974  14.932  0.5123 -1.4869  0.7356
 2095TIP3   OH227699   3.755   2.096  11.469 -0.1506 -0.4061  0.4118
 2095TIP3    H127700   3.843   2.120  11.496  0.4865 -2.0449 -0.0845
 2095TIP3    H227701   3.728   2.166  11.410  1.0474 -0.1565  0.1421
 2096TIP3   OH227702   1.746   0.276   4.228 -0.1090 -0.5817 -0.4077
 2096TIP3    H127703   1.695   0.356   4.217  1.1603  0.4296  0.7017
 2096TIP3    H227704   1.834   0.306   4.247  1.2522 -2.2696 -3.4439
 2097TIP3   OH227705   2.461   1.007  13.640 -0.0244 -0.1708  0.4715
 2097TIP3    H127706   2.388   0.999  13.578  0.1402 -1.6256  0.4302
 2097TIP3    H227707   2.426   0.973  13.722  0.3779 -0.1343  0.6578
 2098TIP3   OH227708   2.025   0.729   1.428  0.1721 -0.1899  0.5623
 2098TIP3    H127709   2.090   0.760   1.365  0.1118 -2.4648 -0.7600
 2098TIP3    H227710   2.045   0.775   1.509  2.2181  0.5766 -0.3155
 2099TIP3   OH227711   3.778   6.459  15.809  0.5484  0.6797  0.4523
 2099TIP3    H127712   3.799   6.550  15.789  0.7251  1.0273  2.1100
 2099TIP3    H227713   3.701   6.439  15.755  0.2948  1.9131  0.3357
 2100TIP3   OH227714   1.048   4.015  16.317 -0.0239  0.3322 -0.6217
 2100TIP3    H127715   1.059   3.970  16.233  0.3117 -1.5460  0.3861
 2100TIP3    H227716   1.131   4.003  16.363  0.5345  3.0543 -0.7311
 2101TIP3   OH227717   4.990   4.858   5.027 -0.6074  0.1396  0.6140
 2101TIP3    H127718   5.041   4.932   4.993  0.6929 -0.6922  0.6941
 2101TIP3    H227719   4.907   4.863   4.979  0.6974 -0.2943 -1.8767
 2102TIP3   OH227720   6.594   1.002  12.862 -0.3455  0.2055  0.1482
 2102TIP3    H127721   6.543   1.024  12.784 -0.7351  0.9495  0.6026
 2102TIP3    H227722   6.660   1.072  12.868  2.8342 -2.2848 -2.1698
 2103TIP3   OH227723   3.536   4.737  17.119  0.1633 -0.3064  0.1934
 2103TIP3    H127724   3.607   4.678  17.144  0.0355 -0.3378  0.4747
 2103TIP3    H227725   3.559   4.764  17.029  0.6644 -0.1162  0.3738
 2104TIP3   OH227726   1.152   5.626   3.605 -0.2103  0.1793  0.1663
 2104TIP3    H127727   1.180   5.708   3.646 -2.6726  1.7390 -1.0915
 2104TIP3    H227728   1.075   5.649   3.554 -0.4949 -2.7860 -0.9314
 2105TIP3   OH227729   4.347   4.228   2.438 -0.2430 -0.1126 -0.4477
 2105TIP3    H127730   4.407   4.301   2.423 -0.7929  0.4457  0.0080
 2105TIP3    H227731   4.290   4.228   2.362 -0.5121  0.2114 -0.2511
 2106TIP3   OH227732   2.466   2.113   5.713  0.3054  0.5564 -0.0862
 2106TIP3    H127733   2.535   2.105   5.648 -0.6568 -1.2214 -0.9609
 2106TIP3    H227734   2.393   2.154   5.666 -0.0292  0.2497  0.1590
 2107TIP3   OH227735   1.708   5.048   2.167 -0.0991  0.1325 -0.6410
 2107TIP3    H127736   1.749   5.098   2.237 -2.6205  0.4624  0.7383
 2107TIP3    H227737   1.738   5.089   2.086  1.3554  1.0026  0.3067
 2108TIP3   OH227738   4.709   4.198   1.363  0.0824  0.6044 -0.1152
 2108TIP3    H127739   4.629   4.164   1.321  0.3621 -0.7022  0.3589
 2108TIP3    H227740   4.762   4.120   1.379  0.6325  1.2480  1.3028
 2109TIP3   OH227741   6.252   4.984   5.710 -0.3819  0.3903 -0.4822
 2109TIP3    H127742   6.164   5.008   5.679 -0.9962  1.8987  2.1204
 2109TIP3    H227743   6.295   5.068   5.726  1.3274 -0.3376 -1.0425
 2110TIP3   OH227744   5.947   3.618  17.285 -0.9289  0.4892 -0.4674
 2110TIP3    H127745   5.980   3.580  17.204 -0.0598  0.8185 -0.2827
 2110TIP3    H227746   5.995   3.700  17.294 -1.0661  0.4916  0.3446
 2111TIP3   OH227747   3.895   4.494  13.762 -0.1056  0.3631 -0.3107
 2111TIP3    H127748   3.814   4.448  13.739  0.2273  0.6683 -2.2751
 2111TIP3    H227749   3.891   4.576  13.713  1.0813  0.6929  0.1112
 2112TIP3   OH227750   0.121   5.560  12.652  0.6242  0.0955 -0.5217
 2112TIP3    H127751   0.167   5.581  12.572  1.3597 -0.1786 -0.1804
 2112TIP3    H227752   0.190   5.546  12.717  0.0218  1.2192  0.3972
 2113TIP3   OH227753   2.070   3.470   3.787 -0.4748  0.5969  0.2883
 2113TIP3    H127754   2.019   3.439   3.862 -1.7328 -1.2564 -1.2206
 2113TIP3    H227755   2.142   3.407   3.780 -1.0296  0.0600 -0.7251
 2114TIP3   OH227756   2.727   5.699  11.713  0.1144 -0.1661 -0.1844
 2114TIP3    H127757   2.736   5.728  11.804 -1.1528 -1.4996  0.4016
 2114TIP3    H227758   2.816   5.683  11.684  0.4365 -1.8454  1.5583
 2115TIP3   OH227759   5.984   2.756  12.617 -0.0685  0.2730 -0.0295
 2115TIP3    H127760   6.041   2.828  12.642  3.9477 -2.3675 -0.7530
 2115TIP3    H227761   5.986   2.697  12.693  1.5846 -1.7286 -1.5364
 2116TIP3   OH227762   4.183   0.414  15.485 -0.4244 -0.4381 -0.4688
 2116TIP3    H127763   4.248   0.481  15.506  1.5874 -2.1737 -0.8419
 2116TIP3    H227764   4.121   0.459  15.427  1.3256  0.9097 -1.4012
 2117TIP3   OH227765   0.590   4.357   4.193 -0.1259  0.4393 -0.4394
 2117TIP3    H127766   0.598   4.445   4.157 -0.6947  0.4470 -0.5629
 2117TIP3    H227767   0.666   4.347   4.250 -0.5886  1.3947  0.3761
 2118TIP3   OH227768   0.093   3.870   2.296 -0.1009  0.2752  0.3915
 2118TIP3    H127769   0.183   3.900   2.287  0.4146 -1.4771 -0.9744
 2118TIP3    H227770   0.040   3.948   2.279  1.1703  0.8190 -1.3935
 2119TIP3   OH227771   3.890   2.045   0.100  0.1740  0.0288 -0.1372
 2119TIP3    H127772   3.969   2.051   0.046 -0.2688  0.4777 -0.7507
 2119TIP3    H227773   3.876   1.951   0.111 -0.9618 -0.1716 -2.6730
 2120TIP3   OH227774   4.205   2.828   3.072  0.2893  0.0731 -0.8001
 2120TIP3    H127775   4.113   2.854   3.081 -0.0625 -0.2814 -2.9198
 2120TIP3    H227776   4.226   2.846   2.981  3.2242  2.8109  0.2379
 2121TIP3   OH227777   3.107   6.540   0.153 -0.1569 -0.3303 -0.1648
 2121TIP3    H127778   3.147   6.553   0.067  0.9531  0.7410  0.4691
 2121TIP3    H227779   3.014   6.556   0.140  0.0095 -0.1400 -1.1512
 2122TIP3   OH227780   1.727   0.072   2.118  0.1537 -0.4116  1.0876
 2122TIP3    H127781   1.792   0.090   2.187 -0.1830  1.5946  0.9283
 2122TIP3    H227782   1.662   0.141   2.129 -1.6043 -1.9670  0.7765
 2123TIP3   OH227783   0.606   4.407  14.863 -0.0007  0.8664 -0.7417
 2123TIP3    H127784   0.541   4.422  14.794  1.7226  0.3165 -2.5686
 2123TIP3    H227785   0.675   4.472  14.846 -0.3604  2.0140  1.6677
 2124TIP3   OH227786   5.761   0.338   1.840 -0.5460  0.7296 -0.1567
 2124TIP3    H127787   5.777   0.288   1.760 -1.2656  0.7929 -0.3511
 2124TIP3    H227788   5.666   0.342   1.847 -0.5283 -0.7572  1.6574
 2125TIP3   OH227789   0.750   1.037  14.722 -0.2413  0.5499  0.1248
 2125TIP3    H127790   0.783   1.054  14.811 -1.0203  1.3741  0.2743
 2125TIP3    H227791   0.709   1.119  14.696  0.3999  0.4698 -1.2063
 2126TIP3   OH227792   5.572   4.799   5.968 -0.1482  0.7109  0.0348
 2126TIP3    H127793   5.632   4.844   6.027 -0.3517  1.2231 -0.1424
 2126TIP3    H227794   5.629   4.758   5.902  0.0663  0.2703  0.4899
 2127TIP3   OH227795   6.045   6.110  14.053  0.2351 -0.5918 -0.6126
 2127TIP3    H127796   6.117   6.155  14.096 -0.2543  0.1120 -0.5191
 2127TIP3    H227797   5.987   6.082  14.124  1.0346 -2.2946 -0.5831
 2128TIP3   OH227798   6.442   0.684  14.940  0.2063 -0.2977  0.4049
 2128TIP3    H127799   6.370   0.683  15.003  2.0884  0.0132  2.6946
 2128TIP3    H227800   6.424   0.759  14.884 -0.7100  0.4289  1.6133
 2129TIP3   OH227801   5.404   2.743  16.209  0.2226  0.1326  0.6371
 2129TIP3    H127802   5.490   2.766  16.176 -0.1512 -0.7559 -1.0756
 2129TIP3    H227803   5.361   2.699  16.136 -1.6091  0.3498  1.5141
 2130TIP3   OH227804   5.580   3.840   5.763  0.2705  0.1616 -0.1276
 2130TIP3    H127805   5.628   3.821   5.844 -0.1059 -0.8878 -0.1409
 2130TIP3    H227806   5.502   3.887   5.792 -2.1169 -3.7897  0.7191
 2131TIP3   OH227807   4.793   1.479  15.001 -0.3641 -0.1543  0.4082
 2131TIP3    H127808   4.842   1.473  14.919 -1.0868  2.0390 -0.2667
 2131TIP3    H227809   4.725   1.412  14.993  0.2785 -0.7475 -0.2539
 2132TIP3   OH227810   6.206   1.114  12.629  0.1238  0.6264  0.0697
 2132TIP3    H127811   6.175   1.134  12.717 -0.2032  0.3549  0.0167
 2132TIP3    H227812   6.168   1.183  12.574  0.0947  0.6299  0.0947
 2133TIP3   OH227813   3.163   1.157   4.693 -0.9951 -0.1976  0.2897
 2133TIP3    H127814   3.209   1.233   4.659 -1.5735  0.2830  0.5546
 2133TIP3    H227815   3.127   1.114   4.616  0.2093 -0.8004  0.0451
 2134TIP3   OH227816   0.474   0.121  13.207  0.3744 -0.1627  0.2669
 2134TIP3    H127817   0.562   0.087  13.189  0.5769 -0.3582  1.5280
 2134TIP3    H227818   0.489   0.210  13.240 -0.1475  1.2330 -2.9176
 2135TIP3   OH227819   0.634   4.431  16.519  0.2245  0.3805 -0.0078
 2135TIP3    H127820   0.621   4.340  16.544  1.7932  0.1631  0.0868
 2135TIP3    H227821   0.564   4.448  16.455  0.8742 -1.3888 -1.2709
 2136TIP3   OH227822   1.436   6.546  14.452 -0.0051  0.1243  0.7113
 2136TIP3    H127823   1.408   6.470  14.400 -0.4635  0.0186  1.1020
 2136TIP3    H227824   1.511   6.581  14.405 -0.5667  0.1903 -0.1715
 2137TIP3   OH227825   3.851   5.395  12.014 -0.0786  0.3079 -0.1394
 2137TIP3    H127826   3.930   5.448  12.000 -0.0280  0.2421 -0.1045
 2137TIP3    H227827   3.882   5.320  12.065 -0.0318 -0.0671 -0.7101
 2138TIP3   OH227828   0.766   1.079  16.220 -0.3009  0.1604 -0.4049
 2138TIP3    H127829   0.749   1.103  16.129 -0.4174  1.7694 -0.0029
 2138TIP3    H227830   0.820   1.151  16.254 -2.3403  0.9481  1.4562
 2139TIP3   OH227831   1.235   0.921   1.085  0.1178 -0.0897 -0.0639
 2139TIP3    H127832   1.196   0.968   1.011 -0.3424 -0.2541  0.0703
 2139TIP3    H227833   1.312   0.878   1.047 -0.5255 -0.7755 -0.6287
 2140TIP3   OH227834   3.313   3.602  12.451 -0.9507  0.0261  0.7191
 2140TIP3    H127835   3.245   3.634  12.511 -1.7027 -1.1938  0.5712
 2140TIP3    H227836   3.274   3.524  12.412  1.1387 -1.7175  1.8818
 2141TIP3   OH227837   3.451   3.211  14.659  0.4526  0.2916  0.4865
 2141TIP3    H127838   3.453   3.307  14.657 -0.0170  0.2859 -0.8721
 2141TIP3    H227839   3.540   3.185  14.633  0.1505  0.3621 -0.6548
 2142TIP3   OH227840   5.518   6.219   4.973 -0.5431  0.0658  0.4930
 2142TIP3    H127841   5.464   6.146   4.942  0.3578 -0.1761 -0.5892
 2142TIP3    H227842   5.523   6.207   5.067 -0.3924 -1.3012  0.3272
 2143TIP3   OH227843   0.612   2.655  15.408  0.1505  0.1601  0.0022
 2143TIP3    H127844   0.633   2.673  15.317 -1.2863 -0.8150 -0.5496
 2143TIP3    H227845   0.692   2.676  15.456  0.9554  0.5774 -1.4872
 2144TIP3   OH227846   6.258   0.108   2.830 -0.9225 -0.1721  0.0304
 2144TIP3    H127847   6.247   0.052   2.753  0.4513 -1.7489  0.9151
 2144TIP3    H227848   6.265   0.197   2.794 -0.1762 -0.8732 -1.6764
 2145TIP3   OH227849   2.177   6.552  15.554 -0.0695 -0.0159 -0.1179
 2145TIP3    H127850   2.196   6.637  15.594  1.1376 -0.5060  0.3996
 2145TIP3    H227851   2.204   6.562  15.463  1.2062 -0.2047  0.2312
 2146TIP3   OH227852   3.697   3.829   5.625  0.5809 -0.0116  0.5384
 2146TIP3    H127853   3.611   3.824   5.666  0.4666 -1.2641  0.1821
 2146TIP3    H227854   3.717   3.739   5.599  1.6788  0.3776 -0.0448
 2147TIP3   OH227855   5.138   3.229  11.336  0.0885  0.0031 -0.1446
 2147TIP3    H127856   5.221   3.275  11.347 -1.1449  2.3887 -0.0039
 2147TIP3    H227857   5.118   3.238  11.243 -0.8133  1.0498  0.1248
 2148TIP3   OH227858   4.363   4.428   6.591 -0.7854  0.1733  0.5942
 2148TIP3    H127859   4.418   4.453   6.516 -2.3595  1.4025 -0.2226
 2148TIP3    H227860   4.295   4.373   6.552 -0.9194 -0.1936  1.3417
 2149TIP3   OH227861   5.603   1.641  13.068 -0.9644 -0.2105 -0.4789
 2149TIP3    H127862   5.644   1.653  12.982 -1.6557 -0.0790 -0.8026
 2149TIP3    H227863   5.675   1.642  13.130 -0.2859 -1.6606 -1.1736
 2150TIP3   OH227864   2.989   5.134   4.189  0.0016 -0.2004  0.2848
 2150TIP3    H127865   2.987   5.229   4.176  0.4811 -0.1180  0.7960
 2150TIP3    H227866   3.074   5.107   4.155  0.8339 -0.1276  2.1683
 2151TIP3   OH227867   4.431   2.424  15.298  0.3305  0.3743 -0.2176
 2151TIP3    H127868   4.486   2.385  15.230 -0.2044  0.2302 -0.5749
 2151TIP3    H227869   4.366   2.475  15.250 -0.2046  0.0706  0.1725
 2152TIP3   OH227870   4.620   5.248   4.991 -0.0378 -0.4164 -0.7898
 2152TIP3    H127871   4.548   5.191   5.017  0.5156 -1.5195 -1.5833
 2152TIP3    H227872   4.581   5.311   4.931 -0.6485  0.0415  0.0675
 2153TIP3   OH227873   3.636   3.232   2.181  0.5925 -0.2091  0.5763
 2153TIP3    H127874   3.611   3.140   2.170 -0.4263  0.1614 -0.3747
 2153TIP3    H227875   3.728   3.235   2.156  0.4226 -0.8369 -0.1580
 2154TIP3   OH227876   2.821   3.038  15.811 -0.2102 -0.5020  0.1642
 2154TIP3    H127877   2.737   3.048  15.767 -1.4410 -2.3139  1.8847
 2154TIP3    H227878   2.869   2.975  15.758  0.7219  1.5683 -1.5872
 2155TIP3   OH227879   3.726   1.045  15.427 -0.0276 -0.1312  0.7249
 2155TIP3    H127880   3.647   1.063  15.377  0.7141  0.0272 -0.4246
 2155TIP3    H227881   3.722   1.104  15.502 -0.4114  0.7400  0.0321
 2156TIP3   OH227882   2.212   3.043   5.651 -0.0509  0.9478 -0.1621
 2156TIP3    H127883   2.160   3.033   5.571  1.3686  3.4096 -1.5157
 2156TIP3    H227884   2.230   3.137   5.656  2.0478  0.5228  1.6593
 2157TIP3   OH227885   1.494   5.839   3.991  0.1563  0.3667  0.3996
 2157TIP3    H127886   1.561   5.907   3.985  2.0468 -1.2646  1.4938
 2157TIP3    H227887   1.461   5.846   4.081  0.2670 -0.0488  0.4775
 2158TIP3   OH227888   0.827   3.665  11.093 -0.1274  0.0347 -0.4066
 2158TIP3    H127889   0.864   3.603  11.156  0.0877 -0.1721 -0.7304
 2158TIP3    H227890   0.850   3.629  11.007  2.0409  1.7306 -0.6368
 2159TIP3   OH227891   3.925   0.611   4.820  0.1280 -0.1977  0.0985
 2159TIP3    H127892   3.849   0.554   4.835  0.5710 -1.0418 -0.7587
 2159TIP3    H227893   4.000   0.552   4.826  0.6970  0.5570  0.5409
 2160TIP3   OH227894   0.202   1.341  15.850 -0.3658  0.3465 -0.4176
 2160TIP3    H127895   0.181   1.265  15.905 -0.0141  0.8281  0.3869
 2160TIP3    H227896   0.116   1.375  15.824 -0.5311 -0.0523 -0.4173
 2161TIP3   OH227897   1.490   6.746   4.235 -0.7172  0.1717 -0.2129
 2161TIP3    H127898   1.453   6.832   4.218 -2.5061 -0.4231  0.4607
 2161TIP3    H227899   1.473   6.730   4.328 -0.0289 -0.7483 -0.2253
 2162TIP3   OH227900   3.043   0.251   2.771 -0.1368  0.3416 -0.5890
 2162TIP3    H127901   3.108   0.225   2.705 -1.3279 -1.1940 -1.2033
 2162TIP3    H227902   2.959   0.245   2.726 -1.0858 -1.6902  1.2779
 2163TIP3   OH227903   2.634   3.857   2.660 -0.0482  0.2920 -0.1786
 2163TIP3    H127904   2.702   3.790   2.654 -1.2894 -0.9101 -1.2530
 2163TIP3    H227905   2.670   3.921   2.723  0.8426 -1.7397  1.4991
 2164TIP3   OH227906   4.196   0.690   0.363 -0.1230 -0.3076 -0.2715
 2164TIP3    H127907   4.257   0.617   0.362 -0.6619 -0.8075  1.1258
 2164TIP3    H227908   4.113   0.653   0.393 -0.7519  0.6290 -0.7748
 2165TIP3   OH227909   0.377   1.123   2.983  0.1768 -0.8190 -0.4098
 2165TIP3    H127910   0.374   1.027   2.988  0.2564 -0.7759  1.1537
 2165TIP3    H227911   0.452   1.147   3.038  0.3118  0.1315 -0.9987
 2166TIP3   OH227912   1.792   3.341   5.910  0.4074 -0.7969  0.4040
 2166TIP3    H127913   1.781   3.432   5.940  1.6998 -0.4674 -0.0680
 2166TIP3    H227914   1.720   3.294   5.951 -2.3872  1.0392 -1.9467
 2167TIP3   OH227915   5.382   4.393  10.511 -0.2142  0.7041 -0.5754
 2167TIP3    H127916   5.439   4.349  10.574 -0.2363 -1.1300 -1.7463
 2167TIP3    H227917   5.366   4.327  10.443 -2.8193  1.5303 -0.8719
 2168TIP3   OH227918   6.394   1.539   5.107 -0.0745  0.2121  0.0258
 2168TIP3    H127919   6.314   1.501   5.070 -0.2412 -0.0425  0.6350
 2168TIP3    H227920   6.462   1.520   5.042  0.0777 -2.0989  0.7656
 2169TIP3   OH227921   1.157   6.034   3.633  0.4305  0.2416 -0.0905
 2169TIP3    H127922   1.066   6.017   3.608  0.1577  1.3290  0.0974
 2169TIP3    H227923   1.176   6.120   3.597  0.6600  0.9998  1.7294
 2170TIP3   OH227924   5.993   2.016   4.087 -0.1086 -0.2413  0.0184
 2170TIP3    H127925   5.951   1.981   4.166 -1.3112  0.6670 -0.1958
 2170TIP3    H227926   5.954   1.966   4.015  1.1894 -1.2609 -0.0077
 2171TIP3   OH227927   5.066   4.433  14.254 -0.6230 -0.2710  0.1110
 2171TIP3    H127928   4.981   4.400  14.225  0.3171 -1.2042 -1.6843
 2171TIP3    H227929   5.127   4.362  14.237  0.5329  0.3497  1.4661
 2172TIP3   OH227930   4.998   1.322   2.104  0.6459  0.6493 -0.5316
 2172TIP3    H127931   5.083   1.365   2.115  1.0984  0.1963 -2.0474
 2172TIP3    H227932   4.986   1.272   2.185  1.9117  0.5716 -0.3625
 2173TIP3   OH227933   4.209   0.030  13.795 -0.7268  0.6070 -0.2066
 2173TIP3    H127934   4.288   0.064  13.753  0.4140  1.7499  2.6390
 2173TIP3    H227935   4.137   0.069  13.746  0.4610  0.8813 -1.8222
 2174TIP3   OH227936   4.862   2.076   0.696 -0.2695  0.3137 -0.0395
 2174TIP3    H127937   4.804   2.111   0.628 -0.2784  0.3302 -0.0233
 2174TIP3    H227938   4.804   2.030   0.756 -0.1603 -0.4931 -0.5365
 2175TIP3   OH227939   2.813   5.075  14.358 -0.0161  0.5743 -0.1868
 2175TIP3    H127940   2.853   5.044  14.277 -0.1111  1.4257 -0.5688
 2175TIP3    H227941   2.747   5.008  14.380  1.5933 -0.8641  0.4710
 2176TIP3   OH227942   6.175   0.424  17.185  0.3040 -0.2468  0.1815
 2176TIP3    H127943   6.201   0.503  17.139 -3.7605  0.6053 -1.1088
 2176TIP3    H227944   6.201   0.438  17.276  0.7593  1.9979 -0.2559
 2177TIP3   OH227945   3.080   2.800   4.859  0.5133 -0.5913 -0.0210
 2177TIP3    H127946   3.009   2.773   4.801  1.7000 -0.5570 -1.5600
 2177TIP3    H227947   3.122   2.718   4.885  0.4281 -0.5640  0.2032
 2178TIP3   OH227948   5.500   0.289  16.299  0.6026  0.4259 -0.4239
 2178TIP3    H127949   5.527   0.200  16.273  0.4749  0.6960 -1.5546
 2178TIP3    H227950   5.486   0.283  16.393  0.6603 -0.7435 -0.4675
 2179TIP3   OH227951   5.489   5.734   0.691  0.0447 -0.1482  0.1608
 2179TIP3    H127952   5.548   5.755   0.618  0.8558 -0.3335  0.7577
 2179TIP3    H227953   5.468   5.819   0.730  1.3489 -0.2157  1.0444
 2180TIP3   OH227954   3.234   5.002   3.982  0.6581 -0.3731 -0.3317
 2180TIP3    H127955   3.292   4.980   4.055  0.9762 -3.7178 -1.3855
 2180TIP3    H227956   3.190   4.919   3.962 -3.4039  1.6333 -0.6033
 2181TIP3   OH227957   4.405   1.482  13.678 -0.0655  0.1515  0.4943
 2181TIP3    H127958   4.336   1.458  13.616  0.4203 -0.5350  0.2045
 2181TIP3    H227959   4.404   1.413  13.744  1.7824 -1.1215 -0.7001
 2182TIP3   OH227960   1.092   3.766  11.327  0.3290 -0.6912 -0.1770
 2182TIP3    H127961   1.079   3.740  11.418 -1.1260 -1.3506 -0.5336
 2182TIP3    H227962   1.113   3.859  11.331  0.2626 -0.7055  0.8231
 2183TIP3   OH227963   2.739   5.646   3.803  0.4253 -0.8636  0.4832
 2183TIP3    H127964   2.737   5.680   3.892  2.0892  0.6602 -0.0186
 2183TIP3    H227965   2.659   5.679   3.763  0.9861  0.7816  0.6359
 2184TIP3   OH227966   1.523   3.023   1.793 -0.4079 -0.5592 -0.3365
 2184TIP3    H127967   1.486   3.075   1.865 -0.9212  2.6257 -2.6820
 2184TIP3    H227968   1.610   2.998   1.824 -0.5565  0.7930  1.3426
 2185TIP3   OH227969   2.470   5.899  14.050  0.0627 -0.2005  0.1714
 2185TIP3    H127970   2.475   5.968  14.116 -2.0585  0.0136  0.1810
 2185TIP3    H227971   2.539   5.920  13.988  0.7757  0.7639  1.2457
 2186TIP3   OH227972   0.038   4.542  12.063 -0.5444  0.0402 -0.7245
 2186TIP3    H127973  -0.034   4.481  12.056 -0.2296 -0.4652  0.2675
 2186TIP3    H227974   0.106   4.507  12.005 -0.4412 -0.4498 -0.3122
 2187TIP3   OH227975   6.466   3.207  12.662 -0.2684 -0.1149  0.3980
 2187TIP3    H127976   6.474   3.275  12.596  0.8942 -1.8905 -1.3949
 2187TIP3    H227977   6.522   3.236  12.734 -0.2939  1.0909 -0.0509
 2188TIP3   OH227978   3.457   4.578  14.156  0.2389  0.0691 -0.5223
 2188TIP3    H127979   3.473   4.656  14.103 -0.3673  0.4791 -0.1078
 2188TIP3    H227980   3.542   4.533  14.159  0.4927  0.5018 -1.0909
 2189TIP3   OH227981   2.633   3.429  14.560 -0.0565  0.0095 -0.3258
 2189TIP3    H127982   2.562   3.380  14.519 -0.0150  0.3841 -0.8599
 2189TIP3    H227983   2.702   3.432  14.494  1.8634 -3.1821  1.2914
 2190TIP3   OH227984   0.924   0.552   6.082  0.1083 -0.0866 -0.6154
 2190TIP3    H127985   0.836   0.531   6.115  1.1214 -0.6958  1.9446
 2190TIP3    H227986   0.914   0.554   5.987 -2.6111 -0.4086 -0.4207
 2191TIP3   OH227987   2.788   6.243  15.644  0.0818 -0.0208  0.2199
 2191TIP3    H127988   2.865   6.202  15.683 -0.0838  0.0931  0.6733
 2191TIP3    H227989   2.812   6.335  15.633 -0.3311  0.2197  1.2715
 2192TIP3   OH227990   3.754   2.056   3.998  0.1259  0.4365  0.5114
 2192TIP3    H127991   3.680   2.053   4.060 -0.0959  1.0698  0.2914
 2192TIP3    H227992   3.828   2.087   4.051 -0.3025  1.9870  0.2663
 2193TIP3   OH227993   2.690   4.187   3.985  0.2092  0.1760  0.0098
 2193TIP3    H127994   2.696   4.104   4.032  1.8665 -0.1344 -0.6711
 2193TIP3    H227995   2.738   4.172   3.903 -1.9745  0.9059 -1.5188
 2194TIP3   OH227996   5.079   4.532  12.054  0.0727 -0.3183  0.0604
 2194TIP3    H127997   5.161   4.561  12.094 -0.1315  2.0003 -1.0193
 2194TIP3    H227998   5.051   4.458  12.108  2.0950 -0.2171  1.3574
 2195TIP3   OH227999   3.928   0.960  13.059  0.1730 -0.5519  0.7649
 2195TIP3    H128000   3.910   1.053  13.064 -0.0828 -0.5994  0.7293
 2195TIP3    H228001   4.006   0.954  13.003 -1.3752 -0.5179 -1.5488
 2196TIP3   OH228002   4.349   6.286  12.828 -0.6136  0.1382 -0.2531
 2196TIP3    H128003   4.341   6.258  12.737  0.1681 -1.0475  0.0233
 2196TIP3    H228004   4.390   6.373  12.823  0.7544 -0.5097 -0.9978
 2197TIP3   OH228005   4.425   3.843   1.834 -0.3692  0.0578  0.0105
 2197TIP3    H128006   4.471   3.889   1.764 -1.9894  1.6499 -0.0686
 2197TIP3    H228007   4.413   3.754   1.799  2.2458 -0.3337 -0.0883
 2198TIP3   OH228008   6.725   0.597   3.983  0.4318  0.4912  0.3269
 2198TIP3    H128009   6.749   0.597   3.890  1.3206  4.6362  0.3312
 2198TIP3    H228010   6.805   0.570   4.028  0.3789 -0.3359 -0.0639
 2199TIP3   OH228011   4.603   2.624  13.930  0.2590  0.0621  0.5764
 2199TIP3    H128012   4.551   2.581  13.998  0.4357  1.9036  1.9266
 2199TIP3    H228013   4.692   2.594  13.945 -0.0233 -1.4569 -0.4472
 2200TIP3   OH228014   3.486   5.762   0.728  0.0396 -0.4192  0.5457
 2200TIP3    H128015   3.507   5.674   0.697  0.1207  0.0692 -0.8461
 2200TIP3    H228016   3.407   5.785   0.680 -1.6244 -0.7649  2.9261
 2201TIP3   OH228017   4.616   6.348  17.072 -0.0406  0.8138 -0.8048
 2201TIP3    H128018   4.593   6.328  17.163  0.0308  0.2020 -0.9158
 2201TIP3    H228019   4.679   6.280  17.048  1.4528  2.0974 -0.6968
 2202TIP3   OH228020   5.868   4.715   0.917  0.0773 -0.0074 -0.4301
 2202TIP3    H128021   5.783   4.678   0.894  0.3186 -1.2264  0.5088
 2202TIP3    H228022   5.849   4.806   0.942 -1.2761 -0.7571  1.5520
 2203TIP3   OH228023   4.259   5.256   3.656 -0.2425 -0.7357  0.1614
 2203TIP3    H128024   4.276   5.173   3.701 -2.6301 -0.7376  1.2328
 2203TIP3    H228025   4.171   5.280   3.684 -0.2284  1.3724 -1.3922
 2204TIP3   OH228026   4.903   3.421  13.973  0.2517 -0.2224 -0.3637
 2204TIP3    H128027   4.837   3.486  13.951  1.1094 -0.0126 -2.5685
 2204TIP3    H228028   4.985   3.471  13.978  0.6068 -0.8209 -0.0247
 2205TIP3   OH228029   5.195   3.562   1.995 -0.3211 -0.3586 -0.0847
 2205TIP3    H128030   5.241   3.605   2.067 -0.9942 -2.0757  1.4572
 2205TIP3    H228031   5.133   3.629   1.964  0.7147  0.7725  0.1884
 2206TIP3   OH228032   0.180   4.481   1.346  0.0283 -0.0591 -0.2813
 2206TIP3    H128033   0.120   4.513   1.279  0.1282  1.0615  0.1424
 2206TIP3    H228034   0.239   4.421   1.299  1.3755  2.1937 -1.6764
 2207TIP3   OH228035   5.071   3.521   6.138  0.1594  0.0082  0.0629
 2207TIP3    H128036   5.064   3.617   6.139  0.5027  0.0363 -0.1564
 2207TIP3    H228037   5.010   3.492   6.206  0.9578  0.4309  0.9833
 2208TIP3   OH228038   0.481   1.399  16.840  0.4031 -0.0895  0.1833
 2208TIP3    H128039   0.487   1.458  16.765  0.9077 -1.1295 -0.6192
 2208TIP3    H228040   0.528   1.445  16.910 -0.5960  1.1588  0.0614
 2209TIP3   OH228041   6.617   4.344   5.510  0.1393 -0.2058 -0.7934
 2209TIP3    H128042   6.563   4.346   5.589  0.4210 -2.1928 -0.4956
 2209TIP3    H228043   6.629   4.436   5.487 -0.3821  0.4126  1.1782
 2210TIP3   OH228044   6.628   6.628  11.450 -0.3392  0.9700 -0.7650
 2210TIP3    H128045   6.564   6.699  11.449 -0.0825  1.2213 -0.1295
 2210TIP3    H228046   6.659   6.622  11.359 -0.0677  1.9530 -0.7486
 2211TIP3   OH228047   3.677   6.504   6.131  0.1072 -0.4668 -0.1841
 2211TIP3    H128048   3.721   6.426   6.165  0.7019  0.0930  0.3577
 2211TIP3    H228049   3.707   6.575   6.188  1.0051  0.4702 -1.7443
 2212TIP3   OH228050   5.182   0.022  17.209  0.0377 -0.4330  0.1050
 2212TIP3    H128051   5.252  -0.039  17.187 -0.4056 -0.9299  0.0373
 2212TIP3    H228052   5.210   0.063  17.291  0.4605 -0.5422  0.0131
 2213TIP3   OH228053   5.325   6.388  16.615 -0.7778  0.0483  0.0260
 2213TIP3    H128054   5.340   6.303  16.658 -0.2759 -0.1018 -0.4320
 2213TIP3    H228055   5.244   6.421  16.655 -1.7450 -1.2767 -0.7577
 2214TIP3   OH228056   6.172   4.631   1.779  0.0995 -0.1620 -0.0098
 2214TIP3    H128057   6.178   4.606   1.687  0.7579 -0.4978  0.1152
 2214TIP3    H228058   6.083   4.607   1.805 -0.3815  0.7356 -0.7805
 2215TIP3   OH228059   4.364   6.650   4.101 -0.1671  0.3634 -0.2909
 2215TIP3    H128060   4.364   6.562   4.139  0.9049  0.0094 -1.0788
 2215TIP3    H228061   4.276   6.683   4.118 -0.8157 -1.1325 -0.6239
 2216TIP3   OH228062   3.726   6.641   5.526  0.3531 -0.1231 -0.2337
 2216TIP3    H128063   3.734   6.732   5.497 -0.2991  0.3153  0.8942
 2216TIP3    H228064   3.642   6.638   5.573  0.5736 -1.2022  0.1205
 2217TIP3   OH228065   6.654   1.200   4.857 -0.3524 -0.1123  0.6025
 2217TIP3    H128066   6.699   1.165   4.780  0.7302  0.9356  0.7299
 2217TIP3    H228067   6.713   1.182   4.930  0.2201  1.8535  0.6738
 2218TIP3   OH228068   2.610   1.011  12.367 -0.6060 -0.0238 -0.5296
 2218TIP3    H128069   2.545   0.971  12.309  0.7695 -1.4210 -1.1858
 2218TIP3    H228070   2.692   1.007  12.318 -0.1724  2.7860 -0.2204
 2219TIP3   OH228071   0.932   5.648   4.775 -0.4384  0.5989  0.0376
 2219TIP3    H128072   0.882   5.721   4.810 -0.6830  0.7802 -0.6700
 2219TIP3    H228073   0.930   5.581   4.844 -1.3174  0.7574  0.1685
 2220TIP3   OH228074   3.175   3.156   1.974  0.0014 -0.3042 -0.5464
 2220TIP3    H128075   3.257   3.110   1.992  1.3506  1.7274 -1.1701
 2220TIP3    H228076   3.166   3.151   1.878 -0.5513 -0.3958 -0.4920
 2221TIP3   OH228077   6.385   6.082  13.812  0.3572 -0.6677  0.1979
 2221TIP3    H128078   6.457   6.143  13.824  0.2565 -0.6763  0.9160
 2221TIP3    H228079   6.317   6.132  13.768 -0.5074  0.3629  2.5577
 2222TIP3   OH228080   4.026   0.584  15.243 -0.3484 -0.5161 -0.0877
 2222TIP3    H128081   4.059   0.632  15.167  0.9301 -0.1859  0.6424
 2222TIP3    H228082   4.007   0.497  15.209  1.8293 -0.9010 -0.4775
 2223TIP3   OH228083   4.879   5.554  11.365 -0.1052 -0.3529 -0.6630
 2223TIP3    H128084   4.868   5.576  11.272 -1.9681  0.5970 -0.2594
 2223TIP3    H228085   4.838   5.627  11.412  0.6684 -0.8953  0.9243
 2224TIP3   OH228086   5.630   1.244   2.442  0.1082  0.8124  0.2386
 2224TIP3    H128087   5.539   1.215   2.446  0.3212 -0.1420 -1.1484
 2224TIP3    H228088   5.670   1.208   2.521  0.5082 -3.4864 -1.6495
 2225TIP3   OH228089   6.713   3.478  11.382 -0.0672 -0.6404  0.2318
 2225TIP3    H128090   6.627   3.474  11.341  0.1065 -1.4195 -0.0761
 2225TIP3    H228091   6.696   3.507  11.472 -0.5125  0.4912 -0.1982
 2226TIP3   OH228092   1.846   2.268  13.494  0.6797 -0.2304 -0.3332
 2226TIP3    H128093   1.878   2.179  13.480 -0.3214 -0.4621 -1.1809
 2226TIP3    H228094   1.899   2.322  13.435  0.3249 -0.4577 -0.8650
 2227TIP3   OH228095   2.940   3.825   2.713  1.2151 -0.2803  0.5779
 2227TIP3    H128096   2.929   3.751   2.654  3.3309  0.6968 -1.1607
 2227TIP3    H228097   3.021   3.805   2.762  0.5330 -0.1778  1.7918
 2228TIP3   OH228098   2.286   0.144  13.152 -0.0004 -0.4490 -0.3824
 2228TIP3    H128099   2.202   0.117  13.114  0.1482 -0.7453 -0.4994
 2228TIP3    H228100   2.352   0.106  13.095  0.2672 -2.3865  1.0998
 2229TIP3   OH228101   3.246   0.634  11.391  0.0365  0.4418 -0.4545
 2229TIP3    H128102   3.177   0.661  11.331 -1.5501 -1.3532  0.4704
 2229TIP3    H228103   3.308   0.585  11.336 -1.2221 -0.8948 -0.7287
 2230TIP3   OH228104   2.287   5.766  12.424 -0.3716 -0.3995  0.2293
 2230TIP3    H128105   2.261   5.677  12.399  0.3729 -0.6446  0.3162
 2230TIP3    H228106   2.288   5.814  12.342 -1.0637 -0.3899  0.2186
 2231TIP3   OH228107   5.128   3.412   1.746 -0.1321 -0.0749 -0.1441
 2231TIP3    H128108   5.098   3.328   1.781  0.4200  0.0642  0.6894
 2231TIP3    H228109   5.143   3.466   1.824  2.5064 -0.1959 -0.4862
 2232TIP3   OH228110   1.105   3.172   0.842  0.2009 -0.1856  0.8441
 2232TIP3    H128111   1.028   3.221   0.872  1.0206  1.9987 -0.3496
 2232TIP3    H228112   1.160   3.238   0.800  2.1637 -1.9052  0.5473
 2233TIP3   OH228113   5.006   2.164   0.986  0.3404  0.0959  0.3062
 2233TIP3    H128114   5.047   2.236   0.939 -2.1528  2.5099  1.5157
 2233TIP3    H228115   4.917   2.195   1.003 -0.6963 -3.1126  1.3579
 2234TIP3   OH228116   5.207   6.160  16.162 -0.1909 -0.2029 -0.3239
 2234TIP3    H128117   5.215   6.127  16.073  0.2461  1.5234 -0.9650
 2234TIP3    H228118   5.280   6.119  16.209  1.1425  0.8146 -1.4205
 2235TIP3   OH228119   6.383   6.158   2.951  0.2097 -0.1594 -0.3672
 2235TIP3    H128120   6.350   6.112   3.028 -1.3124 -1.4818 -1.7474
 2235TIP3    H228121   6.313   6.218   2.926  1.4090  1.6008  0.2668
 2236TIP3   OH228122   5.720   3.145  11.606 -0.1152  0.0284 -0.1403
 2236TIP3    H128123   5.771   3.064  11.610  0.9619  0.6285 -1.1150
 2236TIP3    H228124   5.762   3.203  11.669 -0.2237  0.1893 -0.2164
 2237TIP3   OH228125   2.036   1.980   0.441  0.4883 -0.0562 -0.3584
 2237TIP3    H128126   2.045   2.054   0.501 -3.0190  0.2410  0.0230
 2237TIP3    H228127   2.108   1.991   0.379  2.4817  1.3193  1.9901
 2238TIP3   OH228128   4.157   0.723  17.323  0.0617 -0.4407 -0.0848
 2238TIP3    H128129   4.095   0.749  17.390 -0.7685  0.2503 -1.0846
 2238TIP3    H228130   4.106   0.670  17.262  0.3634  0.3498 -1.0575
 2239TIP3   OH228131   3.830   6.066  12.284  0.4033 -0.2365  0.3394
 2239TIP3    H128132   3.744   6.094  12.254  0.9340  0.1743 -0.8533
 2239TIP3    H228133   3.815   5.981  12.325 -0.4768 -0.4790 -0.4638
 2240TIP3   OH228134   1.674   1.066  17.083  0.1161 -0.7441 -0.2303
 2240TIP3    H128135   1.729   0.992  17.110  0.4195 -1.1704 -1.8760
 2240TIP3    H228136   1.724   1.107  17.012 -1.5625 -0.9893 -1.6048
 2241TIP3   OH228137   2.439   3.737   5.546  0.2731  0.1832  0.2000
 2241TIP3    H128138   2.433   3.777   5.459 -0.5148  1.9298  0.9853
 2241TIP3    H228139   2.348   3.730   5.575  0.5371  0.0281  1.0335
 2242TIP3   OH228140   6.740   3.238  16.319 -0.3564  0.4000 -0.4552
 2242TIP3    H128141   6.763   3.316  16.371 -1.0300  0.0359  0.4012
 2242TIP3    H228142   6.697   3.179  16.381 -0.7001 -0.2714 -1.3122
 2243TIP3   OH228143   5.582   1.501   6.322 -0.4635  0.7503  0.2798
 2243TIP3    H128144   5.583   1.479   6.229  1.2251  0.5441  0.3090
 2243TIP3    H228145   5.662   1.554   6.335 -0.1457 -0.0420  1.7797
 2244TIP3   OH228146   2.829   4.404   2.661  0.3385  0.4298  0.2926
 2244TIP3    H128147   2.856   4.333   2.603 -0.5354 -0.4472  0.9458
 2244TIP3    H228148   2.888   4.476   2.638  0.5287 -0.1405 -1.1347
 2245TIP3   OH228149   3.306   3.964  17.003  0.1323  0.5192  0.5491
 2245TIP3    H128150   3.280   3.933  17.090  0.0490  1.3825  0.8416
 2245TIP3    H228151   3.283   3.892  16.944 -0.7082  0.3058  1.1180
 2246TIP3   OH228152   5.862   6.641   3.139 -0.7311 -0.3732 -0.0759
 2246TIP3    H128153   5.813   6.626   3.058 -1.9714  2.5319  0.0304
 2246TIP3    H228154   5.794   6.656   3.205  0.3002 -0.7680  1.1022
 2247TIP3   OH228155   1.004   0.580  12.407  0.5316  0.1865 -0.0999
 2247TIP3    H128156   0.940   0.621  12.466 -0.4882  0.5866 -1.4431
 2247TIP3    H228157   0.977   0.607  12.320  0.7004 -2.1514 -0.9475
 2248TIP3   OH228158   1.820   3.310  15.681 -0.1069  0.3844 -0.6434
 2248TIP3    H128159   1.884   3.332  15.613  1.2887 -0.0894  0.4719
 2248TIP3    H228160   1.863   3.332  15.763 -1.1698 -0.4747  0.1773
 2249TIP3   OH228161   1.090   5.251   4.346 -0.4166 -0.1060 -0.5682
 2249TIP3    H128162   1.143   5.227   4.270  0.1251  0.7527 -0.4716
 2249TIP3    H228163   1.067   5.342   4.332  0.7772  0.4725  0.8805
 2250TIP3   OH228164   0.337   2.193  11.647  0.0309 -0.2327 -0.7734
 2250TIP3    H128165   0.393   2.253  11.696  0.6275  0.8443 -2.6816
 2250TIP3    H228166   0.359   2.106  11.682  0.3332  0.4828  0.9060
 2251TIP3   OH228167   6.155   0.754   1.963  0.0197 -0.1035 -0.7051
 2251TIP3    H128168   6.173   0.704   2.042 -1.8635  1.0621  0.5502
 2251TIP3    H228169   6.108   0.693   1.906  0.6010 -0.6871 -0.5685
 2252TIP3   OH228170   0.370   6.490  13.775 -0.1725 -0.7650  0.3157
 2252TIP3    H128171   0.376   6.511  13.681  2.0963  0.8265  0.7345
 2252TIP3    H228172   0.408   6.403  13.783 -2.8588 -2.1184 -0.5116
 2253TIP3   OH228173   4.970   1.572   3.674  0.3398  0.1121  0.4087
 2253TIP3    H128174   4.945   1.657   3.637  0.2915 -0.4480 -0.8709
 2253TIP3    H228175   4.904   1.511   3.641 -1.8119  0.0952  4.1560
 2254TIP3   OH228176   2.214   0.726   2.555 -0.3601 -0.1947 -0.4866
 2254TIP3    H128177   2.249   0.807   2.517 -2.0463  0.8462  0.0305
 2254TIP3    H228178   2.150   0.696   2.491  0.2062 -1.1021 -0.6391
 2255TIP3   OH228179   0.049   0.271   3.329 -0.3256 -0.1781  0.4086
 2255TIP3    H128180   0.064   0.366   3.330 -1.7190  0.2404  5.0903
 2255TIP3    H228181   0.127   0.234   3.370 -0.8579 -0.7598  0.9097
 2256TIP3   OH228182   6.428   1.251   0.824  0.2627 -0.4329 -0.6174
 2256TIP3    H128183   6.390   1.184   0.766  1.2188 -0.4861 -1.1989
 2256TIP3    H228184   6.493   1.203   0.876  1.6654  0.2038 -1.7316
 2257TIP3   OH228185   2.655   5.452  16.960  0.1545  0.0551 -0.3224
 2257TIP3    H128186   2.567   5.433  16.994 -0.2529  0.4704 -1.0971
 2257TIP3    H228187   2.715   5.423  17.029 -0.6504  1.5908  1.0970
 2258TIP3   OH228188   3.436   4.520   0.666  0.5190 -0.1692  0.4056
 2258TIP3    H128189   3.489   4.448   0.699  2.4614  1.2156  0.4776
 2258TIP3    H228190   3.405   4.490   0.580  3.1020 -0.3114 -0.5525
 2259TIP3   OH228191   2.454   0.165   4.712  0.1466  0.2453 -0.2001
 2259TIP3    H128192   2.401   0.238   4.743 -0.5145  0.1087 -0.9744
 2259TIP3    H228193   2.530   0.164   4.770 -0.1887  1.0969  0.2690
 2260TIP3   OH228194   1.342   6.294  15.000 -0.0652  0.0601 -0.0883
 2260TIP3    H128195   1.307   6.315  14.913  2.2517 -1.4426 -1.5279
 2260TIP3    H228196   1.354   6.378  15.042 -3.1719  0.7520 -0.3104
 2261TIP3   OH228197   3.897   3.106   3.690  0.3336 -0.6441  0.4681
 2261TIP3    H128198   3.986   3.126   3.659  0.5132 -0.7052  0.9302
 2261TIP3    H228199   3.894   3.142   3.779 -0.6755  0.8482 -0.1414
 2262TIP3   OH228200   5.095   1.860   4.873 -0.0828 -0.1202 -0.5991
 2262TIP3    H128201   5.003   1.835   4.875 -0.0919 -0.0458 -0.0654
 2262TIP3    H228202   5.141   1.780   4.846  0.0084 -1.1127  2.1539
 2263TIP3   OH228203   0.659   3.230   1.965  0.2034  0.7626  0.2556
 2263TIP3    H128204   0.571   3.222   2.002  0.6181 -1.8953  0.9137
 2263TIP3    H228205   0.649   3.290   1.892 -2.4217 -0.2591 -0.3448
 2264TIP3   OH228206   6.285   2.205   2.216  0.3256  0.0798  0.1088
 2264TIP3    H128207   6.202   2.220   2.262 -1.2613 -1.8820 -1.8382
 2264TIP3    H228208   6.259   2.193   2.125  2.3978 -3.1818 -0.2139
 2265TIP3   OH228209   2.820   6.540  11.400 -0.3995  0.7422 -0.3615
 2265TIP3    H128210   2.730   6.522  11.427 -0.5909  2.3476  0.1748
 2265TIP3    H228211   2.820   6.530  11.305 -0.9178 -0.1414 -0.2746
 2266TIP3   OH228212   6.564   0.944  11.212  0.2396 -0.4456 -0.6607
 2266TIP3    H128213   6.642   0.984  11.251 -2.8028  3.0438  2.6746
 2266TIP3    H228214   6.576   0.954  11.118  3.3379  0.8621 -0.2484
 2267TIP3   OH228215   5.703   1.573   1.574  0.3391  0.3515  0.3431
 2267TIP3    H128216   5.795   1.551   1.590  0.3517 -0.0310 -0.2235
 2267TIP3    H228217   5.673   1.506   1.512 -0.1167  0.9037 -0.0397
 2268TIP3   OH228218   5.451   4.359  14.304 -0.6984  0.5369 -0.2436
 2268TIP3    H128219   5.543   4.347  14.327 -1.0982  1.2965  1.9658
 2268TIP3    H228220   5.434   4.452  14.321 -2.3606 -0.0137  1.3463
 2269TIP3   OH228221   0.589   5.900  13.849 -0.0153  0.1740 -0.1648
 2269TIP3    H128222   0.659   5.965  13.858  1.5008 -1.2438 -1.2143
 2269TIP3    H228223   0.617   5.827  13.905 -1.1917 -0.0125  0.2057
 2270TIP3   OH228224   2.770   6.232  14.843 -0.2718  0.0892  0.7682
 2270TIP3    H128225   2.806   6.194  14.924 -0.2230 -1.9239 -0.1305
 2270TIP3    H228226   2.730   6.158  14.798  0.6493  0.9255 -1.5819
 2271TIP3   OH228227   1.192   3.180  16.590  0.2263  0.1128  0.3631
 2271TIP3    H128228   1.159   3.096  16.559 -0.2955  0.3371  0.2883
 2271TIP3    H228229   1.209   3.166  16.683  1.3451 -0.4275  0.0972
 2272TIP3   OH228230   3.648   4.990   5.691  0.0028 -0.6606 -0.1358
 2272TIP3    H128231   3.715   4.948   5.744  0.6677  1.9998  1.3559
 2272TIP3    H228232   3.583   5.020   5.755 -1.6539 -1.5007 -1.3643
 2273TIP3   OH228233   6.554   0.815   3.909 -0.0631  0.1031  0.0424
 2273TIP3    H128234   6.507   0.784   3.832 -0.5857 -1.6072  0.9889
 2273TIP3    H228235   6.599   0.737   3.943  0.7074  0.9637  1.0881
 2274TIP3   OH228236   1.244   2.223   2.858 -0.0352 -0.1553  0.8099
 2274TIP3    H128237   1.336   2.244   2.845 -0.1260  1.5160  2.3981
 2274TIP3    H228238   1.198   2.305   2.841 -1.3455 -1.1475 -0.7163
 2275TIP3   OH228239   0.726   2.736  14.333 -0.6081 -0.0951  0.0518
 2275TIP3    H128240   0.805   2.686  14.313  0.3893  1.3651  0.1795
 2275TIP3    H228241   0.695   2.700  14.416  0.1769 -0.3972  0.2220
 2276TIP3   OH228242   5.157   2.091   1.217 -0.0803  0.4551 -0.5120
 2276TIP3    H128243   5.191   2.173   1.252 -0.2788  1.2765 -2.1480
 2276TIP3    H228244   5.127   2.113   1.129 -0.7013 -1.2469 -0.7655
 2277TIP3   OH228245   5.536   4.270  13.428  0.1409 -0.2554 -0.6820
 2277TIP3    H128246   5.473   4.252  13.498  1.5609 -1.3778  0.3484
 2277TIP3    H228247   5.482   4.307  13.358 -1.3612  0.6712  0.8737
 2278TIP3   OH228248   2.357   1.713   0.628  0.1150 -0.2636 -0.1163
 2278TIP3    H128249   2.336   1.736   0.537  1.4703 -1.2930 -0.7271
 2278TIP3    H228250   2.295   1.643   0.649  0.5801 -0.8876 -0.7157
 2279TIP3   OH228251   2.153   4.875   4.121  0.3742  0.3016  0.1849
 2279TIP3    H128252   2.177   4.797   4.071 -1.5713 -0.1141 -0.1716
 2279TIP3    H228253   2.226   4.936   4.106  2.1380 -1.5422  0.7930
 2280TIP3   OH228254   4.371   5.556  13.999  0.0652 -0.0675  0.0242
 2280TIP3    H128255   4.298   5.503  13.966 -0.6745  0.5444  0.6463
 2280TIP3    H228256   4.356   5.562  14.093 -0.1850  1.7024 -0.0940
 2281TIP3   OH228257   5.136   1.576  12.748 -0.5549 -0.2976 -0.0660
 2281TIP3    H128258   5.203   1.625  12.796  1.7651 -2.5360 -0.7925
 2281TIP3    H228259   5.076   1.643  12.715  1.1020  1.7987  0.9421
 2282TIP3   OH228260   0.435   1.416  16.073 -0.7460 -0.1356 -0.1128
 2282TIP3    H128261   0.361   1.362  16.100 -1.3653 -0.1051 -1.6383
 2282TIP3    H228262   0.415   1.440  15.983  0.9148  0.2563 -0.4079
 2283TIP3   OH228263   4.160   0.790   0.956 -0.4117  0.3169  0.6960
 2283TIP3    H128264   4.190   0.842   1.030  0.1563  1.1187 -0.0782
 2283TIP3    H228265   4.177   0.699   0.982 -1.2874  0.5027  2.0032
 2284TIP3   OH228266   2.380   5.666  14.610  0.1479 -0.6565  0.0509
 2284TIP3    H128267   2.322   5.604  14.654 -1.6381  0.6501 -0.3194
 2284TIP3    H228268   2.415   5.618  14.535 -2.5983 -0.8027 -1.2704
 2285TIP3   OH228269   4.115   2.120   4.289 -0.2772 -0.0770 -0.8819
 2285TIP3    H128270   4.144   2.082   4.206  1.8997  1.7205 -1.0389
 2285TIP3    H228271   4.161   2.069   4.356 -2.5150 -1.9439 -0.6274
 2286TIP3   OH228272   2.310   1.115  17.053 -0.3112 -0.0523 -0.2781
 2286TIP3    H128273   2.360   1.156  17.124 -1.7266 -0.0958  0.7870
 2286TIP3    H228274   2.376   1.093  16.987  0.9475  0.6892  0.6814
 2287TIP3   OH228275   1.854   6.258  10.598 -0.4668  0.7106 -0.7629
 2287TIP3    H128276   1.865   6.329  10.662 -0.8151 -1.7729  2.2660
 2287TIP3    H228277   1.760   6.242  10.596 -0.3634  0.1349 -1.1928
 2288TIP3   OH228278   1.155   0.957  17.159 -0.0575  0.0466  0.2877
 2288TIP3    H128279   1.176   1.041  17.118  2.4336 -0.4532  0.3818
 2288TIP3    H228280   1.215   0.894  17.118 -1.2895 -1.5480  0.8095
 2289TIP3   OH228281   2.733   4.840   2.133  0.5346  0.5328  0.6417
 2289TIP3    H128282   2.655   4.850   2.079 -0.2196  0.2517  1.6619
 2289TIP3    H228283   2.792   4.909   2.101  1.2853 -1.3059 -2.4316
 2290TIP3   OH228284   6.538   0.357  13.274  0.2237 -0.4999  0.4000
 2290TIP3    H128285   6.482   0.399  13.339 -1.4547 -1.7799 -0.1233
 2290TIP3    H228286   6.610   0.319  13.324 -1.2647 -1.8538  1.6421
 2291TIP3   OH228287   3.835   1.655   6.453 -0.2890  0.2405  0.1189
 2291TIP3    H128288   3.847   1.561   6.472 -2.3067 -0.5566 -2.0432
 2291TIP3    H228289   3.745   1.661   6.421 -0.3182  3.0203  0.5077
 2292TIP3   OH228290   5.530   1.098  15.296  0.4265  0.0446 -0.3892
 2292TIP3    H128291   5.618   1.061  15.302  0.2526 -0.2736  0.2409
 2292TIP3    H228292   5.483   1.060  15.370 -0.2196  0.2725 -0.6779
 2293TIP3   OH228293   5.294   1.631   4.873  0.1749 -0.3937  0.1998
 2293TIP3    H128294   5.335   1.591   4.796  1.4903  4.4993 -2.0384
 2293TIP3    H228295   5.362   1.629   4.940 -0.1629 -2.5819  0.5509
 2294TIP3   OH228296   6.289   0.367   5.263 -0.0335  0.2067  0.8995
 2294TIP3    H128297   6.213   0.312   5.281  0.7290 -1.3672 -0.4417
 2294TIP3    H228298   6.364   0.308   5.268  0.8802  1.2319 -0.0645
 2295TIP3   OH228299   1.369   2.177  11.998  0.0094 -0.0837 -0.0629
 2295TIP3    H128300   1.416   2.123  11.935 -0.3672 -0.3021 -0.1641
 2295TIP3    H228301   1.418   2.168  12.079 -1.2908 -2.4174  0.5436
 2296TIP3   OH228302   2.074   2.938   1.745  0.1508 -0.0554  1.2500
 2296TIP3    H128303   1.983   2.918   1.763  0.6064 -2.8271  0.8801
 2296TIP3    H228304   2.091   3.020   1.792 -2.5497  0.6653  1.0922
 2297TIP3   OH228305   4.228   0.014  15.548  0.2237 -0.0599 -0.0095
 2297TIP3    H128306   4.318   0.035  15.522 -0.0628  2.3777  0.7141
 2297TIP3    H228307   4.207   0.079  15.614 -1.6071 -1.5035  0.9057
 2298TIP3   OH228308   3.523   5.489   2.009  0.5296  0.5079 -0.1223
 2298TIP3    H128309   3.528   5.460   1.917 -1.2877 -0.0747 -0.0886
 2298TIP3    H228310   3.497   5.581   2.003  1.8440  0.8973 -0.1788
 2299TIP3   OH228311   3.384   6.560  12.331 -0.1548 -0.0612 -0.4899
 2299TIP3    H128312   3.462   6.598  12.292 -0.8344 -0.4488 -2.3068
 2299TIP3    H228313   3.416   6.512  12.408  1.5672 -1.1618 -1.8199
 2300TIP3   OH228314   4.130   3.695  13.150 -0.3518  0.3211  0.0430
 2300TIP3    H128315   4.073   3.687  13.074 -0.7072  0.0825  0.3319
 2300TIP3    H228316   4.111   3.782  13.186  0.1196  0.6068 -0.3764
 2301TIP3   OH228317   5.585   5.137  12.499  0.5932 -0.0255 -0.4238
 2301TIP3    H128318   5.524   5.122  12.427  1.5768  0.3246 -1.3590
 2301TIP3    H228319   5.530   5.167  12.572 -0.4504 -0.6448 -0.9293
 2302TIP3   OH228320   5.418   0.431   5.448 -0.0286 -1.0335  0.2265
 2302TIP3    H128321   5.493   0.428   5.507  0.9600 -0.6414 -0.9645
 2302TIP3    H228322   5.395   0.524   5.443  0.5102 -0.9260 -0.7001
 2303TIP3   OH228323   5.109   5.576   4.126 -0.5757  0.2917 -0.2330
 2303TIP3    H128324   5.063   5.652   4.161 -1.1597 -0.1421 -0.0531
 2303TIP3    H228325   5.200   5.606   4.116 -0.5368  0.6502  0.9730
 2304TIP3   OH228326   0.289   2.945  13.310  0.3894 -0.4256  0.7971
 2304TIP3    H128327   0.264   3.036  13.292  0.9442 -0.1103  1.5631
 2304TIP3    H228328   0.261   2.897  13.232  1.0108  0.5643 -0.0665
 2305TIP3   OH228329   0.748   0.477  13.504 -0.3076 -0.2097  0.3355
 2305TIP3    H128330   0.797   0.559  13.495 -1.6217  0.4529 -1.2466
 2305TIP3    H228331   0.712   0.480  13.593  0.7223  0.2813  0.7569
 2306TIP3   OH228332   2.054   6.731   3.488  0.5567  0.5951 -0.2308
 2306TIP3    H128333   2.067   6.741   3.393 -0.5686  2.8497 -0.2190
 2306TIP3    H228334   2.141   6.711   3.522  0.8949 -0.7304 -1.7809
 2307TIP3   OH228335   4.765   2.789  14.623  0.9781 -0.5376  0.5013
 2307TIP3    H128336   4.724   2.705  14.602 -0.9131  0.5594 -0.4384
 2307TIP3    H228337   4.819   2.770  14.700  1.3791 -2.7987 -0.2399
 2308TIP3   OH228338   0.889   1.302  15.305  0.0774 -0.5266 -0.4064
 2308TIP3    H128339   0.959   1.240  15.285  0.1628 -0.4211 -0.4344
 2308TIP3    H228340   0.811   1.247  15.312  0.2686 -0.7210  0.2443
 2309TIP3   OH228341   6.565   0.732   5.789  0.5012 -0.7927 -0.2206
 2309TIP3    H128342   6.557   0.825   5.765  0.9711 -1.2472 -2.2931
 2309TIP3    H228343   6.641   0.730   5.849  0.3546  0.1735  0.0216
 2310TIP3   OH228344   3.028   4.419   3.971  0.2055  0.1416  0.0538
 2310TIP3    H128345   3.086   4.422   3.895 -1.8930  1.2148 -1.6056
 2310TIP3    H228346   3.044   4.501   4.017 -0.9878  1.1567 -1.2502
 2311TIP3   OH228347   4.922   1.347   3.873  0.0279  0.1033  0.3163
 2311TIP3    H128348   4.932   1.411   3.802 -0.2474 -3.2815 -3.0928
 2311TIP3    H228349   4.827   1.343   3.888 -0.1717 -0.8511 -0.9750
 2312TIP3   OH228350   5.606   0.835   3.308 -0.9398 -0.3405  0.0685
 2312TIP3    H128351   5.690   0.793   3.323 -1.0291 -0.8672 -0.8286
 2312TIP3    H228352   5.620   0.927   3.331 -0.7770 -0.8352  2.1861
 2313TIP3   OH228353   4.673   0.970  14.623 -0.5964  0.2185 -0.1155
 2313TIP3    H128354   4.635   1.049  14.583 -0.9972  0.2414  0.3062
 2313TIP3    H228355   4.709   0.921  14.549 -0.0724  0.9430 -0.3468
 2314TIP3   OH228356   1.430   3.491   6.663 -0.0165 -0.3446  0.2972
 2314TIP3    H128357   1.494   3.545   6.708  1.5076 -2.3032  0.5938
 2314TIP3    H228358   1.367   3.554   6.627  1.1501  1.5342  1.3776
 2315TIP3   OH228359   2.626   0.128   5.202 -0.4891 -0.0203 -0.1064
 2315TIP3    H128360   2.708   0.163   5.167 -0.0131  0.1264  1.0976
 2315TIP3    H228361   2.596   0.195   5.264 -0.6628 -0.7833  0.6594
 2316TIP3   OH228362   2.725   2.683   3.836 -0.0965  0.1050 -0.2045
 2316TIP3    H128363   2.688   2.738   3.766 -0.3116  1.1267  0.6857
 2316TIP3    H228364   2.817   2.672   3.810 -0.3332 -0.0877 -0.9901
 2317TIP3   OH228365   5.390   6.746   5.186 -0.6782 -0.7145 -0.3507
 2317TIP3    H128366   5.367   6.811   5.120 -0.3482 -1.1397 -0.9012
 2317TIP3    H228367   5.307   6.704   5.209 -0.9997  0.3975  0.5580
 2318TIP3   OH228368   2.332   1.625  16.091 -0.3078 -0.6715 -0.4198
 2318TIP3    H128369   2.262   1.570  16.056 -0.3412 -2.0583  1.6822
 2318TIP3    H228370   2.406   1.566  16.104  1.3295  0.7467 -2.5180
 2319TIP3   OH228371   3.241   2.662   3.611  0.0370 -0.1253  0.1317
 2319TIP3    H128372   3.312   2.601   3.628 -1.4078 -1.8300  0.3118
 2319TIP3    H228373   3.183   2.614   3.552 -1.3918  0.8895  0.6786
 2320TIP3   OH228374   5.533   3.016  12.268 -0.3170 -0.9722  0.2864
 2320TIP3    H128375   5.535   3.106  12.300  0.9296 -1.2429  1.0318
 2320TIP3    H228376   5.505   3.024  12.177  1.1441  0.3161 -0.0894
 2321TIP3   OH228377   2.653   2.031  16.975  0.1519  0.1668 -0.2559
 2321TIP3    H128378   2.612   2.061  16.895 -1.8533  2.8552  1.6269
 2321TIP3    H228379   2.746   2.021  16.952 -0.5449 -0.4667 -3.1650
 2322TIP3   OH228380   5.819   0.890  11.952  0.1477  0.3420 -0.5281
 2322TIP3    H128381   5.820   0.819  11.887 -1.6731 -0.2005 -0.0330
 2322TIP3    H228382   5.862   0.852  12.029  0.3663  0.2464 -0.6944
 2323TIP3   OH228383   1.510   1.120   0.172  0.1597  0.2501  0.3093
 2323TIP3    H128384   1.523   1.088   0.083 -1.5737  1.5945 -0.4848
 2323TIP3    H228385   1.567   1.198   0.178 -1.4341  1.5340 -0.4788
 2324TIP3   OH228386   0.419   1.742  11.898 -0.1655  0.0856 -0.1933
 2324TIP3    H128387   0.493   1.781  11.945 -0.9508  1.4045 -0.0035
 2324TIP3    H228388   0.380   1.681  11.961 -0.2402  0.6443  0.3088
 2325TIP3   OH228389   5.590   5.439  13.699  0.0207 -0.0223 -0.4961
 2325TIP3    H128390   5.601   5.532  13.682  1.2842 -0.2917 -1.3062
 2325TIP3    H228391   5.641   5.396  13.631  2.6098 -1.2276  1.9733
 2326TIP3   OH228392   6.487   3.822  16.403 -0.0124  0.0394 -0.3538
 2326TIP3    H128393   6.530   3.744  16.438  0.8710  1.0399  0.8381
 2326TIP3    H228394   6.505   3.819  16.309  1.4101 -0.3316 -0.0851
 2327TIP3   OH228395   5.109   2.228  15.717  0.9176 -0.7780 -0.1242
 2327TIP3    H128396   5.078   2.170  15.648 -0.3930 -0.8025  0.4479
 2327TIP3    H228397   5.030   2.253  15.765  1.6697  0.0571  0.7382
 2328TIP3   OH228398   6.189   3.473  16.075 -0.3549 -0.3681 -0.0141
 2328TIP3    H128399   6.266   3.457  16.129  0.2884 -3.0329 -1.5580
 2328TIP3    H228400   6.118   3.487  16.138  0.4448 -2.8637  1.5571
 2329TIP3   OH228401   0.253   3.613  13.225  0.3372 -0.5402  0.3766
 2329TIP3    H128402   0.182   3.634  13.286 -1.2428 -0.9094 -1.2317
 2329TIP3    H228403   0.214   3.550  13.164  2.1429 -0.9302 -0.4426
 2330TIP3   OH228404   2.825   3.880  10.570 -0.1992 -0.0985  0.0157
 2330TIP3    H128405   2.751   3.825  10.595  0.5767 -0.2087  2.4147
 2330TIP3    H228406   2.787   3.962  10.540 -1.3105 -0.2640  0.9255
 2331TIP3   OH228407   3.027   4.175  15.269 -0.4785 -0.1176 -0.0760
 2331TIP3    H128408   3.020   4.134  15.183  1.8564  0.5268 -0.6280
 2331TIP3    H228409   3.067   4.260  15.252  0.7081 -0.2732  1.7038
 2332TIP3   OH228410   0.775   3.887   6.732 -0.5632 -0.0460  0.4871
 2332TIP3    H128411   0.852   3.832   6.715  0.2247  0.6432  1.6934
 2332TIP3    H228412   0.786   3.962   6.673 -0.0905  0.2381  0.9262
 2333TIP3   OH228413   5.591   5.991   0.782 -0.2305  0.3322 -0.3606
 2333TIP3    H128414   5.658   5.997   0.850  0.5174 -2.1235 -0.7749
 2333TIP3    H228415   5.512   6.025   0.823  0.6506  0.7300  1.0747
 2334TIP3   OH228416   1.161   4.262   2.798  0.6772  0.1681  0.3491
 2334TIP3    H128417   1.156   4.337   2.857  0.4970  0.7902 -0.4397
 2334TIP3    H228418   1.123   4.293   2.716  0.3974 -0.8593  0.0752
 2335TIP3   OH228419   6.387   1.630   3.636 -0.2843 -0.0934  0.2522
 2335TIP3    H128420   6.292   1.638   3.630 -0.3124 -0.2224  0.5242
 2335TIP3    H228421   6.414   1.598   3.550 -0.9054 -3.9477  1.3149
 2336TIP3   OH228422   3.826   5.241  15.137 -0.3341  0.1836 -0.5807
 2336TIP3    H128423   3.737   5.207  15.123 -0.4639 -0.1212  0.9053
 2336TIP3    H228424   3.824   5.328  15.096 -1.8632  0.9146  0.9277
 2337TIP3   OH228425   4.737   1.425   3.582 -0.2131  0.6180  0.5269
 2337TIP3    H128426   4.695   1.511   3.577 -1.8255  0.0604  2.8015
 2337TIP3    H228427   4.670   1.367   3.619  0.7707 -1.6913 -1.0223
 2338TIP3   OH228428   4.226   4.693  15.711 -0.0556 -0.3098  0.4903
 2338TIP3    H128429   4.200   4.667  15.623  0.5755 -1.7945  0.7054
 2338TIP3    H228430   4.300   4.752  15.698  1.2736 -1.9783  0.0065
 2339TIP3   OH228431   1.251   6.145  13.365 -0.6793  0.2864 -0.0551
 2339TIP3    H128432   1.272   6.221  13.420  1.5424 -0.7913  0.7159
 2339TIP3    H228433   1.179   6.102  13.410 -1.2061  1.2879  0.1061
 2340TIP3   OH228434   3.109   0.828   3.619  0.1454 -0.3889 -0.1312
 2340TIP3    H128435   3.117   0.853   3.527 -0.0079 -0.8036 -0.2551
 2340TIP3    H228436   3.177   0.880   3.663  0.0891 -0.0411 -0.4454
 2341TIP3   OH228437   4.091   2.759   0.297 -0.2943 -0.5037 -0.6428
 2341TIP3    H128438   4.139   2.842   0.292  3.5125 -2.4286 -0.0267
 2341TIP3    H228439   4.064   2.752   0.389 -1.0886  0.2244 -0.8090
 2342TIP3   OH228440   1.059   3.181   4.541 -0.1188 -0.0799 -0.0939
 2342TIP3    H128441   1.081   3.131   4.462  0.1665  0.2048 -0.1989
 2342TIP3    H228442   0.974   3.220   4.522  0.3480  0.7078 -0.6177
 2343TIP3   OH228443   2.821   6.173   4.625 -0.7766  0.3096 -0.1698
 2343TIP3    H128444   2.907   6.190   4.663 -0.5368 -0.2256 -0.4710
 2343TIP3    H228445   2.834   6.098   4.567 -1.2894  0.6597 -0.7591
 2344TIP3   OH228446   6.091   4.135  16.605  0.0465 -0.2555  0.0459
 2344TIP3    H128447   6.127   4.218  16.636  0.5183 -1.1272  2.0085
 2344TIP3    H228448   6.166   4.076  16.602 -0.6193 -1.1711  0.7989
 2345TIP3   OH228449   2.103   3.942  12.015 -0.3304  0.0228 -0.2119
 2345TIP3    H128450   2.105   4.031  12.050 -2.1298 -0.2259  0.6456
 2345TIP3    H228451   2.195   3.919  12.003  0.1738  1.9993 -0.5209
 2346TIP3   OH228452   1.604   5.454  13.599 -0.4166  0.6662  0.2119
 2346TIP3    H128453   1.542   5.414  13.537 -0.7187  0.9686  0.3131
 2346TIP3    H228454   1.555   5.526  13.638  0.2194  1.3206 -0.1756
 2347TIP3   OH228455   5.194   6.722  13.130  0.5008  0.2113 -0.8883
 2347TIP3    H128456   5.168   6.807  13.165  0.2880  0.3570 -1.3975
 2347TIP3    H228457   5.287   6.733  13.110  0.6726  0.0671 -0.1998
 2348TIP3   OH228458   6.497   2.957  12.520  0.0253 -0.0180  0.0142
 2348TIP3    H128459   6.409   2.976  12.488 -1.0352 -2.1055  1.4660
 2348TIP3    H228460   6.508   3.014  12.596  0.8578  1.8255 -1.4113
 2349TIP3   OH228461   6.139   5.500  16.535 -0.3914  0.0382  0.3688
 2349TIP3    H128462   6.184   5.577  16.499 -1.2096  0.4617  0.2171
 2349TIP3    H228463   6.150   5.508  16.630 -0.0958  0.1076  0.3272
 2350TIP3   OH228464   0.188   2.496   0.774 -0.0459 -0.0361 -0.7428
 2350TIP3    H128465   0.251   2.562   0.802  0.5362 -1.2095  0.8105
 2350TIP3    H228466   0.110   2.513   0.828  0.8297 -1.8549  1.2224
 2351TIP3   OH228467   0.244   3.609  12.798 -0.2665  0.3190 -0.2403
 2351TIP3    H128468   0.286   3.690  12.829 -1.6545  1.6850 -1.7127
 2351TIP3    H228469   0.313   3.543  12.803  1.5095  2.0248 -0.7704
 2352TIP3   OH228470   5.149   1.346   2.616  0.7080 -0.1465  0.4427
 2352TIP3    H128471   5.099   1.334   2.536  0.3173 -1.8574  0.9088
 2352TIP3    H228472   5.149   1.441   2.630  1.6592  0.3205 -2.1032
 2353TIP3   OH228473   5.272   4.393  14.695  0.4296  0.1173  0.4123
 2353TIP3    H128474   5.353   4.443  14.702  0.1617  0.5699  0.3066
 2353TIP3    H228475   5.202   4.458  14.704  0.0190  0.3381 -2.9715
 2354TIP3   OH228476   2.120   2.317   2.938 -0.3549  0.7042 -0.6061
 2354TIP3    H128477   2.039   2.349   2.897 -0.3782  0.1345 -1.0276
 2354TIP3    H228478   2.155   2.254   2.874 -1.6033 -1.9935  1.1713
 2355TIP3   OH228479   0.460   3.752  15.625  0.3693 -0.1939  0.0559
 2355TIP3    H128480   0.413   3.672  15.648 -1.3998  0.8216  0.1088
 2355TIP3    H228481   0.396   3.822  15.637  1.7862  1.2139 -0.2795
 2356TIP3   OH228482   0.671   4.553   1.870  0.7164  0.3379 -0.5950
 2356TIP3    H128483   0.700   4.488   1.806  0.2688  0.0071 -0.4673
 2356TIP3    H228484   0.711   4.525   1.953  1.1651  0.6751 -0.6956
 2357TIP3   OH228485   5.448   3.759   4.249 -0.4598 -0.3264 -0.3640
 2357TIP3    H128486   5.487   3.706   4.319 -0.4748 -0.7733 -0.6893
 2357TIP3    H228487   5.511   3.830   4.236  0.3825 -1.1575 -1.0368
 2358TIP3   OH228488   0.330   3.289  15.934  0.0297 -0.0208 -0.2338
 2358TIP3    H128489   0.307   3.382  15.934  2.1104  0.5630  0.9869
 2358TIP3    H228490   0.292   3.255  16.016  1.2834  0.3544  0.5274
 2359TIP3   OH228491   0.306   0.298  12.354  0.4790  0.4446 -0.2965
 2359TIP3    H128492   0.358   0.232  12.400  0.1029  0.6960  0.5020
 2359TIP3    H228493   0.346   0.303  12.267  1.4837  0.2640  0.1325
 2360TIP3   OH228494   0.939   2.752  14.853  0.6161  0.7842  0.3016
 2360TIP3    H128495   0.966   2.736  14.943  0.0197 -0.6805  0.2520
 2360TIP3    H228496   0.901   2.840  14.854 -0.3637  0.3798  1.7265
 2361TIP3   OH228497   0.800   0.216  16.117  0.0837  0.0702  0.1343
 2361TIP3    H128498   0.887   0.242  16.086 -0.2459 -2.1813 -3.2425
 2361TIP3    H228499   0.817   0.141  16.174  0.4273  0.4728  0.5647
 2362TIP3   OH228500   4.772   2.984   5.884  0.3516 -0.0597  0.1801
 2362TIP3    H128501   4.837   2.955   5.948  0.4857  2.8749  1.5475
 2362TIP3    H228502   4.744   2.904   5.840  1.5441 -1.9930  2.6989
 2363TIP3   OH228503   5.799   2.417  15.328 -0.1137  0.1963  0.3922
 2363TIP3    H128504   5.771   2.449  15.242 -0.1847 -0.3702  0.2006
 2363TIP3    H228505   5.860   2.484  15.360 -0.6002  0.7392  0.1969
 2364TIP3   OH228506   2.313   4.386  16.469  0.0876  0.2391  0.2206
 2364TIP3    H128507   2.261   4.340  16.534 -0.7813 -0.8955 -1.2110
 2364TIP3    H228508   2.402   4.387  16.504  0.0082 -2.0100  0.5992
 2365TIP3   OH228509   4.481   4.320   0.776 -0.1764  0.6812 -0.1163
 2365TIP3    H128510   4.455   4.299   0.686  1.5902  0.5579 -0.6336
 2365TIP3    H228511   4.476   4.236   0.822  1.3102  0.2193 -0.7479
 2366TIP3   OH228512   0.210   3.096  12.390  0.1577 -0.3635  0.3013
 2366TIP3    H128513   0.295   3.108  12.433  1.9122 -0.0352 -2.9433
 2366TIP3    H228514   0.214   3.007  12.355 -0.7473 -0.2588 -0.0841
 2367TIP3   OH228515   5.224   2.769   6.246  0.0706 -0.1000  0.3319
 2367TIP3    H128516   5.232   2.674   6.251  1.2993 -0.1336 -1.2296
 2367TIP3    H228517   5.130   2.785   6.237  0.0202 -1.4572 -2.8222
 2368TIP3   OH228518   3.301   1.336   4.511 -0.2121 -0.5349  0.2147
 2368TIP3    H128519   3.303   1.399   4.439  1.0343 -0.8467 -0.0518
 2368TIP3    H228520   3.393   1.313   4.524 -0.5896 -1.7591  0.7818
 2369TIP3   OH228521   1.764   4.562   0.557 -0.4378  0.2215 -0.2875
 2369TIP3    H128522   1.846   4.574   0.509  0.1875  0.8215  0.8892
 2369TIP3    H228523   1.789   4.512   0.634 -0.9021  1.6003  0.7898
 2370TIP3   OH228524   3.626   1.859   0.335 -0.2374 -0.0213 -0.0147
 2370TIP3    H128525   3.696   1.794   0.341  1.0094  1.3144  0.3437
 2370TIP3    H228526   3.651   1.927   0.397 -1.2781  1.0255 -0.7038
 2371TIP3   OH228527   0.031   3.437   2.666  0.1896  0.9188 -0.2859
 2371TIP3    H128528   0.094   3.377   2.706 -1.3582  0.1597  1.1464
 2371TIP3    H228529  -0.004   3.488   2.740 -0.5166  1.6509 -1.1051
 2372TIP3   OH228530   1.762   2.844  12.762 -0.0245 -0.5266  0.1476
 2372TIP3    H128531   1.824   2.772  12.777 -0.2499 -0.4027  1.8665
 2372TIP3    H228532   1.686   2.822  12.816 -0.4102  0.6250  0.1001
 2373TIP3   OH228533   3.007   5.639  12.043 -0.2941  0.2569 -0.1218
 2373TIP3    H128534   3.042   5.725  12.021  3.0966 -1.4513 -2.2419
 2373TIP3    H228535   3.039   5.582  11.973 -2.7215 -2.7014  0.9753
 2374TIP3   OH228536   6.103   5.136   4.862 -0.2339 -0.2234  0.3524
 2374TIP3    H128537   6.173   5.172   4.916  1.0364 -0.3641 -1.1333
 2374TIP3    H228538   6.137   5.139   4.772 -0.8624 -3.1664 -0.0943
 2375TIP3   OH228539   0.207   6.216  14.904  0.3592  0.4199  0.2073
 2375TIP3    H128540   0.273   6.202  14.972  1.7876 -0.3573 -1.2569
 2375TIP3    H228541   0.257   6.220  14.823 -1.3861  0.0820 -0.9404
 2376TIP3   OH228542   2.742   6.134  11.586  0.2744 -0.0221  0.2874
 2376TIP3    H128543   2.703   6.058  11.543  1.7597 -1.5492  1.4914
 2376TIP3    H228544   2.837   6.116  11.584  0.6436  1.7098  0.7779
 2377TIP3   OH228545   3.036   1.740  15.215 -0.2583 -0.1218 -0.1919
 2377TIP3    H128546   3.045   1.676  15.144 -2.4707  0.2255 -0.8426
 2377TIP3    H228547   3.062   1.691  15.294  3.6559 -0.1161 -1.2460
 2378TIP3   OH228548   4.500   4.806   4.530 -0.5497  0.4808  0.4170
 2378TIP3    H128549   4.570   4.814   4.464 -1.1902  0.4503 -0.2807
 2378TIP3    H228550   4.493   4.712   4.546 -1.1324  0.3971 -0.2917
 2379TIP3   OH228551   6.659   2.621  11.231 -0.3161 -0.9631  0.0574
 2379TIP3    H128552   6.711   2.555  11.184  1.1051 -0.3389  0.6824
 2379TIP3    H228553   6.632   2.682  11.163 -0.2076 -1.2865 -0.2828
 2380TIP3   OH228554   6.038   4.941  14.153  0.3146  0.3400  0.7270
 2380TIP3    H128555   6.091   5.021  14.153  0.2847  0.3788 -0.4466
 2380TIP3    H228556   6.070   4.891  14.228  0.1770  1.5403  1.6262
 2381TIP3   OH228557   2.655   2.911   2.785  0.3208 -0.3190  0.4761
 2381TIP3    H128558   2.692   2.957   2.861  1.6124 -0.6980  0.0926
 2381TIP3    H228559   2.693   2.824   2.789 -2.9400 -1.8730  1.8434
 2382TIP3   OH228560   0.217   1.026  13.350  0.2915  0.0204 -0.4575
 2382TIP3    H128561   0.299   1.017  13.302  0.9134 -2.9638  0.9024
 2382TIP3    H228562   0.151   0.985  13.294 -0.5016  2.8468 -1.7699
 2383TIP3   OH228563   3.521   1.766   3.118 -0.6687  0.5977  0.1044
 2383TIP3    H128564   3.530   1.743   3.026 -0.7725 -0.5195  0.3566
 2383TIP3    H228565   3.608   1.749   3.155 -0.1914  2.4694 -0.0580
 2384TIP3   OH228566   5.086   0.471  14.668 -0.0277 -0.6310  0.0004
 2384TIP3    H128567   5.156   0.530  14.696  0.0572 -0.4977 -0.4861
 2384TIP3    H228568   5.131   0.397  14.627 -0.1277 -1.1010  0.7185
 2385TIP3   OH228569   4.554   4.067  14.936 -0.6013  0.4183 -0.1580
 2385TIP3    H128570   4.648   4.087  14.933 -0.2478 -1.1624 -1.9743
 2385TIP3    H228571   4.520   4.099  14.852 -1.2521 -0.8063 -0.3876
 2386TIP3   OH228572   6.626   4.489   3.826 -0.0503 -0.0102 -0.5329
 2386TIP3    H128573   6.684   4.423   3.788  1.2052  0.2050  0.9087
 2386TIP3    H228574   6.556   4.439   3.868 -1.0015 -0.2686 -2.3117
 2387TIP3   OH228575   4.746   6.685   3.935 -0.6826  0.0684 -0.3642
 2387TIP3    H128576   4.679   6.677   3.867  0.2693  2.3700 -1.7067
 2387TIP3    H228577   4.702   6.731   4.007 -0.8586  0.5765 -0.7902
 2388TIP3   OH228578   4.247   1.618   1.279  0.2228 -0.2093 -0.0231
 2388TIP3    H128579   4.180   1.574   1.332 -1.5273 -1.5329 -3.0826
 2388TIP3    H228580   4.200   1.689   1.235  1.5848  0.7737  0.0391
 2389TIP3   OH228581   1.254   6.600   0.744 -0.8712 -0.7711  0.0882
 2389TIP3    H128582   1.236   6.517   0.788  1.3115 -1.1015  0.4702
 2389TIP3    H228583   1.329   6.581   0.687 -0.9847  0.6863 -0.5906
 2390TIP3   OH228584   4.546   6.043  12.742  0.0439  0.2620 -0.0577
 2390TIP3    H128585   4.462   5.998  12.748  0.9054 -1.3543  0.6771
 2390TIP3    H228586   4.557   6.062  12.649 -1.5260  1.3346 -0.0503
 2391TIP3   OH228587   2.923   4.093   3.856  0.4023  0.5099 -0.4859
 2391TIP3    H128588   2.954   4.007   3.887 -0.3146  0.4725  0.1615
 2391TIP3    H228589   2.973   4.156   3.908 -0.4688  0.4515  0.4552
 2392TIP3   OH228590   5.395   3.968   1.203  0.1408 -0.4275  0.7133
 2392TIP3    H128591   5.400   3.889   1.148  0.1504 -0.0967  0.2378
 2392TIP3    H228592   5.412   3.936   1.291  0.9501 -0.8366  0.4184
 2393TIP3   OH228593   0.209   0.498  17.248 -0.0401  0.3207  0.1486
 2393TIP3    H128594   0.283   0.542  17.207  0.8523 -1.5667 -0.4024
 2393TIP3    H228595   0.219   0.516  17.342  2.1213 -1.2203  0.2836
 2394TIP3   OH228596   3.447   0.091   1.988  0.2630  0.0582 -0.1420
 2394TIP3    H128597   3.404   0.097   1.903  0.6207  1.2958 -0.2588
 2394TIP3    H228598   3.386   0.040   2.042 -1.0641  1.1930 -0.4923
 2395TIP3   OH228599   2.223   1.351  15.849  0.0863 -0.2991  0.4618
 2395TIP3    H128600   2.189   1.440  15.855 -1.1982 -0.8198  1.4585
 2395TIP3    H228601   2.284   1.353  15.776  1.1962  1.7459  1.3819
 2396TIP3   OH228602   0.410   4.713   6.028 -0.4390  0.0506  0.6253
 2396TIP3    H128603   0.454   4.795   6.052  0.6458 -0.0972 -0.7094
 2396TIP3    H228604   0.318   4.737   6.017 -0.0247  1.2672 -0.4481
 2397TIP3   OH228605   6.112   2.086   2.650 -0.0627  0.1588 -0.8799
 2397TIP3    H128606   6.074   2.099   2.737 -1.0412 -3.7074 -0.5555
 2397TIP3    H228607   6.199   2.126   2.656 -0.7094  1.4180  1.2917
 2398TIP3   OH228608   1.903   1.572  15.664 -0.1530  0.3321  0.3150
 2398TIP3    H128609   1.948   1.654  15.645 -0.1598  0.5950  1.3515
 2398TIP3    H228610   1.909   1.521  15.583  0.9941  0.8272  0.0704
 2399TIP3   OH228611   5.625   5.769   1.211  0.6606  0.1694  0.5675
 2399TIP3    H128612   5.556   5.711   1.242  1.1631 -0.4370  0.5774
 2399TIP3    H228613   5.685   5.777   1.286  0.0565  1.5608  0.9277
 2400TIP3   OH228614   4.853   3.511   5.397 -0.4273  0.0724 -0.4656
 2400TIP3    H128615   4.902   3.493   5.478 -0.5509  1.1078 -0.1512
 2400TIP3    H228616   4.781   3.448   5.399  0.4661 -0.9990 -0.5880
 2401TIP3   OH228617   4.537   5.346   1.733 -0.0095  0.4978 -0.6490
 2401TIP3    H128618   4.544   5.428   1.684 -0.7049  1.3373  0.5891
 2401TIP3    H228619   4.445   5.340   1.757 -0.0764 -0.9377 -1.1617
 2402TIP3   OH228620   1.284   1.625  14.175  0.1728  0.0687  0.2559
 2402TIP3    H128621   1.227   1.626  14.098 -1.6665 -1.5046  1.5109
 2402TIP3    H228622   1.284   1.715  14.207 -0.4017  0.3885 -0.6301
 2403TIP3   OH228623   0.145   5.054  16.276  0.1304  0.4233 -0.3501
 2403TIP3    H128624   0.093   5.075  16.354 -1.7906  1.2306 -1.7382
 2403TIP3    H228625   0.135   5.131  16.220  3.4960  0.9106 -0.4409
 2404TIP3   OH228626   2.511   0.251  11.673 -0.3771  0.4914 -0.5568
 2404TIP3    H128627   2.553   0.267  11.757 -2.2861  3.2972  0.0237
 2404TIP3    H228628   2.583   0.246  11.610  0.9635  1.1734  0.8585
 2405TIP3   OH228629   0.301   3.699   1.395  0.4466 -0.1317 -0.5177
 2405TIP3    H128630   0.366   3.712   1.326  1.1770 -1.1953 -0.0480
 2405TIP3    H228631   0.286   3.605   1.397 -0.2836 -0.0120  0.1320
 2406TIP3   OH228632   3.973   3.349   2.800  0.4053 -0.5255 -0.2948
 2406TIP3    H128633   3.971   3.262   2.839  0.3101 -0.1863  0.4785
 2406TIP3    H228634   3.905   3.398   2.846  0.3113 -0.1042 -0.8699
 2407TIP3   OH228635   5.360   3.542  12.593 -0.4258  0.0690 -0.3327
 2407TIP3    H128636   5.425   3.472  12.594 -0.8757 -0.3559 -0.5803
 2407TIP3    H228637   5.320   3.537  12.506 -0.4945  0.6056 -0.3360
 2408TIP3   OH228638   0.360   2.147  11.382 -0.3477  0.2218 -0.3453
 2408TIP3    H128639   0.273   2.123  11.351  0.1817 -0.4830 -1.3164
 2408TIP3    H228640   0.344   2.193  11.465 -1.4839 -2.3979  0.9968
 2409TIP3   OH228641   6.231   2.706  12.842 -1.1577 -0.0552 -0.4223
 2409TIP3    H128642   6.167   2.637  12.825 -2.4457  0.7546  0.9555
 2409TIP3    H228643   6.288   2.669  12.910 -0.0130 -0.8381 -1.7646
 2410TIP3   OH228644   3.076   1.267   3.112  0.5890 -0.5054 -0.5816
 2410TIP3    H128645   3.029   1.184   3.117 -0.9999  0.3308 -0.8922
 2410TIP3    H228646   3.103   1.285   3.202 -2.0908  0.2575  0.1708
 2411TIP3   OH228647   4.120   1.531   4.121  0.2040 -0.1696  0.1074
 2411TIP3    H128648   4.101   1.620   4.148 -1.9045 -0.3777 -0.5516
 2411TIP3    H228649   4.080   1.522   4.035  2.4309 -1.0656 -0.9279
 2412TIP3   OH228650   5.450   2.021   1.028  0.2322  0.0662  0.4370
 2412TIP3    H128651   5.530   2.069   1.047 -0.3265  0.8447  0.8227
 2412TIP3    H228652   5.401   2.078   0.970 -1.0511  0.5766  1.9731
 2413TIP3   OH228653   5.313   3.987   3.988 -0.3523 -0.2642 -0.1112
 2413TIP3    H128654   5.257   3.911   4.000 -0.9358 -0.2742 -2.3268
 2413TIP3    H228655   5.282   4.027   3.906  0.1542  2.1744  0.7876
 2414TIP3   OH228656   0.850   1.722  12.984 -0.2240 -0.3983 -0.1201
 2414TIP3    H128657   0.883   1.740  12.896 -1.0487  0.0502 -0.3556
 2414TIP3    H228658   0.773   1.667  12.970 -1.1995  0.8175  0.1985
 2415TIP3   OH228659   4.487   4.963   4.214  0.1705  0.5648  0.1005
 2415TIP3    H128660   4.519   4.890   4.266  0.6320  0.0593 -0.8686
 2415TIP3    H228661   4.417   4.925   4.160 -1.3579  1.4121  1.4107
 2416TIP3   OH228662   3.644   0.488  12.194  0.2681  0.0003 -0.7233
 2416TIP3    H128663   3.669   0.580  12.195  2.5608 -0.5303 -2.0596
 2416TIP3    H228664   3.553   0.488  12.164  0.0735  1.8319 -0.2092
 2417TIP3   OH228665   0.724   1.822  15.302 -0.3402 -0.8041 -0.9964
 2417TIP3    H128666   0.811   1.858  15.317 -0.8310 -0.7212  2.3856
 2417TIP3    H228667   0.690   1.871  15.227  1.7515  0.5378 -1.1528
 2418TIP3   OH228668   6.170   1.181  15.695  0.1934  0.1692  0.1754
 2418TIP3    H128669   6.143   1.188  15.786  2.9889  4.4333  0.9771
 2418TIP3    H228670   6.099   1.223  15.646 -1.0770 -1.6800  0.3311
 2419TIP3   OH228671   2.422   0.856   1.641  0.2056 -0.0546  0.0707
 2419TIP3    H128672   2.352   0.920   1.657  1.6108  2.1763 -1.9169
 2419TIP3    H228673   2.442   0.820   1.727 -1.6016  1.1728  1.0699
 2420TIP3   OH228674   5.856   0.759  15.000 -0.0451  0.7643  0.6627
 2420TIP3    H128675   5.868   0.712  15.082  0.8681 -0.1704  0.0232
 2420TIP3    H228676   5.824   0.693  14.939 -4.2341  2.1416  1.0459
 2421TIP3   OH228677   3.355   4.130  15.181  0.2716 -0.2718 -0.8060
 2421TIP3    H128678   3.397   4.124  15.095  2.0375 -0.2720 -0.0074
 2421TIP3    H228679   3.331   4.222  15.189  0.4527 -0.1912 -1.1414
 2422TIP3   OH228680   5.425   2.604  12.239 -0.3602 -0.1976  0.5325
 2422TIP3    H128681   5.383   2.545  12.176 -0.1709 -0.8993  1.0623
 2422TIP3    H228682   5.408   2.692  12.204 -1.1751 -0.5334  0.0710
 2423TIP3   OH228683   5.494   0.064  17.180 -0.1051  0.2206  0.1333
 2423TIP3    H128684   5.574   0.013  17.188 -0.9094 -1.0081  0.6420
 2423TIP3    H228685   5.459   0.070  17.269 -0.4395  0.9739 -0.0371
 2424TIP3   OH228686   1.282   1.876   3.785  0.9690  0.6990  0.2251
 2424TIP3    H128687   1.352   1.822   3.822  0.0107  0.4282  1.7259
 2424TIP3    H228688   1.248   1.825   3.712 -1.3192 -1.8586  2.8503
 2425TIP3   OH228689   3.906   2.724  17.188 -0.0923 -0.1176 -0.0556
 2425TIP3    H128690   3.924   2.775  17.267  0.5590  1.4238 -1.1400
 2425TIP3    H228691   3.944   2.776  17.117 -3.3287  0.1191 -1.7715
 2426TIP3   OH228692   6.028   0.537  10.570 -0.1046  0.4619 -0.2617
 2426TIP3    H128693   5.957   0.515  10.631  0.1935  1.3076  0.4086
 2426TIP3    H228694   5.988   0.532  10.484 -0.9580  0.8321  0.1016
 2427TIP3   OH228695   5.043   3.076   1.644  0.2173 -0.4530  0.4398
 2427TIP3    H128696   5.010   3.006   1.587 -0.7879  0.5799 -0.2910
 2427TIP3    H228697   5.104   3.124   1.589 -2.1626  1.7052 -0.5114
 2428TIP3   OH228698   3.854   4.550  15.206  0.2728 -0.1326  0.0537
 2428TIP3    H128699   3.881   4.500  15.283 -0.1724 -1.5110 -0.6543
 2428TIP3    H228700   3.931   4.548  15.149 -0.0359 -0.7925 -0.3497
 2429TIP3   OH228701   6.263   6.474   4.957 -0.4696 -0.5725  0.5037
 2429TIP3    H128702   6.298   6.426   4.882  1.6469  1.2860  0.1983
 2429TIP3    H228703   6.232   6.556   4.920 -1.8575 -0.7011  1.3282
 2430TIP3   OH228704   3.461   3.720   3.071  0.4633 -0.0499  0.3629
 2430TIP3    H128705   3.510   3.705   3.151 -0.1937 -0.5471  0.6801
 2430TIP3    H228706   3.375   3.681   3.087  0.1071  0.4052 -0.3425
 2431TIP3   OH228707   6.279   0.794  13.617 -0.1976 -0.1411 -0.3984
 2431TIP3    H128708   6.339   0.857  13.578 -0.6480  0.9626  0.6053
 2431TIP3    H228709   6.226   0.763  13.544  1.5248 -1.1155 -1.3027
 2432TIP3   OH228710   3.348   6.047  15.681 -0.1271 -0.1495  0.5042
 2432TIP3    H128711   3.404   6.101  15.736  1.7599 -0.4733 -0.9971
 2432TIP3    H228712   3.351   5.960  15.721 -0.1645  0.0072  0.8472
 2433TIP3   OH228713   4.634   6.430   2.899  0.0848  0.2981 -0.0747
 2433TIP3    H128714   4.716   6.383   2.885 -0.1503  0.2182 -1.3359
 2433TIP3    H228715   4.591   6.382   2.970  1.1231  0.3667  0.6324
 2434TIP3   OH228716   3.336   3.318  11.280 -0.6224  0.1791  0.2765
 2434TIP3    H128717   3.295   3.398  11.314 -1.1560 -0.7629  1.9789
 2434TIP3    H228718   3.273   3.249  11.299  0.7247 -0.9602  0.7915
 2435TIP3   OH228719   2.410   4.952   5.401 -0.7765 -0.2242 -0.3497
 2435TIP3    H128720   2.488   4.896   5.393 -0.1811  0.7405 -1.8147
 2435TIP3    H228721   2.338   4.891   5.416  0.3470 -1.0878  2.0437
 2436TIP3   OH228722   0.219   5.567   0.807 -0.1743 -0.1341  0.4003
 2436TIP3    H128723   0.231   5.633   0.876  0.2179 -0.1298  0.3296
 2436TIP3    H228724   0.126   5.572   0.785 -0.2870 -0.0781  0.8730
 2437TIP3   OH228725   0.350   5.681  15.802  0.5791  0.2215 -0.2842
 2437TIP3    H128726   0.329   5.627  15.725  0.4007  0.8633 -0.6878
 2437TIP3    H228727   0.335   5.622  15.877 -1.1443  0.1775 -0.6228
 2438TIP3   OH228728   2.556   4.501   0.168 -0.2656  0.2216  0.5396
 2438TIP3    H128729   2.512   4.470   0.247 -0.3435 -1.3899 -0.1045
 2438TIP3    H228730   2.485   4.534   0.112 -0.2144  1.3195  1.0939
 2439TIP3   OH228731   0.279   5.800   2.060  0.8785 -0.5244 -0.1866
 2439TIP3    H128732   0.296   5.820   2.152 -0.0375  1.3954 -0.3771
 2439TIP3    H228733   0.343   5.854   2.012  0.9543 -1.0551 -0.6975
 2440TIP3   OH228734   6.148   5.795  16.292 -0.1047 -0.0638  0.1752
 2440TIP3    H128735   6.234   5.822  16.325 -0.0939  0.4369 -0.2464
 2440TIP3    H228736   6.138   5.844  16.210 -0.2100 -1.1313 -0.4712
 2441TIP3   OH228737   6.459   2.670  16.295  0.3619  0.0618  0.1346
 2441TIP3    H128738   6.395   2.599  16.294  0.3449  0.0313  1.4608
 2441TIP3    H228739   6.543   2.627  16.311  1.0235 -0.0665 -3.0125
 2442TIP3   OH228740   3.189   3.573  14.520 -0.3126 -0.6025  0.0274
 2442TIP3    H128741   3.176   3.482  14.547 -0.5732 -0.3684  0.7217
 2442TIP3    H228742   3.273   3.598  14.559 -1.1659  0.0527  1.5539
 2443TIP3   OH228743   4.141   0.209   3.940 -0.1735  0.3162 -0.1561
 2443TIP3    H128744   4.125   0.174   3.851 -1.6993  1.1371 -0.2366
 2443TIP3    H228745   4.236   0.202   3.951 -0.2353 -2.9611 -0.5293
 2444TIP3   OH228746   5.821   1.209  14.934 -0.5168  0.2076  0.0859
 2444TIP3    H128747   5.775   1.293  14.930  0.1424  0.5492 -1.2353
 2444TIP3    H228748   5.844   1.191  14.842  1.0069 -0.4793  0.5784
 2445TIP3   OH228749   3.088   0.950  10.917 -0.0075  0.2639  0.5563
 2445TIP3    H128750   3.129   0.883  10.972 -0.6658  0.3258  1.1259
 2445TIP3    H228751   3.162   0.992  10.871  0.3876 -1.0745 -0.0810
 2446TIP3   OH228752   4.906   2.196  15.452  0.1830  0.0811 -0.2685
 2446TIP3    H128753   4.860   2.181  15.369  2.0460 -4.9824 -0.7484
 2446TIP3    H228754   4.996   2.213  15.425  0.5101 -0.1460  0.6664
 2447TIP3   OH228755   2.233   2.868   2.030 -1.2140 -0.2430  0.1388
 2447TIP3    H128756   2.312   2.906   2.070 -0.6577  0.1993 -1.3050
 2447TIP3    H228757   2.167   2.937   2.039 -0.3381  1.0122 -2.0461
 2448TIP3   OH228758   5.218   4.593  11.720  0.5853 -0.5002  0.1027
 2448TIP3    H128759   5.294   4.572  11.775  1.5580  0.3384 -0.8742
 2448TIP3    H228760   5.167   4.654  11.773  0.8062 -0.7456  0.6092
 2449TIP3   OH228761   1.562   3.290   4.925  0.4694  0.1775  0.0489
 2449TIP3    H128762   1.547   3.273   5.018  1.4647  1.4118  0.4654
 2449TIP3    H228763   1.537   3.209   4.881 -0.0671 -0.4069  1.3823
 2450TIP3   OH228764   3.227   2.120  17.295 -0.2862 -0.2828 -0.7261
 2450TIP3    H128765   3.244   2.210  17.267 -2.1502  0.6258  0.8236
 2450TIP3    H228766   3.213   2.071  17.214 -1.4113  1.3114 -1.5483
 2451TIP3   OH228767   0.538   0.814  15.286 -0.0428  0.6686  0.4857
 2451TIP3    H128768   0.599   0.790  15.217  1.3768  0.3597  1.7967
 2451TIP3    H228769   0.554   0.908  15.301 -1.0721  0.9877 -0.2632
 2452TIP3   OH228770   2.169   4.028  10.884  0.5814  0.2825  0.3339
 2452TIP3    H128771   2.152   4.073  10.801  0.8709  0.9499  0.6385
 2452TIP3    H228772   2.252   4.063  10.914 -0.2263  1.1491  1.6496
 2453TIP3   OH228773   6.729   3.665   3.691 -0.2826 -0.0892 -0.2514
 2453TIP3    H128774   6.740   3.639   3.782  0.4937  0.1188 -0.2783
 2453TIP3    H228775   6.767   3.593   3.640 -1.2159 -0.4645 -0.4355
 2454TIP3   OH228776   0.556   5.306  12.508  0.0966  0.2990  0.1706
 2454TIP3    H128777   0.598   5.324  12.592  0.2508  0.3308  0.0873
 2454TIP3    H228778   0.467   5.279  12.531  0.3728 -0.4454  0.3893
 2455TIP3   OH228779   5.387   5.549   6.509  0.3786  0.6455  0.2300
 2455TIP3    H128780   5.413   5.559   6.600  4.3237  1.7002 -0.8101
 2455TIP3    H228781   5.464   5.578   6.459 -1.2614 -0.7201 -3.4359
 2456TIP3   OH228782   2.259   0.934   3.956  0.3117  0.4200  0.3307
 2456TIP3    H128783   2.350   0.910   3.976  0.8559 -0.2843 -2.5692
 2456TIP3    H228784   2.256   1.029   3.970  1.7739  0.6051 -0.4066
 2457TIP3   OH228785   6.456   4.928   6.283  0.6677 -0.1897  0.5753
 2457TIP3    H128786   6.362   4.945   6.282  0.9686  1.7206 -0.2348
 2457TIP3    H228787   6.496   5.015   6.274  2.5021 -1.0374  0.0405
 2458TIP3   OH228788   5.298   0.292  16.776  0.0299  0.4486  0.0102
 2458TIP3    H128789   5.300   0.196  16.771  2.5965  0.4526 -0.6140
 2458TIP3    H228790   5.323   0.311  16.867 -1.6162  0.5559  0.4640
 2459TIP3   OH228791   4.938   0.818   3.496 -0.5798 -0.0257 -0.6793
 2459TIP3    H128792   4.924   0.824   3.401 -1.6763  0.6212 -0.4855
 2459TIP3    H228793   4.998   0.890   3.516 -1.0131  0.3596 -0.7585
 2460TIP3   OH228794   1.096   0.855   1.798  0.4772  0.0201 -0.3866
 2460TIP3    H128795   1.019   0.804   1.772  0.5322 -0.5076  0.4734
 2460TIP3    H228796   1.150   0.858   1.719 -0.4770  0.5028 -1.0409
 2461TIP3   OH228797   5.199   1.310  12.137  1.0539 -0.5317  0.1644
 2461TIP3    H128798   5.122   1.276  12.182  1.7489 -1.3672  0.7667
 2461TIP3    H228799   5.245   1.361  12.205  1.6332 -1.0260  0.1495
 2462TIP3   OH228800   0.803   5.481   2.295  0.5168 -0.1646 -0.2558
 2462TIP3    H128801   0.863   5.550   2.323  0.9656 -0.4647 -0.4598
 2462TIP3    H228802   0.752   5.521   2.224 -1.3292  0.9289  1.5733
 2463TIP3   OH228803   6.490   3.384  12.419 -0.3381 -0.0100 -0.7701
 2463TIP3    H128804   6.542   3.310  12.386  0.3161  0.4912 -0.8828
 2463TIP3    H228805   6.523   3.459  12.371  0.0589  0.6119  0.4579
 2464TIP3   OH228806   1.687   1.220   4.339 -0.6251 -0.2140 -0.1504
 2464TIP3    H128807   1.671   1.241   4.247 -0.0862 -1.6547 -0.6023
 2464TIP3    H228808   1.778   1.189   4.341  0.4907  2.8071  1.4471
 2465TIP3   OH228809   5.158   4.334   5.968  0.0475  0.5825  0.3321
 2465TIP3    H128810   5.077   4.386   5.965 -0.6062 -0.3930  0.5289
 2465TIP3    H228811   5.194   4.350   6.055 -0.9640 -0.4579  0.9737
 2466TIP3   OH228812   1.617   4.934   1.002  0.1395 -0.5084  0.0341
 2466TIP3    H128813   1.704   4.921   0.964  0.1439  0.5117 -0.3241
 2466TIP3    H228814   1.564   4.863   0.965 -0.4565  1.6539 -3.7637
 2467TIP3   OH228815   2.025   2.543  15.279 -0.5785  0.3828 -0.3341
 2467TIP3    H128816   1.940   2.507  15.255 -1.2600  0.9647  1.0859
 2467TIP3    H228817   2.005   2.618  15.334  0.8316 -0.5089  1.5207
 2468TIP3   OH228818   2.524   3.694  12.758  0.0617  0.0479 -0.3922
 2468TIP3    H128819   2.611   3.726  12.779  0.2226  0.1862 -1.2436
 2468TIP3    H228820   2.469   3.772  12.753  0.1370  0.0693 -0.9817
 2469TIP3   OH228821   1.833   4.227   2.080  0.7646 -0.5232  0.1780
 2469TIP3    H128822   1.907   4.287   2.087 -0.3235  0.9588 -0.4889
 2469TIP3    H228823   1.804   4.215   2.170  0.9216  0.0561  0.3117
 2470TIP3   OH228824   0.894   4.881  14.249 -0.3213 -0.1949  0.1767
 2470TIP3    H128825   0.977   4.904  14.208 -1.6812  1.0043 -2.1447
 2470TIP3    H228826   0.896   4.925  14.333  1.2416  0.0916  0.0200
 2471TIP3   OH228827   6.375   0.350   2.310 -0.1589 -0.3692 -0.5959
 2471TIP3    H128828   6.457   0.300   2.312 -0.3062 -0.6476  2.0126
 2471TIP3    H228829   6.357   0.370   2.402 -1.3246  2.5385 -1.3335
 2472TIP3   OH228830   3.364   4.694   5.781 -0.1130 -0.3103 -0.3737
 2472TIP3    H128831   3.393   4.654   5.699 -0.2168  0.3622 -0.7469
 2472TIP3    H228832   3.364   4.622   5.844 -0.1561 -0.8678 -0.9934
 2473TIP3   OH228833   2.623   4.101  16.083  0.3386  0.5325 -0.1669
 2473TIP3    H128834   2.662   4.041  16.146  1.1674  0.6285 -0.5699
 2473TIP3    H228835   2.555   4.147  16.132  0.4619  0.0725  0.4470
 2474TIP3   OH228836   2.009   4.694  11.450 -0.1475  0.5481  0.6097
 2474TIP3    H128837   2.016   4.631  11.523  1.0666 -0.3218 -0.2227
 2474TIP3    H228838   2.096   4.733  11.444 -0.5021  1.2886  0.1947
 2475TIP3   OH228839   4.242   1.864  13.811  0.2997 -0.4616  0.3514
 2475TIP3    H128840   4.279   1.793  13.864  1.8546  0.6850  0.8492
 2475TIP3    H228841   4.149   1.865  13.835 -0.2275 -3.5467 -1.0913
 2476TIP3   OH228842   6.408   3.369  11.744 -0.2948  0.7248 -0.3270
 2476TIP3    H128843   6.320   3.348  11.712 -0.2566 -1.0374  0.5826
 2476TIP3    H228844   6.401   3.459  11.776 -1.8638  0.5040  0.0387
 2477TIP3   OH228845   3.376   0.844  12.149  0.0755 -0.4715 -0.2357
 2477TIP3    H128846   3.299   0.792  12.172 -0.9331 -0.0120 -2.3483
 2477TIP3    H228847   3.429   0.786  12.095  1.2631 -0.7889  1.2195
 2478TIP3   OH228848   6.135   5.471   5.023 -0.0580 -0.2058 -0.3424
 2478TIP3    H128849   6.176   5.387   5.003 -0.2645 -0.3558 -0.1308
 2478TIP3    H228850   6.153   5.485   5.115 -0.3724 -0.2121 -0.2778
 2479TIP3   OH228851   1.999   0.668  16.324 -0.1310  0.4562 -0.3598
 2479TIP3    H128852   1.968   0.696  16.237  1.7296 -1.6572 -1.8136
 2479TIP3    H228853   1.937   0.599  16.350 -0.5505  0.9263 -0.0921
 2480TIP3   OH228854   4.975   5.765  10.957  0.6221  0.0181  0.2198
 2480TIP3    H128855   4.959   5.764  11.051 -1.8807 -0.3737 -0.1420
 2480TIP3    H228856   4.931   5.844  10.926  1.8773  0.4271 -0.5727
 2481TIP3   OH228857   1.976   1.322  11.536 -0.5560  0.1925 -0.2883
 2481TIP3    H128858   1.916   1.320  11.611 -1.3106 -1.8730 -0.8796
 2481TIP3    H228859   2.056   1.281  11.568 -1.0225 -1.0715 -0.6899
 2482TIP3   OH228860   1.076   5.623  17.321 -0.2863 -0.1324 -0.5755
 2482TIP3    H128861   1.165   5.655  17.303  1.1222 -2.8303  0.9972
 2482TIP3    H228862   1.047   5.673  17.397  0.6799 -0.5455  0.0739
 2483TIP3   OH228863   1.316   0.682   2.442 -0.2614 -0.4198  0.1812
 2483TIP3    H128864   1.368   0.717   2.370  2.0627 -1.0673  1.4515
 2483TIP3    H228865   1.319   0.587   2.430 -0.1713 -0.5126  0.9219
 2484TIP3   OH228866   1.866   2.072   4.566  0.1335 -0.3212  0.7005
 2484TIP3    H128867   1.793   2.102   4.619 -0.3779 -0.7346  0.2488
 2484TIP3    H228868   1.932   2.141   4.574 -1.0203  0.9584 -0.3688
 2485TIP3   OH228869   1.187   3.989  15.058 -0.4641  0.5467  0.2981
 2485TIP3    H128870   1.151   4.074  15.083  1.9232  1.7289  0.0074
 2485TIP3    H228871   1.247   4.009  14.986 -2.1726 -1.8468 -1.9537
 2486TIP3   OH228872   5.214   5.460   5.118  0.1680  0.0146 -0.2530
 2486TIP3    H128873   5.118   5.457   5.116  0.0297  2.0002  0.7325
 2486TIP3    H228874   5.240   5.382   5.166 -0.9523 -0.5124 -0.4773
 2487TIP3   OH228875   0.172   2.633  13.124  0.3990  0.4710  0.0508
 2487TIP3    H128876   0.107   2.595  13.064  0.2004  0.5558  0.2100
 2487TIP3    H228877   0.216   2.700  13.072 -0.0408  0.8138  0.1128
 2488TIP3   OH228878   2.845   5.367  17.147  0.7495  0.2627 -0.0190
 2488TIP3    H128879   2.881   5.421  17.217  1.0203 -0.5370  0.4784
 2488TIP3    H228880   2.916   5.358  17.084  1.0258 -0.2820  0.3587
 2489TIP3   OH228881   1.582   3.193  13.968 -0.1780  0.0060  0.1286
 2489TIP3    H128882   1.511   3.129  13.964  1.0241 -1.3281 -0.8069
 2489TIP3    H228883   1.656   3.145  14.004  0.7665  0.8432 -0.6350
 2490TIP3   OH228884   6.725   2.966  11.993  0.3484 -0.2162  0.0063
 2490TIP3    H128885   6.819   2.983  11.986  0.3101 -0.3632 -1.1492
 2490TIP3    H228886   6.709   2.954  12.086  1.3988  0.2475  0.2591
 2491TIP3   OH228887   3.492   0.577   4.621 -0.2161 -0.1860 -0.7763
 2491TIP3    H128888   3.482   0.496   4.571 -1.1318 -0.4721 -0.1523
 2491TIP3    H228889   3.405   0.617   4.620 -0.3387 -0.3482  0.8077
 2492TIP3   OH228890   1.033   6.210  16.312 -0.2473  0.1777  0.4308
 2492TIP3    H128891   1.124   6.194  16.286 -1.0116 -1.2113 -1.5491
 2492TIP3    H228892   0.996   6.123  16.327 -1.2576  0.7301  1.3108
 2493TIP3   OH228893   6.481   2.197   0.570  0.3711  1.0210  0.1906
 2493TIP3    H128894   6.486   2.130   0.502  0.8354  0.4593  0.7618
 2493TIP3    H228895   6.485   2.148   0.652  0.5590  1.7363  0.6177
 2494TIP3   OH228896   2.554   1.242   4.647 -0.5521 -0.5742 -0.1610
 2494TIP3    H128897   2.583   1.274   4.562  0.7332  1.9824  1.1279
 2494TIP3    H228898   2.523   1.320   4.693  0.7551 -1.4815  2.4763
 2495TIP3   OH228899   2.395   4.812   2.901 -0.2665 -0.7217  0.2423
 2495TIP3    H128900   2.339   4.865   2.959  1.9253  0.3032  1.5377
 2495TIP3    H228901   2.423   4.739   2.956 -1.1249 -1.8177 -0.7312
 2496TIP3   OH228902   2.931   2.479   4.877 -0.1554 -0.2904 -0.0831
 2496TIP3    H128903   2.909   2.395   4.837  0.4802 -1.0742  1.1642
 2496TIP3    H228904   2.929   2.541   4.804 -1.0432 -1.2981 -0.9523
 2497TIP3   OH228905   0.379   2.870   3.940  0.5744  0.0415  0.6597
 2497TIP3    H128906   0.403   2.777   3.947  0.2900 -0.1918 -1.0572
 2497TIP3    H228907   0.445   2.907   3.881  0.9060  1.0394  1.6211
 2498TIP3   OH228908   3.180   5.563   4.922 -0.3179  0.3461 -0.4304
 2498TIP3    H128909   3.153   5.536   5.009 -0.1275  0.5539 -0.3049
 2498TIP3    H228910   3.247   5.499   4.896  1.8478  1.9595  0.8179
 2499TIP3   OH228911   5.725   6.331   4.846 -0.3208 -0.1948  0.0236
 2499TIP3    H128912   5.674   6.325   4.766 -0.8200 -1.2293  0.3949
 2499TIP3    H228913   5.670   6.289   4.913  0.9751 -1.3006  0.4388
 2500TIP3   OH228914   4.647   3.603  11.714 -0.5444  0.1641 -0.6572
 2500TIP3    H128915   4.560   3.643  11.717 -1.1404 -1.0987 -0.6624
 2500TIP3    H228916   4.672   3.592  11.806 -1.3813 -1.5441 -0.6143
 2501TIP3   OH228917   4.037   6.224   4.800 -0.7313 -0.2921 -0.0882
 2501TIP3    H128918   3.959   6.257   4.755 -0.0821  0.3827 -0.7170
 2501TIP3    H228919   4.108   6.233   4.737 -0.1042 -0.7882  0.5284
 2502TIP3   OH228920   5.290   0.577   4.884  0.3659  0.7312 -0.0723
 2502TIP3    H128921   5.254   0.557   4.970  0.0904 -0.7173 -0.4904
 2502TIP3    H228922   5.215   0.611   4.834  0.1535  0.1106 -0.1870
 2503TIP3   OH228923   5.785   1.827   0.456 -0.0478  0.0204  0.3600
 2503TIP3    H128924   5.766   1.866   0.370  0.9106 -1.1295 -0.4111
 2503TIP3    H228925   5.845   1.889   0.497 -1.2116  1.0338  0.6131
 2504TIP3   OH228926   3.004   6.071  15.755  0.7583  0.5540 -0.2098
 2504TIP3    H128927   2.950   6.008  15.708  0.5655  1.9976 -2.0227
 2504TIP3    H228928   3.048   6.121  15.686 -0.3732  3.5103  1.0346
 2505TIP3   OH228929   0.854   6.269  12.350  0.3471 -0.0019 -0.0232
 2505TIP3    H128930   0.836   6.175  12.345  1.3491 -0.2580  0.8428
 2505TIP3    H228931   0.950   6.275  12.354  0.2625  0.9250  1.7598
 2506TIP3   OH228932   3.773   3.772   0.389 -0.6039 -0.5907  0.0903
 2506TIP3    H128933   3.863   3.765   0.420 -0.2718  0.1306 -0.6833
 2506TIP3    H228934   3.740   3.851   0.431 -0.4141 -0.0626 -0.7514
 2507TIP3   OH228935   1.838   4.130  16.010 -0.5944  0.1629  0.4213
 2507TIP3    H128936   1.883   4.082  15.941 -1.6528 -0.0596 -0.1391
 2507TIP3    H228937   1.848   4.076  16.088 -0.3058 -0.1148  0.1894
 2508TIP3   OH228938   2.110   1.029   3.213 -0.3341 -0.3690 -0.1489
 2508TIP3    H128939   2.085   1.014   3.304  0.7462 -0.3005  0.1797
 2508TIP3    H228940   2.029   1.055   3.169 -0.4995  1.7101  1.2538
 2509TIP3   OH228941   0.427   3.034  14.410 -0.3589 -0.2324 -0.3094
 2509TIP3    H128942   0.370   2.960  14.427 -0.9830 -0.0111 -1.3741
 2509TIP3    H228943   0.497   2.998  14.354  0.0866 -0.3130  0.2909
 2510TIP3   OH228944   2.018   5.698   4.782 -0.1665 -0.0487 -0.7290
 2510TIP3    H128945   2.010   5.667   4.872 -1.1485  1.4335 -0.2663
 2510TIP3    H228946   2.052   5.623   4.734  0.1130 -0.9616  0.8148
 2511TIP3   OH228947   5.421   4.717  11.152 -0.5242  0.5111 -0.4076
 2511TIP3    H128948   5.425   4.781  11.081  2.5676  0.8629 -0.0337
 2511TIP3    H228949   5.430   4.770  11.232 -2.5438 -0.0178  0.2322
 2512TIP3   OH228950   4.330   2.013   6.043  0.1183  0.4206 -0.1448
 2512TIP3    H128951   4.420   2.018   6.073  0.2351 -0.5551 -0.2893
 2512TIP3    H228952   4.299   2.103   6.043  1.0563  0.7503  0.0164
 2513TIP3   OH228953   0.899   1.472   4.671 -0.4642 -0.2628 -0.5244
 2513TIP3    H128954   0.955   1.418   4.615 -0.0562  1.3274 -1.7335
 2513TIP3    H228955   0.853   1.530   4.609 -1.9383 -0.1673  0.6051
 2514TIP3   OH228956   5.740   0.314   1.221 -0.5420 -0.2283 -0.1291
 2514TIP3    H128957   5.675   0.244   1.214 -1.4668  0.6873 -1.0920
 2514TIP3    H228958   5.823   0.268   1.236 -1.4491 -1.3941  1.6352
 2515TIP3   OH228959   1.133   4.453  12.453  0.1637  0.4541  0.3312
 2515TIP3    H128960   1.052   4.447  12.502 -0.0242  0.6463  0.0503
 2515TIP3    H228961   1.118   4.525  12.391  1.3281  1.9736  1.7401
 2516TIP3   OH228962   5.032   3.238  10.210  0.2486 -0.4465  0.1263
 2516TIP3    H128963   5.074   3.191  10.137 -0.4150 -1.4992  0.4031
 2516TIP3    H228964   5.080   3.209  10.288  0.0406 -0.4161  0.2664
 2517TIP3   OH228965   5.357   4.575   3.772 -0.2395  0.4464  0.3527
 2517TIP3    H128966   5.330   4.642   3.835 -1.9580 -0.7339  0.9707
 2517TIP3    H228967   5.398   4.624   3.701  0.1217  1.9846  1.5625
 2518TIP3   OH228968   3.265   6.238  14.430 -0.0851  0.0737  0.0865
 2518TIP3    H128969   3.190   6.197  14.474 -1.8362  1.8158 -1.1034
 2518TIP3    H228970   3.233   6.256  14.341  1.4063  1.7700 -0.1560
 2519TIP3   OH228971   4.202   2.615  11.713 -0.1480 -0.0812 -0.0170
 2519TIP3    H128972   4.289   2.625  11.753 -0.4696  2.4164  0.1584
 2519TIP3    H228973   4.142   2.608  11.788 -0.4834  2.1379 -0.0353
 2520TIP3   OH228974   5.316   3.956   5.078 -0.2906  0.4480  0.1505
 2520TIP3    H128975   5.278   3.872   5.052  1.0589  0.7288 -3.1619
 2520TIP3    H228976   5.245   4.001   5.124 -1.9047 -1.4149 -0.3477
 2521TIP3   OH228977   4.638   2.677  16.750 -0.0094 -0.1442 -0.5847
 2521TIP3    H128978   4.623   2.769  16.773 -0.0033  0.0708 -1.3987
 2521TIP3    H228979   4.584   2.627  16.811  0.1107  0.3968 -0.0346
 2522TIP3   OH228980   6.132   3.279  11.951 -0.1743 -0.0887 -0.1582
 2522TIP3    H128981   6.133   3.374  11.961  1.4522 -0.1401  0.4390
 2522TIP3    H228982   6.086   3.264  11.868  0.1511  1.2494 -0.6038
 2523TIP3   OH228983   4.708   3.378  15.461  0.4033  0.0337 -0.2732
 2523TIP3    H128984   4.688   3.451  15.403 -2.5650 -0.6116 -0.2492
 2523TIP3    H228985   4.687   3.410  15.549 -0.9717 -0.7937 -0.2653
 2524TIP3   OH228986   3.166   0.427   5.930 -0.3401 -0.0939  0.3015
 2524TIP3    H128987   3.184   0.335   5.951 -1.3848  0.0077  1.7677
 2524TIP3    H228988   3.215   0.477   5.996  1.0574  0.4867 -1.1003
 2525TIP3   OH228989   1.980   3.810   0.492  0.5283 -0.4241 -0.5469
 2525TIP3    H128990   1.940   3.725   0.477 -0.6620  0.1656 -0.8501
 2525TIP3    H228991   1.909   3.863   0.529  0.4226  1.2349 -2.9303
 2526TIP3   OH228992   2.110   2.121   5.112  0.6116  0.2296 -0.7672
 2526TIP3    H128993   2.172   2.081   5.174  0.4701  2.6289  1.1022
 2526TIP3    H228994   2.043   2.054   5.099  1.7464 -1.1289 -0.0056
 2527TIP3   OH228995   1.535   5.135  14.587  0.0485 -0.2133  0.5573
 2527TIP3    H128996   1.507   5.206  14.644 -2.6701  0.6059 -1.5749
 2527TIP3    H228997   1.609   5.172  14.538 -0.5749  0.7502  0.3164
 2528TIP3   OH228998   4.670   6.007   3.711 -0.0623 -0.0266  0.1401
 2528TIP3    H128999   4.621   5.934   3.673  0.2570  0.7853 -1.9896
 2528TIP3    H229000   4.639   6.012   3.801 -1.1583 -1.8612 -0.0761
 2529TIP3   OH229001   6.556   5.951   5.952  0.0169  0.4395  0.3375
 2529TIP3    H129002   6.483   5.955   6.013  0.1877 -2.9228  0.9974
 2529TIP3    H229003   6.519   5.909   5.874  0.8537  0.1624  0.0752
 2530TIP3   OH229004   0.761   3.510  16.820  0.2400  0.2674 -0.1249
 2530TIP3    H129005   0.794   3.458  16.746  0.1192 -0.9630  0.6559
 2530TIP3    H229006   0.816   3.588  16.821  0.1886  0.3381 -1.5614
 2531TIP3   OH229007   2.232   6.619   0.400  0.8466 -0.2077 -0.0535
 2531TIP3    H129008   2.206   6.582   0.315  1.1111 -1.9642  0.5951
 2531TIP3    H229009   2.150   6.647   0.440  0.6869  0.3394 -0.7455
 2532TIP3   OH229010   4.073   1.059  13.584  0.1021 -0.1879  0.4005
 2532TIP3    H129011   4.069   0.969  13.550 -0.4982 -0.1022  0.2271
 2532TIP3    H229012   4.004   1.105  13.536  1.5478  0.8255 -0.7918
 2533TIP3   OH229013   5.855   1.689  14.614 -0.7379  0.0665  0.0264
 2533TIP3    H129014   5.924   1.708  14.678 -0.2811 -3.0653  0.5926
 2533TIP3    H229015   5.784   1.651  14.666 -2.2690  1.6601 -0.7915
 2534TIP3   OH229016   1.586   3.520  16.299 -0.4579  0.0640 -0.0818
 2534TIP3    H129017   1.531   3.597  16.310 -1.4939 -0.7436  0.6050
 2534TIP3    H229018   1.578   3.473  16.382 -1.2627 -1.6572 -1.0818
 2535TIP3   OH229019   2.764   1.888  16.517 -0.5803  0.1927 -0.2361
 2535TIP3    H129020   2.849   1.858  16.549  0.0020 -0.3192 -2.0881
 2535TIP3    H229021   2.767   1.983  16.529 -0.2739  0.0511  0.8786
 2536TIP3   OH229022   4.729   5.170  13.148 -0.6659  0.0880  0.2591
 2536TIP3    H129023   4.775   5.151  13.067  0.2129  2.3030  0.1614
 2536TIP3    H229024   4.795   5.159  13.217 -0.9632 -0.1953  0.5029
 2537TIP3   OH229025   5.035   2.258   3.548 -0.1474  0.3091  1.1466
 2537TIP3    H129026   5.128   2.243   3.558 -0.1902 -0.1810  0.8153
 2537TIP3    H229027   4.994   2.175   3.573 -0.4887  0.4973  1.2204
 2538TIP3   OH229028   1.961   2.931   4.085  0.2470  0.0990 -0.5496
 2538TIP3    H129029   1.921   2.996   4.143 -0.1868 -1.5084  1.0111
 2538TIP3    H229030   2.055   2.948   4.090  0.2390 -0.1524  0.8375
 2539TIP3   OH229031   2.070   4.587   1.721  0.5070 -0.4463 -0.0404
 2539TIP3    H129032   2.065   4.497   1.751 -1.3575 -0.2450  0.3635
 2539TIP3    H229033   2.160   4.597   1.691  0.3006 -2.9749 -1.8191
 2540TIP3   OH229034   6.322   0.564   2.170 -0.1652 -0.0914 -0.4429
 2540TIP3    H129035   6.284   0.617   2.240 -1.3514 -1.3313 -0.0898
 2540TIP3    H229036   6.351   0.484   2.214 -0.5173 -0.6973 -1.2738
 2541TIP3   OH229037   3.629   1.711  12.513 -0.4938 -0.1256 -0.1369
 2541TIP3    H129038   3.581   1.650  12.569 -1.6364 -0.2944 -1.2593
 2541TIP3    H229039   3.561   1.762  12.469  0.3421 -0.2640 -1.6450
 2542TIP3   OH229040   3.220   4.956  14.129  0.2011 -0.0962 -0.1128
 2542TIP3    H129041   3.130   4.934  14.103  0.2691 -0.5760  0.0482
 2542TIP3    H229042   3.209   5.023  14.197 -0.1530 -1.7674  1.5710
 2543TIP3   OH229043   0.565   5.289   2.937 -0.1674  0.4139  0.3103
 2543TIP3    H129044   0.585   5.240   2.857  0.8507 -0.2646  0.9576
 2543TIP3    H229045   0.509   5.230   2.988  2.5345 -0.9484  1.9124
 2544TIP3   OH229046   6.150   0.507  15.193 -0.8755  0.2410 -0.3091
 2544TIP3    H129047   6.056   0.521  15.206 -0.4970  3.2649 -0.0806
 2544TIP3    H229048   6.181   0.588  15.152  1.7677 -0.3611  0.3127
 2545TIP3   OH229049   5.165   3.978   6.091  0.2677 -0.4219 -0.3599
 2545TIP3    H129050   5.112   3.902   6.118 -0.8745  0.1719 -0.8777
 2545TIP3    H229051   5.142   4.046   6.154 -0.2531  0.1095 -1.1258
 2546TIP3   OH229052   2.020   1.971  12.604  0.1207 -0.9761  0.3161
 2546TIP3    H129053   1.956   1.947  12.537 -1.2370 -0.4773  1.3991
 2546TIP3    H229054   2.088   2.019  12.557 -0.5156 -1.1406 -0.7921
 2547TIP3   OH229055   2.607   6.369   5.846 -0.1783  0.2751  0.2591
 2547TIP3    H129056   2.559   6.430   5.791  0.9765  0.0031 -1.1134
 2547TIP3    H229057   2.568   6.379   5.933 -2.0830  0.6744 -0.5992
 2548TIP3   OH229058   3.722   5.214   5.527 -0.3385  0.0568 -0.3601
 2548TIP3    H129059   3.639   5.257   5.505 -1.6409 -0.9736  2.1880
 2548TIP3    H229060   3.698   5.146   5.589  2.3792 -0.6655  0.0101
 2549TIP3   OH229061   4.739   0.675   2.721  0.2017 -0.0106 -0.0975
 2549TIP3    H129062   4.748   0.597   2.776 -0.9951  1.3766  2.2205
 2549TIP3    H229063   4.718   0.640   2.634 -0.5563 -2.2657  0.8973
 2550TIP3   OH229064   6.594   4.090   5.418  0.4356 -0.3192  0.0928
 2550TIP3    H129065   6.603   4.181   5.447  2.0242 -0.3480 -0.2497
 2550TIP3    H229066   6.611   4.038   5.497  0.0493 -0.3369  0.1677
 2551TIP3   OH229067   3.977   4.958  17.354  0.2693  0.2343  0.0553
 2551TIP3    H129068   4.024   5.038  17.330  1.1588 -0.1491  0.4446
 2551TIP3    H229069   3.892   4.989  17.386 -0.6189  0.8089 -2.6318
 2552TIP3   OH229070   4.237   2.886   3.690 -0.2262  0.1359  0.1189
 2552TIP3    H129071   4.248   2.860   3.598  2.3482  0.7636  0.1721
 2552TIP3    H229072   4.174   2.822   3.725  0.1040 -1.2415 -1.6146
 2553TIP3   OH229073   3.694   4.032  12.062 -0.4477  0.4664  0.0785
 2553TIP3    H129074   3.665   4.074  12.143  1.0270  1.4001  0.1666
 2553TIP3    H229075   3.776   4.076  12.040 -0.4156 -0.2994 -1.5173
 2554TIP3   OH229076   2.617   2.583   4.813 -0.5640  0.0205 -0.5105
 2554TIP3    H129077   2.650   2.524   4.881 -0.9052  1.6615  1.1876
 2554TIP3    H229078   2.649   2.547   4.731  0.2015 -1.8429  0.5598
 2555TIP3   OH229079   2.555   0.951   4.584  0.2158 -0.2246 -0.2810
 2555TIP3    H129080   2.466   0.933   4.612  0.5042  0.2523  0.9990
 2555TIP3    H229081   2.559   1.047   4.576  0.3240 -0.3014 -1.3987
 2556TIP3   OH229082   4.180   3.155   0.814 -0.0512 -0.3325 -0.2162
 2556TIP3    H129083   4.191   3.175   0.721 -0.0255  2.2886  0.2956
 2556TIP3    H229084   4.140   3.067   0.814  1.5461 -1.1629 -2.6070
 2557TIP3   OH229085   3.134   0.316  13.934 -0.0194  0.7080 -0.3124
 2557TIP3    H129086   3.114   0.311  13.840 -2.5406  2.0019  0.0691
 2557TIP3    H229087   3.137   0.225  13.962 -2.0368  0.3174 -1.1795
 2558TIP3   OH229088   6.055   4.438  11.980  0.0043 -0.2792 -0.1937
 2558TIP3    H129089   6.067   4.360  11.926 -1.2554 -1.1656  0.7435
 2558TIP3    H229090   6.106   4.506  11.936  1.5561 -1.7475 -0.7490
 2559TIP3   OH229091   5.087   1.099  13.022  0.2533 -0.5468  0.3949
 2559TIP3    H129092   5.112   1.046  12.946 -1.1352 -1.9539  0.8722
 2559TIP3    H229093   4.994   1.116  13.010  0.3610  0.5618  1.0140
 2560TIP3   OH229094   5.274   3.048  16.524 -0.5316  0.4838 -0.0645
 2560TIP3    H129095   5.243   2.959  16.504 -0.5022  0.8967 -2.1951
 2560TIP3    H229096   5.255   3.098  16.444  0.2809  2.1828  0.7635
 2561TIP3   OH229097   2.087   4.523  16.304  0.1400  0.1668 -0.0888
 2561TIP3    H129098   2.177   4.502  16.329  0.2693 -0.4723 -1.0564
 2561TIP3    H229099   2.045   4.548  16.386  0.7417 -1.1589  0.6542
 2562TIP3   OH229100   6.132   2.280   0.774  0.3536 -0.3601 -0.3776
 2562TIP3    H129101   6.140   2.189   0.802  0.2883 -0.3388 -0.2912
 2562TIP3    H229102   6.217   2.319   0.795 -0.1071 -0.0158  0.9597
 2563TIP3   OH229103   3.814   5.545   0.135  0.4134  0.5177  0.1091
 2563TIP3    H129104   3.733   5.503   0.104  0.8541 -1.2280  1.1964
 2563TIP3    H229105   3.877   5.529   0.065  0.1630  0.7987 -0.1881
 2564TIP3   OH229106   0.852   4.431   1.022 -0.5356 -0.1683  0.0158
 2564TIP3    H129107   0.769   4.404   0.985 -1.2837  1.7793  0.1628
 2564TIP3    H229108   0.918   4.396   0.962 -1.5835  0.6032 -1.6610
 2565TIP3   OH229109   5.079   5.758  14.857 -0.2095 -0.0155  0.7642
 2565TIP3    H129110   4.999   5.708  14.837  0.1897 -0.4129  0.1391
 2565TIP3    H229111   5.047   5.844  14.882 -0.8474 -0.2174  0.6706
 2566TIP3   OH229112   6.754   4.374   5.050  0.7605 -0.0986  0.1027
 2566TIP3    H129113   6.777   4.446   4.991  3.1437 -1.2224 -0.4341
 2566TIP3    H229114   6.758   4.413   5.138 -0.0623  0.8982 -0.2738
 2567TIP3   OH229115   3.703   5.844  10.534  0.2790  0.5910  0.0496
 2567TIP3    H129116   3.754   5.830  10.614  1.3937  2.0745 -0.3396
 2567TIP3    H229117   3.672   5.757  10.510 -0.0234  0.0966  2.0331
 2568TIP3   OH229118   1.878   4.287   2.744  0.7396 -0.0583  0.0762
 2568TIP3    H129119   1.936   4.217   2.714 -2.0312 -2.5383  0.0711
 2568TIP3    H229120   1.795   4.271   2.700 -0.4095  2.5190  1.0866
 2569TIP3   OH229121   2.936   5.307   5.335  0.4168  0.3194  0.0171
 2569TIP3    H129122   2.859   5.274   5.381 -1.7720  0.7128 -3.0618
 2569TIP3    H229123   2.981   5.361   5.399 -1.1046 -0.9986  2.3405
 2570TIP3   OH229124   4.396   1.801   5.127 -0.0388  0.1312 -0.0337
 2570TIP3    H129125   4.303   1.785   5.110 -0.2637  2.0355 -0.8198
 2570TIP3    H229126   4.411   1.890   5.095  1.8599  0.1844  0.8906
 2571TIP3   OH229127   1.627   6.503  13.973 -0.3813  0.0706 -0.3686
 2571TIP3    H129128   1.535   6.487  13.992 -0.4487 -0.2143 -0.9238
 2571TIP3    H229129   1.660   6.418  13.943  0.6041 -0.4267  1.9010
 2572TIP3   OH229130   2.526   4.888   5.832  0.1165 -0.0425  0.3565
 2572TIP3    H129131   2.619   4.896   5.807 -0.2785  0.3960 -1.0751
 2572TIP3    H229132   2.493   4.978   5.826 -0.5170 -0.2747  0.3459
 2573TIP3   OH229133   1.084   2.190   0.019  0.1968 -0.7705 -0.1157
 2573TIP3    H129134   1.171   2.160  -0.009 -0.2447 -1.7234 -0.4953
 2573TIP3    H229135   1.045   2.228  -0.059  0.4706  0.1758  0.1904
 2574TIP3   OH229136   2.790   1.435   1.888  0.2973 -0.2700  0.2280
 2574TIP3    H129137   2.726   1.365   1.900 -1.7139  1.5118  0.5259
 2574TIP3    H229138   2.787   1.455   1.794 -1.4422  1.3632  0.5563
 2575TIP3   OH229139   4.506   3.923  12.237 -0.5217 -0.9037 -0.1226
 2575TIP3    H129140   4.454   3.859  12.188  0.1396 -1.4210 -0.1571
 2575TIP3    H229141   4.443   3.964  12.296 -1.1941 -0.7468 -0.9195
 2576TIP3   OH229142   0.356   3.986   1.818 -0.1174 -0.0763  0.3961
 2576TIP3    H129143   0.272   3.972   1.776 -0.7746  2.6252  0.5971
 2576TIP3    H229144   0.345   3.951   1.907 -0.7307 -0.4890  0.1623
 2577TIP3   OH229145   2.462   2.489   1.987  0.0587  0.3866 -0.2013
 2577TIP3    H129146   2.436   2.515   2.076 -1.9627  0.5766 -0.7953
 2577TIP3    H229147   2.533   2.426   2.000  0.2915  0.9571  1.5194
 2578TIP3   OH229148   5.350   3.329   2.829 -0.4156  0.3031  0.6906
 2578TIP3    H129149   5.416   3.261   2.816 -0.3071  0.3605  0.9318
 2578TIP3    H229150   5.394   3.411   2.808 -1.0814  0.1615 -1.4643
 2579TIP3   OH229151   3.586   5.358   4.746  0.4353 -0.2951  0.0620
 2579TIP3    H129152   3.631   5.292   4.693  2.3526  1.2211 -0.3027
 2579TIP3    H229153   3.644   5.434   4.745 -1.3126  1.1521  1.1228
 2580TIP3   OH229154   5.742   3.415   1.112  0.5033 -0.2546 -0.1160
 2580TIP3    H129155   5.683   3.379   1.045  1.9661 -1.3773 -0.8538
 2580TIP3    H229156   5.767   3.501   1.077 -2.2463  1.2152  1.1996
 2581TIP3   OH229157   4.919   1.593   2.769  0.2051 -0.1118  0.8194
 2581TIP3    H129158   4.968   1.619   2.846 -1.4356  0.7405  1.6282
 2581TIP3    H229159   4.941   1.658   2.702  0.9410 -0.3334  0.8446
 2582TIP3   OH229160   2.698   2.421  15.128  0.4727 -0.2004  0.1844
 2582TIP3    H129161   2.706   2.492  15.191  0.1400 -0.1518  0.1718
 2582TIP3    H229162   2.701   2.341  15.181  1.5292 -0.2079  0.1376
 2583TIP3   OH229163   0.986   5.071   3.162 -0.4076  0.4755  0.0459
 2583TIP3    H129164   1.061   5.131   3.169 -0.1111  0.6097 -2.9883
 2583TIP3    H229165   1.021   4.986   3.186  0.3987  0.7709 -0.0299
 2584TIP3   OH229166   5.782   4.936   5.846 -0.2515 -0.0595 -0.0874
 2584TIP3    H129167   5.846   4.867   5.863  0.3202  0.2594 -0.8374
 2584TIP3    H229168   5.806   5.006   5.906  0.9130  0.5422 -1.1989
 2585TIP3   OH229169   5.051   5.862  13.927 -0.2119  0.2390 -0.7459
 2585TIP3    H129170   4.993   5.937  13.941 -0.2139  0.5249 -2.1009
 2585TIP3    H229171   5.007   5.789  13.970 -1.2185  0.6205 -1.0950
 2586TIP3   OH229172   0.303   5.070  15.662  0.1090  0.0484  0.3680
 2586TIP3    H129173   0.337   5.136  15.723  1.3929  0.5433 -0.8056
 2586TIP3    H229174   0.381   5.039  15.615 -0.8923  0.2202 -1.5152
 2587TIP3   OH229175   4.903   5.784   2.198  0.5971 -0.0778  0.2449
 2587TIP3    H129176   4.825   5.734   2.224 -0.0211  0.6305 -0.2220
 2587TIP3    H229177   4.910   5.769   2.104 -2.1963  4.1261 -0.8893
 2588TIP3   OH229178   4.906   1.744   0.571  0.2313 -0.3739  0.2399
 2588TIP3    H129179   4.951   1.738   0.486  0.7801  0.4158  0.4605
 2588TIP3    H229180   4.842   1.673   0.569  0.5922 -0.6951 -0.6244
 2589TIP3   OH229181   4.371   1.771   4.750  1.1217 -0.1006  0.6578
 2589TIP3    H129182   4.317   1.734   4.820  0.6102  0.3010  0.4798
 2589TIP3    H229183   4.343   1.862   4.743  0.5991 -0.3354 -0.6061
 2590TIP3   OH229184   0.042   4.081  15.760  0.1629 -0.2362  0.0654
 2590TIP3    H129185   0.085   4.149  15.812 -0.8642  1.2558 -0.9405
 2590TIP3    H229186   0.009   4.018  15.824  2.0602 -0.3711  0.9632
 2591TIP3   OH229187   5.403   3.874   3.673 -0.3559  0.2793  0.1374
 2591TIP3    H129188   5.343   3.910   3.739  0.3805  0.7343  0.5752
 2591TIP3    H229189   5.359   3.890   3.589  0.2301  2.9061  0.2418
 2592TIP3   OH229190   4.960   1.947   1.369  0.4418 -0.4299  0.0932
 2592TIP3    H129191   4.870   1.963   1.343  0.5288 -0.8643 -0.4906
 2592TIP3    H229192   5.012   1.970   1.292  0.7025 -1.7363 -0.1492
 2593TIP3   OH229193   4.513   3.360   1.995  0.0622  0.0195 -0.0071
 2593TIP3    H129194   4.432   3.320   1.965 -0.6786  1.1988  0.3361
 2593TIP3    H229195   4.546   3.407   1.917  0.1277 -0.0117  0.0017
 2594TIP3   OH229196   2.771   5.481   0.539  0.1325 -0.0915  0.6449
 2594TIP3    H129197   2.756   5.428   0.617  2.1680  0.2850  1.3376
 2594TIP3    H229198   2.784   5.418   0.469 -0.7594 -0.4365  0.7666
 2595TIP3   OH229199   4.023   1.950   4.816  0.0950  0.1663  0.0065
 2595TIP3    H129200   4.051   2.009   4.886 -0.0767  1.7587 -1.2278
 2595TIP3    H229201   3.974   1.881   4.861 -0.7310  1.5951  1.3743
 2596TIP3   OH229202   3.439   3.666   0.985  0.2294 -0.0963  0.2536
 2596TIP3    H129203   3.468   3.724   0.914  2.1048 -2.4778 -1.0722
 2596TIP3    H229204   3.500   3.684   1.057 -0.0164  0.4749  0.3233
 2597TIP3   OH229205   4.920   1.439   1.595 -0.2536 -0.3867  0.0408
 2597TIP3    H129206   4.978   1.439   1.671 -0.6973 -2.5968  0.4436
 2597TIP3    H229207   4.863   1.515   1.609  0.0668 -0.3986  1.6003
 2598TIP3   OH229208   5.678   6.529   0.538  0.2518  0.0484 -0.3000
 2598TIP3    H129209   5.745   6.560   0.599  1.4015 -0.9883 -0.9876
 2598TIP3    H229210   5.648   6.446   0.574 -1.1780  0.8128  0.3470
 2599TIP3   OH229211   5.827   3.255  10.999 -0.2654 -0.4393 -0.1896
 2599TIP3    H129212   5.779   3.281  10.920 -1.0662  1.0474  0.7286
 2599TIP3    H229213   5.918   3.245  10.970 -0.3469  1.1831 -1.1093
 2600TIP3   OH229214   1.591   3.314   0.955  0.2824  0.1019 -0.3461
 2600TIP3    H129215   1.526   3.276   1.015 -2.4727  2.8578 -1.2927
 2600TIP3    H229216   1.640   3.375   1.010 -1.1045  1.3714 -0.4353
 2601TIP3   OH229217   6.669   4.130  14.337 -0.4913 -0.3191 -0.1976
 2601TIP3    H129218   6.719   4.204  14.370 -2.8001  1.0355  0.4789
 2601TIP3    H229219   6.735   4.068  14.307  1.5936  0.8715  1.6212
 2602TIP3   OH229220   3.019   0.546  12.824 -0.0273  0.4372  0.2713
 2602TIP3    H129221   2.955   0.542  12.894 -0.7116  1.1566 -0.2974
 2602TIP3    H229222   3.068   0.464  12.831  0.3263  0.7510  1.9499
 2603TIP3   OH229223   0.719   4.551  11.416  0.5112 -0.2424  0.1307
 2603TIP3    H129224   0.719   4.456  11.425  0.0023 -0.1737  1.0271
 2603TIP3    H229225   0.641   4.580  11.465  1.4907  0.7290  1.2006
 2604TIP3   OH229226   2.786   1.148   1.304  0.4483 -0.1345  0.1443
 2604TIP3    H129227   2.693   1.145   1.325  0.2966  0.0825 -0.4670
 2604TIP3    H229228   2.798   1.078   1.239  0.5340  0.3861 -0.4173
 2605TIP3   OH229229   6.344   5.481  13.890 -0.0340 -0.0943  0.1767
 2605TIP3    H129230   6.409   5.547  13.868  0.5203 -0.5434  0.4261
 2605TIP3    H229231   6.289   5.474  13.812  0.9820 -0.5872 -0.5212
 2606TIP3   OH229232   4.201   1.795  14.508  0.1309 -0.3037  0.4887
 2606TIP3    H129233   4.292   1.806  14.479  0.9173 -1.8095  2.2600
 2606TIP3    H229234   4.168   1.721  14.457  0.5927 -1.1092  1.3408
 2607TIP3   OH229235   3.939   4.907   1.378 -0.1788 -0.3479 -0.6824
 2607TIP3    H129236   3.976   4.958   1.450 -1.8486 -0.4251  0.2812
 2607TIP3    H229237   4.001   4.835   1.365  0.6442  0.2226  0.0037
 2608TIP3   OH229238   0.480   5.491  11.310 -0.2927  0.4824  0.3350
 2608TIP3    H129239   0.484   5.559  11.243 -0.6935 -0.7209 -0.9582
 2608TIP3    H229240   0.390   5.497  11.344 -0.1163  1.0347  0.7175
 2609TIP3   OH229241   0.776   5.514   1.585 -0.2584 -0.1109  0.1097
 2609TIP3    H129242   0.776   5.581   1.517  0.0488  1.2415  1.3763
 2609TIP3    H229243   0.810   5.435   1.542  0.1093  0.7515 -1.2360
 2610TIP3   OH229244   2.173   4.393   0.701  0.2411 -0.4259 -0.3144
 2610TIP3    H129245   2.256   4.345   0.706  1.0413  0.9800  1.0933
 2610TIP3    H229246   2.150   4.409   0.793 -0.7181  0.6335 -0.7201
 2611TIP3   OH229247   2.285   6.278  16.487  0.1798  0.2297 -0.5222
 2611TIP3    H129248   2.332   6.197  16.469 -0.3907 -0.4200  0.8420
 2611TIP3    H229249   2.350   6.347  16.468  1.8122 -0.6414  1.4668
 2612TIP3   OH229250   6.546   3.315   0.860  0.6881  0.2058 -0.3980
 2612TIP3    H129251   6.475   3.295   0.921  0.7452 -0.2733 -0.4817
 2612TIP3    H229252   6.555   3.235   0.807  0.0297  0.9351 -1.6402
 2613TIP3   OH229253   1.991   0.075  17.037  0.1205  0.9395  0.2552
 2613TIP3    H129254   2.068   0.071  17.094 -0.0264  1.6200  0.5077
 2613TIP3    H229255   1.946   0.155  17.063  0.2875  1.5151 -1.1314
 2614TIP3   OH229256   0.348   4.738   3.741 -0.3077 -0.2176 -0.1385
 2614TIP3    H129257   0.309   4.811   3.789  2.4315 -0.0089  2.0059
 2614TIP3    H229258   0.317   4.749   3.651 -0.8446  2.9745  0.3201
 2615TIP3   OH229259   2.146   0.054  14.126  0.2483  0.1127 -0.1109
 2615TIP3    H129260   2.119   0.027  14.038  0.4787  0.7641 -0.3874
 2615TIP3    H229261   2.237   0.025  14.133  0.6894  1.3061 -0.6335
 2616TIP3   OH229262   3.104   5.884   0.764  0.2111  0.3188 -0.8457
 2616TIP3    H129263   3.149   5.954   0.810 -1.3359  1.6730 -1.2980
 2616TIP3    H229264   3.015   5.917   0.752 -1.1728 -2.4697  0.6388
 2617TIP3   OH229265   1.324   3.437   4.381  0.0904  0.2517  0.1763
 2617TIP3    H129266   1.346   3.397   4.466 -1.0825 -0.0720  0.3447
 2617TIP3    H229267   1.408   3.443   4.336  0.7454  0.4624  1.3722
 2618TIP3   OH229268   1.011   6.121   5.303  0.8978  0.8257 -0.2890
 2618TIP3    H129269   0.991   6.189   5.367  0.2690 -0.1156  0.5393
 2618TIP3    H229270   1.069   6.061   5.349  0.4867  0.1705 -0.6136
 2619TIP3   OH229271   2.318   3.342  12.868 -0.1267 -0.3621  0.3217
 2619TIP3    H129272   2.336   3.312  12.779  0.0487 -2.3867  0.9963
 2619TIP3    H229273   2.239   3.395  12.860 -0.9681 -1.7187 -0.8442
 2620TIP3   OH229274   3.654   4.198  12.363  0.0119 -0.3014  0.7279
 2620TIP3    H129275   3.580   4.230  12.312  1.9409  2.5277 -0.5327
 2620TIP3    H229276   3.638   4.231  12.451  0.0356  0.7749  0.3370
 2621TIP3   OH229277   1.528   0.867   4.299  0.0912  0.5836 -0.0614
 2621TIP3    H129278   1.461   0.803   4.277 -0.1366  1.0051 -0.6254
 2621TIP3    H229279   1.592   0.862   4.227  0.3863  0.5631  0.1982
 2622TIP3   OH229280   1.629   5.632   2.233 -0.4667 -0.6864  0.3099
 2622TIP3    H129281   1.634   5.542   2.202 -1.5137 -0.2278 -1.3082
 2622TIP3    H229282   1.537   5.645   2.255 -0.6446  0.4126 -0.9502
 2623TIP3   OH229283   3.555   5.180  11.596 -0.0468  0.1137  0.3915
 2623TIP3    H129284   3.592   5.173  11.684 -1.0779 -0.1314  0.8220
 2623TIP3    H229285   3.616   5.133  11.540  1.0313  0.9351  0.8469
 2624TIP3   OH229286   1.129   6.193  15.867  0.0649  0.7426  0.4220
 2624TIP3    H129287   1.193   6.261  15.885  0.1380  0.3714  1.6153
 2624TIP3    H229288   1.172   6.136  15.803  1.4653 -0.2332  2.1669
 2625TIP3   OH229289   6.119   2.598   1.791 -0.4398 -0.2713  0.3898
 2625TIP3    H129290   6.159   2.685   1.779 -1.0108  0.1304  1.3287
 2625TIP3    H229291   6.189   2.537   1.770  0.2400  0.4193  0.6035
 2626TIP3   OH229292   5.634   4.871   4.337  0.5144 -0.1817 -0.0696
 2626TIP3    H129293   5.566   4.807   4.357 -2.8784  3.1479  0.0553
 2626TIP3    H229294   5.696   4.864   4.409 -1.1253 -1.5804  1.2743
 2627TIP3   OH229295   5.006   2.218  14.256 -0.0259  0.2002  0.0470
 2627TIP3    H129296   5.005   2.244  14.348  1.0011 -0.2440  0.1981
 2627TIP3    H229297   4.914   2.216  14.231 -0.4421 -1.1358  1.4905
 2628TIP3   OH229298   1.319   3.438   5.884 -0.0213  0.3141  0.0019
 2628TIP3    H129299   1.354   3.489   5.957  0.1505 -0.5240  0.5122
 2628TIP3    H229300   1.380   3.365   5.874 -0.0826  0.3849 -0.9346
 2629TIP3   OH229301   5.775   1.247  13.663 -0.6542  0.1076  0.3664
 2629TIP3    H129302   5.720   1.321  13.690 -1.0755 -0.7939  2.1311
 2629TIP3    H229303   5.730   1.212  13.586 -0.5226  1.5757 -0.4234
 2630TIP3   OH229304   3.904   4.462   0.001 -0.6642  0.2605  0.2185
 2630TIP3    H129305   3.817   4.443  -0.033  0.7307 -1.7321 -2.7381
 2630TIP3    H229306   3.926   4.547  -0.037  0.4804 -1.4929 -3.6287
 2631TIP3   OH229307   4.210   0.276   3.337 -0.3656 -0.3105 -0.6081
 2631TIP3    H129308   4.244   0.270   3.426  1.0408  3.5250 -0.6883
 2631TIP3    H229309   4.115   0.285   3.348 -0.2892 -0.6356  0.4436
 2632TIP3   OH229310   0.202   2.618   2.079 -0.5088 -0.1377 -0.0544
 2632TIP3    H129311   0.225   2.630   2.171 -1.1618  1.7864 -0.0987
 2632TIP3    H229312   0.203   2.706   2.043 -3.3305 -0.4578 -1.1557
 2633TIP3   OH229313   6.487   2.473  13.765  0.5904  0.1230  0.0862
 2633TIP3    H129314   6.451   2.447  13.680 -0.6622  2.8875 -0.3426
 2633TIP3    H229315   6.417   2.453  13.827 -0.2267  1.8766 -0.1945
 2634TIP3   OH229316   4.994   0.520  12.346  0.1970  0.8346 -0.1609
 2634TIP3    H129317   5.006   0.495  12.437  1.1818  0.5556 -0.3458
 2634TIP3    H229318   5.080   0.553  12.319  0.1258  0.2225 -1.1923
 2635TIP3   OH229319   3.873   2.574  13.039  0.1999 -0.1026  0.4455
 2635TIP3    H129320   3.859   2.481  13.060 -0.5710  0.0023  0.4463
 2635TIP3    H229321   3.962   2.592  13.069 -0.1726 -0.4641  1.8647
 2636TIP3   OH229322   4.932   4.728  12.426  0.0896  0.0486  0.3004
 2636TIP3    H129323   4.965   4.639  12.416  0.0649 -0.1145  1.5338
 2636TIP3    H229324   4.839   4.722  12.402 -0.0639 -0.3961  0.9715
 2637TIP3   OH229325   2.307   2.822   5.790  0.0646  0.1351  0.7117
 2637TIP3    H129326   2.269   2.764   5.724 -2.8572  0.0362  2.3393
 2637TIP3    H229327   2.279   2.910   5.765  0.6410  0.3304  0.7357
 2638TIP3   OH229328   2.248   2.806   3.484 -0.1185  0.0527  0.4681
 2638TIP3    H129329   2.306   2.746   3.531 -1.2757 -0.8997  0.7288
 2638TIP3    H229330   2.188   2.749   3.435 -0.9689  0.9941  0.3748
 2639TIP3   OH229331   0.561   3.674  14.418  0.2524 -0.2297 -0.3090
 2639TIP3    H129332   0.635   3.645  14.365 -1.0728 -1.9306 -1.3520
 2639TIP3    H229333   0.557   3.612  14.491  0.6264  0.6558  0.4825
 2640TIP3   OH229334   0.666   2.352  12.547 -0.2008  0.4154 -0.0065
 2640TIP3    H129335   0.627   2.301  12.618  1.0883 -0.6711 -0.0364
 2640TIP3    H229336   0.712   2.287  12.494 -1.1667  1.1920 -1.8838
 2641TIP3   OH229337   0.078   2.834  16.020  0.0523 -0.2840 -0.1856
 2641TIP3    H129338   0.097   2.887  16.097 -0.2189 -4.0300  2.7803
 2641TIP3    H229339   0.139   2.761  16.026 -1.9514 -2.2248 -1.8297
 2642TIP3   OH229340   4.881   4.589   3.717  0.1043  0.0220  0.2534
 2642TIP3    H129341   4.868   4.518   3.655  1.1521  0.4681 -0.4975
 2642TIP3    H229342   4.968   4.574   3.753 -0.0578  0.3831  0.8239
 2643TIP3   OH229343   3.645   5.200  13.589  0.1156 -0.4845 -0.2415
 2643TIP3    H129344   3.600   5.239  13.514 -1.9337 -0.6983  0.8059
 2643TIP3    H229345   3.737   5.225  13.577 -0.5851  1.8705 -1.3295
 2644TIP3   OH229346   3.384   3.087  11.660  0.3794  0.2857  0.3780
 2644TIP3    H129347   3.371   3.063  11.568  1.6785 -0.7716  0.4419
 2644TIP3    H229348   3.478   3.080  11.674  0.3463  1.6643  1.4810
 2645TIP3   OH229349   5.448   6.447   4.080 -0.3039 -0.2151  0.4661
 2645TIP3    H129350   5.498   6.382   4.031  0.1890  0.1779  0.4519
 2645TIP3    H229351   5.357   6.432   4.053 -0.4751 -2.1911  1.8963
 2646TIP3   OH229352   5.445   3.180   5.093 -0.2975 -0.3504  0.0950
 2646TIP3    H129353   5.495   3.158   5.015  0.4816  0.2018  0.4218
 2646TIP3    H229354   5.511   3.190   5.162 -0.8109  0.7777  0.4470
 2647TIP3   OH229355   6.435   0.236  14.184  0.5338 -0.0812 -0.4755
 2647TIP3    H129356   6.464   0.170  14.121 -0.6897 -0.7832 -0.3351
 2647TIP3    H229357   6.503   0.236  14.251  3.3077  2.5842 -2.9762
 2648TIP3   OH229358   3.775   4.029  14.796 -0.2461  0.1056  0.1555
 2648TIP3    H129359   3.852   3.976  14.817 -0.1510 -0.9641 -2.5105
 2648TIP3    H229360   3.732   4.043  14.881  2.8459  0.8231  1.7627
 2649TIP3   OH229361   5.139   5.720   2.350 -0.5542  0.5133  0.5876
 2649TIP3    H129362   5.080   5.738   2.424 -1.2365 -1.7651  0.6692
 2649TIP3    H229363   5.083   5.727   2.273 -0.6811 -0.5280  0.5764
 2650TIP3   OH229364   3.973   0.719   2.877 -0.0719  0.5283  0.3934
 2650TIP3    H129365   3.959   0.638   2.925 -2.0232  0.0156 -0.8972
 2650TIP3    H229366   4.017   0.693   2.796  0.4137  0.9322  0.5238
 2651TIP3   OH229367   0.956   5.068  15.613  1.1495  0.1099  0.2274
 2651TIP3    H129368   0.910   5.041  15.533 -0.5736 -0.8486  1.4660
 2651TIP3    H229369   0.997   5.151  15.591  0.8516 -0.2030 -1.6876
 2652TIP3   OH229370   4.861   3.746  10.363 -0.1919 -0.0773  0.5070
 2652TIP3    H129371   4.886   3.662  10.324  0.7365  0.6485 -0.5564
 2652TIP3    H229372   4.769   3.736  10.386 -1.2560 -0.2092 -3.1370
 2653TIP3   OH229373   6.651   4.357   1.219  0.6955  0.7997  0.0885
 2653TIP3    H129374   6.577   4.396   1.265  1.9739  1.6588  1.5244
 2653TIP3    H229375   6.664   4.413   1.142  0.4073  1.1621  0.3020
 2654TIP3   OH229376   0.673   4.714  16.448 -0.0356 -0.1378  0.6235
 2654TIP3    H129377   0.751   4.753  16.487  0.5996 -0.8544  0.0744
 2654TIP3    H229378   0.664   4.629  16.491 -0.2817 -0.2368  0.3809
 2655TIP3   OH229379   1.466   5.687  13.270 -0.2541  0.2149  0.1385
 2655TIP3    H129380   1.510   5.759  13.225 -2.0960  1.5747  0.4035
 2655TIP3    H229381   1.444   5.625  13.201 -2.9530  2.2285 -0.9730
 2656TIP3   OH229382   4.814   5.998   6.290  0.1887  0.1677  0.1098
 2656TIP3    H129383   4.825   5.904   6.282  0.8683  0.0119  2.3782
 2656TIP3    H229384   4.747   6.009   6.358 -0.4122  1.3272 -0.6305
 2657TIP3   OH229385   0.870   5.564  17.105  0.3163  0.1248  0.2559
 2657TIP3    H129386   0.905   5.628  17.043  0.1185  0.5390  0.5668
 2657TIP3    H229387   0.921   5.578  17.185  1.9777 -1.7786 -0.3988
 2658TIP3   OH229388   2.374   2.727  17.033  0.2362  0.3773  0.0352
 2658TIP3    H129389   2.278   2.722  17.036  0.1821  1.7967  2.0221
 2658TIP3    H229390   2.397   2.676  16.955 -2.1976  1.1049 -1.2759
 2659TIP3   OH229391   0.810   0.991   4.182 -0.7511  0.0046  0.1668
 2659TIP3    H129392   0.895   0.952   4.162 -0.1867  2.0593 -1.9121
 2659TIP3    H229393   0.768   0.928   4.241  1.4266 -1.9792 -0.2355
 2660TIP3   OH229394   3.743   0.680   5.724 -0.0029 -0.0752 -0.0501
 2660TIP3    H129395   3.800   0.675   5.801  0.7470  1.7641 -0.4233
 2660TIP3    H229396   3.795   0.645   5.652 -0.2407 -0.6111  0.0318
 2661TIP3   OH229397   0.240   5.393   4.016 -0.7215  0.1740  0.0277
 2661TIP3    H129398   0.206   5.322   4.071  0.9497 -0.3325  0.4677
 2661TIP3    H229399   0.234   5.359   3.927  0.8551 -0.9270  0.2930
 2662TIP3   OH229400   3.356   4.216  11.493 -0.0926 -0.5028 -0.3892
 2662TIP3    H129401   3.336   4.208  11.586  1.5885  0.9736  0.1550
 2662TIP3    H229402   3.434   4.272  11.490  1.1543 -2.2027 -2.5719
 2663TIP3   OH229403   5.205   2.761   5.052  0.5373 -0.5342  0.1046
 2663TIP3    H129404   5.153   2.697   5.004 -0.1861 -0.3711  0.6506
 2663TIP3    H229405   5.211   2.836   4.993  0.1995 -0.5796  0.0062
 2664TIP3   OH229406   3.286   6.232   3.656  0.6686  0.6409  0.3366
 2664TIP3    H129407   3.355   6.184   3.612  0.2605  0.1186  0.2564
 2664TIP3    H229408   3.272   6.309   3.601  0.7278  0.4098 -0.0022
 2665TIP3   OH229409   6.420   3.789   5.719  0.3028  0.7830  0.0781
 2665TIP3    H129410   6.482   3.790   5.792  0.5940  0.4055 -0.1622
 2665TIP3    H229411   6.361   3.717   5.737 -0.7613  1.8151  0.8693
 2666TIP3   OH229412   5.881   3.052  15.050 -0.0131 -0.2760  0.0595
 2666TIP3    H129413   5.975   3.035  15.039 -0.2207 -1.1762 -0.3976
 2666TIP3    H229414   5.858   3.103  14.972 -0.3753 -2.0800 -1.0563
 2667TIP3   OH229415   0.213   5.120  12.349 -0.4792 -0.1533 -0.0313
 2667TIP3    H129416   0.205   5.096  12.441  2.8267 -1.9859 -0.0386
 2667TIP3    H229417   0.245   5.210  12.351  0.9358 -0.6395  0.7349
 2668TIP3   OH229418   1.811   0.951  13.753  0.0864  0.0599 -0.9988
 2668TIP3    H129419   1.858   0.996  13.824 -0.5890  0.3813 -0.7500
 2668TIP3    H229420   1.862   0.972  13.675  0.0904  0.8218 -0.8059
 2669TIP3   OH229421   4.597   0.562   4.451  0.1483  0.5903  0.8654
 2669TIP3    H129422   4.571   0.545   4.360  0.7225 -0.7099  0.9243
 2669TIP3    H229423   4.685   0.600   4.443  0.8077 -0.8765  0.9173
 2670TIP3   OH229424   1.743   0.378   0.060  0.4184  0.0564 -0.0282
 2670TIP3    H129425   1.819   0.415   0.016  0.4839 -0.4952 -0.3802
 2670TIP3    H229426   1.701   0.322  -0.006  0.3882 -0.5933  0.5370
 2671TIP3   OH229427   3.845   2.122   3.673 -0.4803 -0.6807 -0.6831
 2671TIP3    H129428   3.889   2.197   3.715  0.9912 -1.8935  0.0396
 2671TIP3    H229429   3.763   2.158   3.640 -0.0385  1.1426  0.0698
 2672TIP3   OH229430   1.060   3.827  11.037  0.2919 -0.7130 -0.1432
 2672TIP3    H129431   1.124   3.761  11.009  0.3905 -1.1123  0.9793
 2672TIP3    H229432   1.013   3.785  11.110  0.1166  0.3176  0.3467
 2673TIP3   OH229433   3.221   5.750  15.900 -0.0191  0.1876  0.3069
 2673TIP3    H129434   3.133   5.721  15.922 -0.2020 -0.1651 -0.7961
 2673TIP3    H229435   3.231   5.726  15.808  1.0988  0.5456  0.3232
 2674TIP3   OH229436   6.718   3.676  12.611 -0.2197  0.2157 -0.4415
 2674TIP3    H129437   6.656   3.698  12.680 -2.3329 -1.4162 -1.7120
 2674TIP3    H229438   6.718   3.753  12.553 -1.8372 -0.0949 -0.9103
 2675TIP3   OH229439   1.038   4.396  10.955 -0.2946  0.0683 -0.6040
 2675TIP3    H129440   1.060   4.488  10.947  0.4612  0.1503  1.5372
 2675TIP3    H229441   1.082   4.353  10.882  2.3152  0.9920  0.3195
 2676TIP3   OH229442   1.343   4.399   4.420  0.0745  0.2242 -0.8017
 2676TIP3    H129443   1.268   4.342   4.439 -0.0506  0.9107  1.0031
 2676TIP3    H229444   1.420   4.346   4.443  0.0160  0.3311 -0.3462
 2677TIP3   OH229445   1.158   1.380  16.212  0.0548  0.7516 -0.1920
 2677TIP3    H129446   1.216   1.346  16.280  1.3333  0.9887 -1.1268
 2677TIP3    H229447   1.216   1.425  16.150 -0.9156 -0.3003 -1.9704
 2678TIP3   OH229448   5.209   2.838   6.802 -0.1411  0.9893 -0.5378
 2678TIP3    H129449   5.142   2.812   6.738  0.9173  0.6978 -1.5505
 2678TIP3    H229450   5.236   2.926   6.774  1.8145  0.0472 -1.7942
 2679TIP3   OH229451   1.341   5.995   0.032  0.4788 -0.5474  0.3244
 2679TIP3    H129452   1.250   5.978   0.007 -0.2665  1.3407  1.5832
 2679TIP3    H229453   1.377   6.045  -0.041  1.0079 -2.5565 -0.8539
 2680TIP3   OH229454   5.241   2.788  16.437  0.1536  0.4563 -0.8005
 2680TIP3    H129455   5.292   2.775  16.357  1.7861 -0.3564  0.3129
 2680TIP3    H229456   5.260   2.711  16.491  0.4606  1.7600  1.0664
 2681TIP3   OH229457   1.420   4.125   2.414 -0.5206  0.7395  0.0423
 2681TIP3    H129458   1.420   4.161   2.325  1.2616  0.3709 -0.1496
 2681TIP3    H229459   1.497   4.166   2.455  1.0738 -2.0935  0.1046
 2682TIP3   OH229460   1.795   6.687   5.787 -0.6148  0.0659 -0.2707
 2682TIP3    H129461   1.827   6.722   5.704  0.8993  0.6045  0.5019
 2682TIP3    H229462   1.758   6.763   5.833 -1.6109 -0.2623 -0.5009
 2683TIP3   OH229463   3.607   1.923  14.907 -0.6284 -0.6048  0.1006
 2683TIP3    H129464   3.610   1.948  14.815 -1.2373 -3.4814 -0.8084
 2683TIP3    H229465   3.603   1.827  14.906 -1.2424 -0.7210  3.1069
 2684TIP3   OH229466   0.177   0.940  14.308 -0.2573 -0.1351 -0.0923
 2684TIP3    H129467   0.130   0.857  14.300  0.8523 -0.7001 -1.2337
 2684TIP3    H229468   0.191   0.968  14.217  1.9284 -0.2234  0.1572
 2685TIP3   OH229469   0.295   1.997   5.697  0.3642  0.8060 -0.2242
 2685TIP3    H129470   0.233   2.059   5.735 -0.4388 -0.1310  0.0476
 2685TIP3    H229471   0.269   1.912   5.734  1.8735  0.4068 -0.0431
 2686TIP3   OH229472   3.240   0.329  17.251 -0.0650 -0.1268  0.7553
 2686TIP3    H129473   3.226   0.284  17.334  0.2271  1.3737  1.6685
 2686TIP3    H229474   3.190   0.411  17.260 -1.8825 -0.9016 -1.4519
 2687TIP3   OH229475   0.818   4.529  14.398 -0.3964 -0.0031 -0.3401
 2687TIP3    H129476   0.899   4.578  14.414 -1.1456  0.4609  2.6499
 2687TIP3    H229477   0.847   4.448  14.356  1.6000  0.2572  0.4002
 2688TIP3   OH229478   1.152   2.800  17.215  0.4455  1.2028 -0.7206
 2688TIP3    H129479   1.057   2.811  17.216  0.3642  0.5094  0.9619
 2688TIP3    H229480   1.185   2.871  17.271  0.7749  0.3089  0.2325
 2689TIP3   OH229481   2.435   2.609  15.738  0.1382 -0.1346 -0.1842
 2689TIP3    H129482   2.369   2.540  15.732 -0.2929  0.1617  0.8354
 2689TIP3    H229483   2.465   2.622  15.648 -1.3234 -0.1678 -0.7063
 2690TIP3   OH229484   5.857   5.819   4.095  0.5727  0.4876 -0.0296
 2690TIP3    H129485   5.855   5.896   4.039  2.7965 -0.0012 -0.8627
 2690TIP3    H229486   5.948   5.791   4.095  0.4535 -0.2536  2.9066
 2691TIP3   OH229487   1.596   5.851   0.478  0.0520  0.3915  0.0133
 2691TIP3    H129488   1.615   5.828   0.569 -1.8768  1.1871  0.6568
 2691TIP3    H229489   1.653   5.926   0.460 -0.0051  0.6212  0.7677
 2692TIP3   OH229490   4.914   0.556   5.645 -0.5930  0.4237  0.0253
 2692TIP3    H129491   4.824   0.586   5.659 -0.2110  1.1066  1.1280
 2692TIP3    H229492   4.937   0.514   5.728  0.0467  0.0802 -0.3228
 2693TIP3   OH229493   1.490   4.564   5.637 -0.2613 -0.1431  0.0038
 2693TIP3    H129494   1.465   4.656   5.645  0.6445 -0.0063  1.5296
 2693TIP3    H229495   1.475   4.544   5.545  0.6102  1.8704 -0.6467
 2694TIP3   OH229496   5.548   6.059   1.113  0.0059 -0.0011  0.2210
 2694TIP3    H129497   5.483   6.072   1.044  0.2723  0.2133  0.0097
 2694TIP3    H229498   5.558   5.964   1.120 -1.3118 -0.0985  1.1729
 2695TIP3   OH229499   2.270   1.416   3.753  0.1702 -0.3451  0.0342
 2695TIP3    H129500   2.309   1.471   3.684  1.9285 -3.9642 -2.1557
 2695TIP3    H229501   2.344   1.384   3.803 -0.7807 -0.8037  1.1902
 2696TIP3   OH229502   2.305   6.128  15.202 -0.5436 -0.3540 -0.2212
 2696TIP3    H129503   2.231   6.131  15.262 -0.7091 -0.4709 -0.4168
 2696TIP3    H229504   2.376   6.088  15.252 -0.4875  0.1463  0.1020
 2697TIP3   OH229505   5.060   3.908  13.303  0.0982  0.5245 -0.4614
 2697TIP3    H129506   5.140   3.934  13.348  0.1030  0.0359 -0.1789
 2697TIP3    H229507   5.042   3.979  13.242  2.1023 -0.4672 -2.3384
 2698TIP3   OH229508   3.884   3.017   1.182  0.1676  0.6117 -0.1326
 2698TIP3    H129509   3.939   2.967   1.243  0.2728  0.2134 -0.5440
 2698TIP3    H229510   3.937   3.023   1.103 -0.4640  0.0520 -0.6057
 2699TIP3   OH229511   0.266   1.828   2.800 -0.2302 -0.2872 -0.5680
 2699TIP3    H129512   0.288   1.919   2.779 -0.4828 -0.4929 -1.7990
 2699TIP3    H229513   0.345   1.779   2.782  0.0109 -0.2920  0.4119
 2700TIP3   OH229514   6.326   4.390   3.635 -0.0949 -0.2274  0.4484
 2700TIP3    H129515   6.287   4.403   3.548  1.1364  0.5992  0.0031
 2700TIP3    H229516   6.385   4.464   3.647 -1.8632  0.9352  2.9464
 2701TIP3   OH229517   1.923   4.685  16.812  0.2483  0.2678 -0.4038
 2701TIP3    H129518   1.927   4.725  16.725 -0.7670  0.0836 -0.5486
 2701TIP3    H229519   1.879   4.750  16.867 -0.4687 -0.2026 -0.3975
 2702TIP3   OH229520   3.588   2.997   0.440 -0.1136  0.1580 -0.2583
 2702TIP3    H129521   3.500   2.969   0.464  0.1123 -0.3799 -0.0164
 2702TIP3    H229522   3.583   3.092   0.433 -0.8126  0.0920 -0.6838
 2703TIP3   OH229523   1.441   5.420  12.074 -0.3556  0.0307 -0.3883
 2703TIP3    H129524   1.438   5.510  12.041  0.3605 -0.4171 -1.7729
 2703TIP3    H229525   1.392   5.422  12.156 -2.1380  1.2467 -1.4264
 2704TIP3   OH229526   4.451   1.088  14.469  0.0224  0.2212  0.2287
 2704TIP3    H129527   4.475   1.087  14.376  1.3991 -0.8193  0.5514
 2704TIP3    H229528   4.395   1.011  14.480  0.5974 -0.1735  0.4257
 2705TIP3   OH229529   3.573   5.247  14.663  0.2156 -0.5761 -0.0632
 2705TIP3    H129530   3.570   5.166  14.612 -1.1985 -1.1259  0.8227
 2705TIP3    H229531   3.495   5.244  14.718  0.0712  1.4397 -0.0553
 2706TIP3   OH229532   6.675   1.621   5.192  0.1789  0.2331  0.4955
 2706TIP3    H129533   6.618   1.661   5.126  0.4124 -1.8105 -1.0238
 2706TIP3    H229534   6.628   1.543   5.220  0.8403  0.1964  1.5489
 2707TIP3   OH229535   0.804   3.410  17.340 -0.7718  0.1723 -0.7979
 2707TIP3    H129536   0.832   3.454  17.259 -0.3195 -1.0488 -1.3306
 2707TIP3    H229537   0.871   3.343  17.355  0.1383  1.4816  1.5755
 2708TIP3   OH229538   5.868   4.671  16.975  0.6502 -0.7502 -0.0054
 2708TIP3    H129539   5.849   4.764  16.985  0.5363 -0.5787 -1.6153
 2708TIP3    H229540   5.873   4.638  17.065 -0.1464  0.6346  0.5801
 2709TIP3   OH229541   4.362   5.743   2.614  0.1638  0.3958 -0.1007
 2709TIP3    H129542   4.387   5.818   2.560 -1.7241  1.4316  0.4077
 2709TIP3    H229543   4.317   5.781   2.689 -1.4132 -1.2748 -0.1431
 2710TIP3   OH229544   6.245   1.095   2.925 -0.2660 -0.4523 -0.0654
 2710TIP3    H129545   6.308   1.153   2.969 -2.4395 -0.9483  4.3007
 2710TIP3    H229546   6.193   1.154   2.870  0.9579  0.7618  0.0091
 2711TIP3   OH229547   2.695   2.086  11.461 -0.5139  0.8818 -0.2633
 2711TIP3    H129548   2.621   2.026  11.452 -0.4566  0.4388  1.7573
 2711TIP3    H229549   2.766   2.044  11.412 -0.9069  0.0429 -0.1411
 2712TIP3   OH229550   0.078   5.157   0.985 -0.2945  0.3900  0.0063
 2712TIP3    H129551   0.055   5.146   1.077 -2.8806  0.2006 -0.5945
 2712TIP3    H229552   0.118   5.074   0.959 -0.3501  0.1357  0.7272
 2713TIP3   OH229553   2.923   2.637   1.794 -0.3102  0.3402  0.1727
 2713TIP3    H129554   2.923   2.543   1.811  0.7011  0.5983  1.8154
 2713TIP3    H229555   3.013   2.656   1.766 -0.2214  0.9559  0.8382
 2714TIP3   OH229556   3.993   1.622   3.872 -0.3216 -0.0432 -0.1348
 2714TIP3    H129557   3.954   1.668   3.798  0.4950  0.4788 -0.2455
 2714TIP3    H229558   4.017   1.691   3.934  0.4337 -0.3513 -0.0710
 2715TIP3   OH229559   1.186   6.337  15.294 -0.6806 -0.4084  0.1014
 2715TIP3    H129560   1.138   6.373  15.219 -0.8736 -2.7540 -1.0289
 2715TIP3    H229561   1.121   6.332  15.364 -1.2920 -0.8009 -0.4840
 2716TIP3   OH229562   1.359   6.275  15.999  0.7258 -0.0065 -0.0357
 2716TIP3    H129563   1.411   6.245  15.924  1.9334 -2.7713  1.7530
 2716TIP3    H229564   1.420   6.273  16.073 -1.0470  0.2147  1.4961
 2717TIP3   OH229565   1.924   1.279  16.341  0.0569  0.0467  0.0891
 2717TIP3    H129566   1.875   1.198  16.325  0.7380 -0.5093  0.7162
 2717TIP3    H229567   2.011   1.248  16.367  0.0609  0.9738  1.2124
 2718TIP3   OH229568   5.434   3.663  14.807 -0.6952 -0.1270  0.6124
 2718TIP3    H129569   5.408   3.746  14.846 -0.1043  0.4140 -0.1323
 2718TIP3    H229570   5.359   3.638  14.752  0.2469  1.3841 -1.4539
 2719TIP3   OH229571   0.382   4.935  16.153  0.3850 -0.8186 -0.3229
 2719TIP3    H129572   0.304   4.986  16.177 -0.1316 -1.4503 -0.6403
 2719TIP3    H229573   0.433   4.930  16.234  0.5173  0.3148 -0.3209
 2720TIP3   OH229574   6.555   1.827   5.047 -0.1147 -0.4660  0.2542
 2720TIP3    H129575   6.514   1.796   4.966  2.4757 -2.1955 -0.5338
 2720TIP3    H229576   6.644   1.850   5.021  1.4039 -2.7990  2.8637
 2721TIP3   OH229577   2.835   6.745  15.743  0.0223 -0.0916  0.4249
 2721TIP3    H129578   2.810   6.835  15.764  0.7339 -0.0093  0.9692
 2721TIP3    H229579   2.891   6.753  15.666 -1.0095 -0.2068 -0.3507
 2722TIP3   OH229580   5.790   2.474   4.423 -0.5798 -0.2880  0.2665
 2722TIP3    H129581   5.832   2.530   4.358 -0.5924  2.9447  2.8124
 2722TIP3    H229582   5.863   2.427   4.465 -0.1466  0.6584  0.5851
 2723TIP3   OH229583   0.010   2.312  14.158 -0.2778 -0.3085  0.1454
 2723TIP3    H129584   0.030   2.391  14.107 -0.5101 -1.2394 -1.4594
 2723TIP3    H229585  -0.026   2.251  14.094  0.2845 -1.8764  1.2692
 2724TIP3   OH229586   4.018   1.264   1.514  0.6043 -0.1075  0.0513
 2724TIP3    H129587   3.970   1.234   1.437 -0.0569  0.2994  0.2972
 2724TIP3    H229588   4.096   1.209   1.516  0.5417 -0.2498 -0.8003
 2725TIP3   OH229589   1.161   4.862   0.858  0.2926  0.1915 -0.0666
 2725TIP3    H129590   1.253   4.874   0.833  0.1881  0.6427 -0.2261
 2725TIP3    H229591   1.160   4.878   0.952  0.6382 -1.2574  0.2149
 2726TIP3   OH229592   3.791   1.372  16.134 -0.0655 -0.8390 -0.1782
 2726TIP3    H129593   3.831   1.324  16.062  0.1511 -1.1189  0.1264
 2726TIP3    H229594   3.704   1.395  16.103 -0.4498 -2.0613 -0.0564
 2727TIP3   OH229595   4.382   0.334   3.106  0.3434 -0.2610  0.0117
 2727TIP3    H129596   4.328   0.293   3.173 -0.5753  0.8943  0.0093
 2727TIP3    H229597   4.447   0.384   3.155  0.0624  0.0829  0.0318
 2728TIP3   OH229598   4.419   6.555  15.383 -0.3528  0.0152  0.0311
 2728TIP3    H129599   4.479   6.557  15.457 -0.3949  0.9343  0.0617
 2728TIP3    H229600   4.400   6.463  15.369 -0.8896 -0.1425  1.5985
 2729TIP3   OH229601   5.266   0.318   5.654 -0.2834 -0.0842  0.1924
 2729TIP3    H129602   5.310   0.326   5.569 -0.0955  0.6455  0.3500
 2729TIP3    H229603   5.182   0.277   5.634 -0.0939 -0.2387 -0.2956
 2730TIP3   OH229604   2.839   2.841  14.453  0.0871  0.0745  0.1514
 2730TIP3    H129605   2.869   2.855  14.363 -0.2309  2.2375  0.3235
 2730TIP3    H229606   2.833   2.929  14.490  0.2426 -0.7604  2.3173
 2731TIP3   OH229607   4.079   2.448   1.023  0.3721  0.3333 -0.1056
 2731TIP3    H129608   4.071   2.376   0.961 -0.0845  0.2235  0.0782
 2731TIP3    H229609   4.151   2.423   1.080  0.0583 -0.0910  0.1088
 2732TIP3   OH229610   0.046   5.856   6.503  0.7198  0.1633  0.2776
 2732TIP3    H129611  -0.007   5.917   6.554 -0.6169 -1.1815  0.5437
 2732TIP3    H229612   0.109   5.912   6.458 -0.7269  1.7867  0.1788
 2733TIP3   OH229613   5.481   2.786  11.243 -0.2180  0.1167 -0.0169
 2733TIP3    H129614   5.396   2.747  11.222  0.3318 -0.2736 -1.5889
 2733TIP3    H229615   5.467   2.828  11.328 -1.4715 -1.4986  0.6217
 2734TIP3   OH229616   6.509   3.861   4.677 -0.7456 -1.0978  0.0126
 2734TIP3    H129617   6.540   3.774   4.652 -0.6087 -0.6425 -1.5294
 2734TIP3    H229618   6.579   3.897   4.731  2.3712  0.4025 -4.3597
 2735TIP3   OH229619   5.160   3.599   3.326  0.2421  0.1879 -0.4699
 2735TIP3    H129620   5.068   3.625   3.336 -0.1361 -1.4402  0.5921
 2735TIP3    H229621   5.156   3.518   3.275  0.7280 -1.9732  2.7009
 2736TIP3   OH229622   3.700   6.004  15.636  0.8033 -0.8320 -0.0878
 2736TIP3    H129623   3.691   5.913  15.665 -0.3947  0.0924  2.7615
 2736TIP3    H229624   3.703   6.055  15.717 -2.5522  2.0339 -1.4989
 2737TIP3   OH229625   3.444   2.042   1.841 -0.0433  0.2854 -0.5436
 2737TIP3    H129626   3.448   1.950   1.818  0.0120  0.5417 -1.5903
 2737TIP3    H229627   3.352   2.065   1.832 -0.5412 -0.2739  2.2533
 2738TIP3   OH229628   3.017   1.360  11.951  0.2478  0.9714 -0.1053
 2738TIP3    H129629   2.954   1.330  12.018  0.7392  0.9171  0.3406
 2738TIP3    H229630   2.991   1.450  11.933 -0.7454  0.5611 -0.8675
 2739TIP3   OH229631   4.015   1.467  13.237  0.2851 -0.3238 -0.0014
 2739TIP3    H129632   4.103   1.430  13.240  0.1389 -0.6378  0.8407
 2739TIP3    H229633   3.963   1.408  13.292 -0.5469 -0.3991 -0.8464
 2740TIP3   OH229634   3.984   2.574  12.699 -0.0089 -0.4546 -0.1945
 2740TIP3    H129635   4.028   2.585  12.783 -1.5349 -0.5914  0.6434
 2740TIP3    H229636   4.027   2.637  12.641  0.4201  0.3112  0.9360
 2741TIP3   OH229637   5.474   2.915   2.119  0.2694 -0.6171 -0.0439
 2741TIP3    H129638   5.494   3.008   2.106 -0.2996 -0.4740  0.0616
 2741TIP3    H229639   5.553   2.869   2.091  0.3261 -0.1311 -0.6973
 2742TIP3   OH229640   4.443   4.591   0.931  0.0302  0.4099 -0.0528
 2742TIP3    H129641   4.355   4.616   0.903  0.1949  0.3490 -0.6565
 2742TIP3    H229642   4.482   4.549   0.853 -0.1267 -1.4590  0.8152
 2743TIP3   OH229643   6.012   5.744  14.445  0.2844  0.4300 -0.0982
 2743TIP3    H129644   5.967   5.828  14.444 -2.4732 -0.8696  1.7693
 2743TIP3    H229645   5.951   5.683  14.403  0.4741 -1.3227  1.9712
 2744TIP3   OH229646   0.210   0.833   2.552 -0.0847  0.5218  0.4349
 2744TIP3    H129647   0.267   0.769   2.595 -0.2971  0.2569  0.3174
 2744TIP3    H229648   0.262   0.868   2.480 -1.0812 -1.8996 -1.6021
 2745TIP3   OH229649   6.009   3.247   5.892 -0.0417 -0.5191  0.8023
 2745TIP3    H129650   6.104   3.261   5.883 -0.1466 -0.2268  0.0675
 2745TIP3    H229651   5.981   3.220   5.805 -0.7004 -0.1960  0.9110
 2746TIP3   OH229652   3.702   3.470  10.473  0.2377  0.1953 -0.2419
 2746TIP3    H129653   3.707   3.496  10.565  1.5845  0.6034 -0.3959
 2746TIP3    H229654   3.638   3.399  10.471  0.6327 -0.2327  1.1107
 2747TIP3   OH229655   0.747   3.373  11.827 -0.2565 -0.1043  0.2535
 2747TIP3    H129656   0.795   3.326  11.895  0.6018 -1.6280 -1.3111
 2747TIP3    H229657   0.666   3.323  11.815  0.3479 -0.8557 -0.9407
 2748TIP3   OH229658   3.327   4.402  15.171 -0.5202 -0.0027 -0.1548
 2748TIP3    H129659   3.401   4.434  15.222 -0.4447 -0.2352 -0.1169
 2748TIP3    H229660   3.352   4.418  15.080 -1.2735  1.7512 -0.0840
 2749TIP3   OH229661   0.405   0.442   4.822  0.3566  0.9517 -0.0541
 2749TIP3    H129662   0.405   0.361   4.874  0.1348  0.4667 -0.7909
 2749TIP3    H229663   0.319   0.443   4.780  0.3549  1.5788 -0.0494
 2750TIP3   OH229664   5.938   1.910   1.057  0.2887  0.0201 -0.0597
 2750TIP3    H129665   5.901   1.972   1.120  2.6801  0.5359  0.9439
 2750TIP3    H229666   6.030   1.934   1.051  1.0376 -2.6679 -0.5847
 2751TIP3   OH229667   4.416   2.470  16.586 -0.3815 -0.9165  0.5219
 2751TIP3    H129668   4.509   2.482  16.564 -0.1625 -0.4155  1.6555
 2751TIP3    H229669   4.371   2.538  16.537 -0.1503 -1.1048  0.0349
 2752TIP3   OH229670   2.701   2.488   0.448  0.6478  0.2682  0.5051
 2752TIP3    H129671   2.702   2.574   0.492  1.6319  0.4327  0.1870
 2752TIP3    H229672   2.790   2.478   0.414  0.2022 -0.3545 -0.4934
 2753TIP3   OH229673   4.229   2.460   3.537 -0.4555 -0.2466  0.4948
 2753TIP3    H129674   4.309   2.476   3.488 -0.8658 -0.0384 -0.1149
 2753TIP3    H229675   4.239   2.370   3.571 -0.0329 -0.2719  0.3005
 2754TIP3   OH229676   5.128   1.729   5.307  0.4824  0.6036  0.0320
 2754TIP3    H129677   5.153   1.655   5.252  0.4799  0.9721 -0.4777
 2754TIP3    H229678   5.114   1.801   5.245 -1.8164  0.4463  0.2739
 2755TIP3   OH229679   3.986   2.973  13.883  0.3151  0.3667  0.2160
 2755TIP3    H129680   4.002   3.067  13.880  1.1562  0.2366  0.2630
 2755TIP3    H229681   3.963   2.950  13.793 -2.1491  0.9571  0.6164
 2756TIP3   OH229682   0.325   4.171  11.757 -0.3766  0.0994  0.9109
 2756TIP3    H129683   0.392   4.141  11.818 -0.8802  0.4053  1.6265
 2756TIP3    H229684   0.307   4.095  11.701  0.3826 -0.0562  0.8732
 2757TIP3   OH229685   4.771   0.366   1.578  0.0740  0.6675 -0.7721
 2757TIP3    H129686   4.866   0.377   1.583 -0.0745  1.4752  0.4173
 2757TIP3    H229687   4.740   0.439   1.524  0.1493  0.1623 -1.5264
 2758TIP3   OH229688   4.462   2.755  15.231  0.2671 -0.2163 -0.6550
 2758TIP3    H129689   4.472   2.760  15.136 -1.0194 -1.6587 -0.8983
 2758TIP3    H229690   4.412   2.833  15.255 -0.3805 -0.4146 -1.3270
 2759TIP3   OH229691   5.728   0.918   1.429 -0.1202 -0.1030  0.2749
 2759TIP3    H129692   5.771   0.909   1.344 -0.6175 -2.3118  0.1777
 2759TIP3    H229693   5.664   0.846   1.431 -2.1522  1.5987  1.3760
 2760TIP3   OH229694   6.050   1.864   5.803  0.0960  0.1062 -0.4761
 2760TIP3    H129695   5.975   1.884   5.859  0.9896  0.8086  0.4990
 2760TIP3    H229696   6.099   1.946   5.798  2.0820 -0.9209  0.8955
 2761TIP3   OH229697   5.662   4.213  17.235  0.4002 -0.1596  0.2021
 2761TIP3    H129698   5.750   4.202  17.273  0.1371 -3.2396  0.2077
 2761TIP3    H229699   5.678   4.229  17.142  1.0428 -1.8593 -0.0276
 2762TIP3   OH229700   1.554   3.370   3.880  0.6116 -0.2618 -0.2192
 2762TIP3    H129701   1.626   3.368   3.818  0.5211 -0.9249 -0.3040
 2762TIP3    H229702   1.476   3.354   3.827  0.4311  0.1496 -0.0824
 2763TIP3   OH229703   1.935   3.809   2.395  0.1781 -0.0502 -0.4755
 2763TIP3    H129704   1.925   3.715   2.381  1.0246 -0.2964  0.4498
 2763TIP3    H229705   2.023   3.829   2.364  0.9841 -0.0697  1.6791
 2764TIP3   OH229706   1.152   0.791  15.116 -0.4945  0.2975  0.1180
 2764TIP3    H129707   1.194   0.856  15.059 -1.8236  1.0546 -0.0538
 2764TIP3    H229708   1.212   0.717  15.118  0.8378  1.3414 -0.0853
 2765TIP3   OH229709   4.133   2.072  15.297  0.5550  0.4796  0.1940
 2765TIP3    H129710   4.082   2.087  15.217 -1.3177 -1.0720  1.0120
 2765TIP3    H229711   4.124   2.154  15.346  1.3776  1.2981 -0.9396
 2766TIP3   OH229712   5.284   6.515  11.593  0.0288  0.0182  0.0927
 2766TIP3    H129713   5.239   6.589  11.552  0.1885 -0.1114 -0.3300
 2766TIP3    H229714   5.241   6.438  11.555  0.1423 -0.1051  0.2162
 2767TIP3   OH229715   2.375   0.550   5.499  0.4044 -0.3032 -0.7191
 2767TIP3    H129716   2.330   0.485   5.553  0.4357  3.0228  3.9120
 2767TIP3    H229717   2.307   0.582   5.439 -2.1802  0.8751  2.5024
 2768TIP3   OH229718   1.659   0.920   4.936 -0.2788  0.6657  0.1886
 2768TIP3    H129719   1.744   0.962   4.949  0.5655 -0.0753 -2.3910
 2768TIP3    H229720   1.632   0.892   5.024  3.1509 -0.9798  0.8875
 2769TIP3   OH229721   0.808   0.682   5.187 -0.3615  0.1313 -0.0132
 2769TIP3    H129722   0.901   0.672   5.167 -0.6007  1.4212 -1.9324
 2769TIP3    H229723   0.800   0.771   5.222 -1.2433  1.1846 -2.6680
 2770TIP3   OH229724   4.197   6.278   6.048  0.3594  0.0147 -0.0797
 2770TIP3    H129725   4.159   6.335   5.982  0.9583 -0.4978 -0.8919
 2770TIP3    H229726   4.123   6.249   6.101 -0.0868  0.6857 -0.3282
 2771TIP3   OH229727   5.454   2.860   3.737 -0.1641 -0.2119  0.2037
 2771TIP3    H129728   5.458   2.879   3.643  1.1437 -1.2237  0.0229
 2771TIP3    H229729   5.372   2.811   3.748 -0.9121  0.9084 -0.1874
 2772TIP3   OH229730   0.574   0.989  11.409 -0.2879 -0.1183  0.1172
 2772TIP3    H129731   0.523   1.025  11.481 -0.3837 -1.2212  0.6203
 2772TIP3    H229732   0.518   0.921  11.372  0.8358 -1.4410  0.7637
 2773TIP3   OH229733   5.252   1.964  15.986  0.1252  0.1952 -0.0197
 2773TIP3    H129734   5.274   1.976  15.893 -1.4647  1.5534 -0.2660
 2773TIP3    H229735   5.264   2.051  16.025  4.0856 -0.9785  1.9122
 2774TIP3   OH229736   2.291   5.651  14.118 -0.2940 -0.3785  0.1003
 2774TIP3    H129737   2.231   5.681  14.050 -0.4299  1.0869  0.8274
 2774TIP3    H229738   2.340   5.729  14.144  0.4060 -1.0950  1.0351
 2775TIP3   OH229739   4.441   4.504   4.368 -0.2504 -0.3345 -0.1616
 2775TIP3    H129740   4.534   4.482   4.375  0.6080  2.7001 -0.5971
 2775TIP3    H229741   4.411   4.515   4.458 -0.0122 -0.6391 -0.0448
 2776TIP3   OH229742   4.654   1.776  14.783  0.2283 -0.4495  0.4615
 2776TIP3    H129743   4.706   1.738  14.712 -0.9443 -0.2532 -0.5245
 2776TIP3    H229744   4.565   1.777  14.750 -0.3398 -0.2981  1.9307
 2777TIP3   OH229745   1.200   3.335   2.597  0.7973 -0.1681  0.2617
 2777TIP3    H129746   1.122   3.386   2.576  0.3115 -0.5773  1.0127
 2777TIP3    H229747   1.239   3.314   2.512  0.6360  0.8723 -0.0729
 2778TIP3   OH229748   6.664   2.603  11.504  0.3364  0.1870  0.6185
 2778TIP3    H129749   6.584   2.654  11.516  0.2977  0.0007  1.1604
 2778TIP3    H229750   6.680   2.607  11.410 -0.9383 -0.7212  0.3444
 2779TIP3   OH229751   2.312   2.231  13.821 -0.2386  0.3605  0.2548
 2779TIP3    H129752   2.278   2.280  13.746 -2.8358 -2.0397 -0.3280
 2779TIP3    H229753   2.390   2.279  13.848 -0.6180  2.7376 -2.3924
 2780TIP3   OH229754   6.005   6.045  16.732 -0.1761 -0.4434 -0.3280
 2780TIP3    H129755   5.992   6.005  16.818 -0.4091  1.3261  0.5045
 2780TIP3    H229756   6.087   6.007  16.700 -0.0161 -1.0240  0.7257
 2781TIP3   OH229757   4.394   0.548   2.190 -0.5249 -0.2052  0.5622
 2781TIP3    H129758   4.330   0.528   2.121 -0.8315 -0.6147  0.9516
 2781TIP3    H229759   4.341   0.586   2.260 -0.3220 -0.4202  0.8339
 2782TIP3   OH229760   3.265   4.028  14.576  0.1292  0.3314  0.8482
 2782TIP3    H129761   3.321   4.106  14.572  0.5167  0.0878  1.3958
 2782TIP3    H229762   3.229   4.020  14.487  0.3859  0.9141  0.6876
 2783TIP3   OH229763   0.491   6.505  12.306 -0.3512  0.4882  0.2553
 2783TIP3    H129764   0.548   6.441  12.263 -1.0805 -0.4081  0.5901
 2783TIP3    H229765   0.467   6.567  12.237  2.1866  1.7838  0.3964
 2784TIP3   OH229766   6.513   4.564  11.399 -0.6117 -0.5457 -0.0241
 2784TIP3    H129767   6.431   4.597  11.437 -0.6733 -0.1106 -0.5342
 2784TIP3    H229768   6.534   4.625  11.329  0.3125 -0.4907  0.2839
 2785TIP3   OH229769   2.063   2.769  12.560  0.1746 -0.0774 -0.1685
 2785TIP3    H129770   1.999   2.735  12.623 -0.2090  0.7715 -0.0882
 2785TIP3    H229771   2.015   2.773  12.477  0.8981 -1.9344 -0.7379
 2786TIP3   OH229772   4.393   0.710   5.411 -0.1305 -0.0997 -1.0199
 2786TIP3    H129773   4.344   0.628   5.405 -1.4205  0.4799  0.7343
 2786TIP3    H229774   4.481   0.687   5.383 -0.3660 -2.1858 -0.2511
 2787TIP3   OH229775   4.955   1.312   1.351 -0.1526  0.0491  0.1187
 2787TIP3    H129776   4.881   1.295   1.292  1.1965 -1.7680 -1.1661
 2787TIP3    H229777   4.918   1.366   1.420 -2.8330 -1.2026 -0.1813
 2788TIP3   OH229778   4.215   3.097   2.781 -0.4335 -0.3235 -0.3960
 2788TIP3    H129779   4.221   3.012   2.824 -0.0008  0.6240  1.5168
 2788TIP3    H229780   4.130   3.131   2.806 -0.7092 -0.2778 -1.3583
 2789TIP3   OH229781   6.392   2.376   5.792  0.5275 -0.0397  0.1422
 2789TIP3    H129782   6.389   2.293   5.840 -0.6674  0.5357  1.1236
 2789TIP3    H229783   6.449   2.358   5.717 -0.7190 -2.1327 -0.4066
 2790TIP3   OH229784   3.123   1.060  14.249  0.6702  0.1122 -0.0070
 2790TIP3    H129785   3.090   1.000  14.182 -0.3984 -0.2451  0.8020
 2790TIP3    H229786   3.072   1.039  14.327  1.7729  0.6270  0.8834
 2791TIP3   OH229787   2.757   3.912   1.592 -0.2738  0.3780 -0.2601
 2791TIP3    H129788   2.768   3.916   1.687  0.2203  0.7177 -0.3296
 2791TIP3    H229789   2.747   4.004   1.565 -1.0741  0.2397 -0.4639
 2792TIP3   OH229790   3.951   6.486  12.285 -0.1728  0.3873  0.1235
 2792TIP3    H129791   3.932   6.500  12.193 -0.2592  2.4794  0.4085
 2792TIP3    H229792   3.880   6.530  12.332  0.8770  1.0327  1.1754
 2793TIP3   OH229793   2.143   4.325   3.639  0.3865 -0.1757  1.1979
 2793TIP3    H129794   2.159   4.241   3.683  1.4018  1.0395  3.2993
 2793TIP3    H229795   2.171   4.391   3.702 -0.8366  1.7930 -0.2035
 2794TIP3   OH229796   5.718   2.863  13.627 -0.0582  0.4244 -0.0992
 2794TIP3    H129797   5.721   2.951  13.590  0.0010 -0.1358 -1.4829
 2794TIP3    H229798   5.644   2.821  13.583  1.8740 -1.2573 -1.9404
 2795TIP3   OH229799   4.840   5.527  11.024  0.3938  0.1931 -0.5507
 2795TIP3    H129800   4.911   5.579  10.984 -1.7457  1.0728 -3.5926
 2795TIP3    H229801   4.862   5.436  11.001  1.9089  0.1098  1.0144
 2796TIP3   OH229802   3.597   4.720   2.354  0.3651 -0.0085 -0.4192
 2796TIP3    H129803   3.586   4.815   2.347 -0.6791 -0.0802 -0.0608
 2796TIP3    H229804   3.507   4.687   2.364  0.8256 -0.8708  1.2412
 2797TIP3   OH229805   6.141   3.842  13.665  0.7019 -0.0129 -0.7107
 2797TIP3    H129806   6.144   3.747  13.653 -1.5023 -0.7214  2.9198
 2797TIP3    H229807   6.049   3.865  13.655  0.8026  1.2629  0.8454
 2798TIP3   OH229808   4.183   0.318  14.934  0.1202  0.1480 -0.0293
 2798TIP3    H129809   4.262   0.345  14.981  0.7598 -0.3078 -0.8267
 2798TIP3    H229810   4.207   0.238  14.888 -0.7798  0.0477 -0.3635
 2799TIP3   OH229811   1.684   2.769   6.340 -0.0807 -0.3639 -0.3402
 2799TIP3    H129812   1.617   2.705   6.365 -1.4430  0.3048 -2.0336
 2799TIP3    H229813   1.699   2.821   6.419 -2.4607  0.2116 -0.1782
 2800TIP3   OH229814   4.991   1.510  16.037  0.2970  0.2283 -0.3837
 2800TIP3    H129815   5.008   1.599  16.007  1.1109  0.2790  0.1949
 2800TIP3    H229816   5.077   1.474  16.057  0.0043 -0.7941 -0.8837
 2801TIP3   OH229817   4.635   3.482  13.847 -0.0664  0.0787 -0.5351
 2801TIP3    H129818   4.708   3.423  13.827  1.2984  1.5634 -0.1605
 2801TIP3    H229819   4.611   3.519  13.762  0.1094  0.1424 -0.5572
 2802TIP3   OH229820   0.819   1.867   5.892 -0.0753  0.4021 -0.8419
 2802TIP3    H129821   0.883   1.907   5.951 -0.0086 -1.7082  0.6372
 2802TIP3    H229822   0.736   1.874   5.939 -0.1130 -0.8362 -0.6825
 2803TIP3   OH229823   0.337   1.794  13.562 -0.6758 -0.6203 -0.1656
 2803TIP3    H129824   0.266   1.734  13.587 -3.4632  2.1922 -0.5913
 2803TIP3    H229825   0.364   1.835  13.644 -3.1424  1.7611 -0.3735
 2804TIP3   OH229826   1.798   3.778   3.834  0.2271 -0.4701 -0.2069
 2804TIP3    H129827   1.829   3.868   3.828 -0.6275 -0.0688  1.0651
 2804TIP3    H229828   1.705   3.785   3.856 -0.7151 -1.6521 -3.3316
 2805TIP3   OH229829   2.065   6.038   2.296  0.1733  0.2825 -0.0517
 2805TIP3    H129830   2.081   6.002   2.383  0.5176 -0.8451 -0.5554
 2805TIP3    H229831   2.006   6.112   2.310 -0.9192 -0.7442  0.9975
 2806TIP3   OH229832   6.320   1.472   1.498 -0.4459 -1.3046  0.0679
 2806TIP3    H129833   6.246   1.422   1.531 -0.3859 -1.8343 -0.5768
 2806TIP3    H229834   6.392   1.408   1.493  0.1720 -0.7041  1.0793
 2807TIP3   OH229835   0.204   0.224  15.942  0.1874  0.5560 -0.4734
 2807TIP3    H129836   0.203   0.130  15.963 -0.5254  0.5213 -0.6328
 2807TIP3    H229837   0.273   0.260  15.998 -0.3102  0.1250  0.4308
 2808TIP3   OH229838   1.927   2.796  11.686  0.4232 -0.7858 -0.3338
 2808TIP3    H129839   1.862   2.750  11.632 -0.6318 -1.1187  1.1437
 2808TIP3    H229840   1.877   2.863  11.732  1.5396  0.3583 -0.7309
 2809TIP3   OH229841   0.934   6.398   3.370 -0.5039  0.3286  0.3430
 2809TIP3    H129842   0.961   6.349   3.292  0.5245  0.8732  0.3388
 2809TIP3    H229843   0.839   6.406   3.362 -0.5909 -0.9732 -0.0515
 2810TIP3   OH229844   5.537   2.441  14.609 -0.2462  0.4996  0.0575
 2810TIP3    H129845   5.566   2.530  14.589  1.5217  0.3606  1.7079
 2810TIP3    H229846   5.616   2.397  14.640 -1.4044 -1.2170  0.6878
 2811TIP3   OH229847   5.572   0.925  12.278  0.1823  0.0385 -0.2244
 2811TIP3    H129848   5.596   0.972  12.358  1.2685  0.0609 -0.5475
 2811TIP3    H229849   5.632   0.850  12.277 -0.3178 -0.3568 -0.6474
 2812TIP3   OH229850   3.049   0.269   3.419  0.1612  0.0754 -0.1422
 2812TIP3    H129851   3.119   0.206   3.436  0.8841  0.9206  0.0902
 2812TIP3    H229852   3.095   0.352   3.406 -0.5539  0.1521 -2.8525
 2813TIP3   OH229853   2.041   1.338   5.287  0.5209  0.9218  0.2177
 2813TIP3    H129854   1.983   1.366   5.216  1.1516 -0.3372 -0.8262
 2813TIP3    H229855   1.981   1.313   5.357 -0.1676  0.8271 -0.3830
 2814TIP3   OH229856   0.193   4.251   1.613 -0.0277  0.1810  0.0868
 2814TIP3    H129857   0.229   4.168   1.580 -1.9870  0.3448 -2.8259
 2814TIP3    H229858   0.132   4.225   1.682  1.6996 -0.4753  1.4357
 2815TIP3   OH229859   5.464   6.725   3.474  0.6467 -0.1777 -1.0136
 2815TIP3    H129860   5.436   6.809   3.510 -1.6328 -0.3707 -2.1581
 2815TIP3    H229861   5.384   6.673   3.467  1.7857 -1.9555 -1.6047
 2816TIP3   OH229862   5.019   3.198  10.664  0.6057 -0.3085 -0.2708
 2816TIP3    H129863   5.059   3.152  10.738  0.6656  1.3430  0.7812
 2816TIP3    H229864   4.960   3.134  10.625  0.9262 -1.3695  0.9239
 2817TIP3   OH229865   0.206   2.087   1.651 -0.5460  0.1717  0.3234
 2817TIP3    H129866   0.175   1.996   1.645 -2.0052  0.7458 -1.4659
 2817TIP3    H229867   0.287   2.088   1.601  0.4989 -0.5182  1.9229
 2818TIP3   OH229868   0.794   6.067   0.690 -0.3006  0.1682 -0.1740
 2818TIP3    H129869   0.746   6.129   0.745  1.4093  0.0922  1.5111
 2818TIP3    H229870   0.728   6.029   0.632 -2.0364  0.8818  1.2708
 2819TIP3   OH229871   5.173   1.613   2.632 -1.0425  0.3612  0.1342
 2819TIP3    H129872   5.202   1.669   2.704  0.9193 -0.3518 -0.0645
 2819TIP3    H229873   5.197   1.661   2.553 -1.3324  0.2216 -0.0400
 2820TIP3   OH229874   2.383   4.248   0.460  0.1903 -0.1243  0.1889
 2820TIP3    H129875   2.292   4.217   0.456 -0.3720  1.1885  1.9742
 2820TIP3    H229876   2.377   4.342   0.449  1.6486 -0.2254 -2.3982
 2821TIP3   OH229877   6.695   0.448   1.830 -0.4367 -0.1918  0.6341
 2821TIP3    H129878   6.642   0.417   1.903  1.5534 -1.1237  1.7935
 2821TIP3    H229879   6.774   0.483   1.871  0.6226 -0.4717 -1.0432
 2822TIP3   OH229880   0.860   0.547   1.200 -0.1211 -0.3277 -0.7055
 2822TIP3    H129881   0.874   0.454   1.221  0.0971 -0.1978 -0.2680
 2822TIP3    H229882   0.929   0.568   1.137  0.8481 -0.0533  0.4000
 2823TIP3   OH229883   4.311   6.112  15.725  0.1734  0.3211  0.3958
 2823TIP3    H129884   4.359   6.041  15.767 -0.1891  0.1956  0.6037
 2823TIP3    H229885   4.349   6.192  15.760  1.2236  0.2565 -0.5470
 2824TIP3   OH229886   6.573   5.990  13.501  0.0796 -0.0715  0.0634
 2824TIP3    H129887   6.525   5.926  13.447 -0.3828  1.3562 -1.2951
 2824TIP3    H229888   6.665   5.968  13.487 -0.0611 -0.2465 -0.6576
 2825TIP3   OH229889   1.197   0.689  16.732 -0.2361  0.1639 -0.6738
 2825TIP3    H129890   1.235   0.752  16.794  2.5091 -2.0197  0.0538
 2825TIP3    H229891   1.246   0.703  16.651  1.0847 -1.6190 -0.2163
 2826TIP3   OH229892   2.930   5.105  15.428  0.6372 -0.1108  0.1457
 2826TIP3    H129893   2.994   5.041  15.395  0.6072 -0.1978  0.2559
 2826TIP3    H229894   2.932   5.094  15.523 -3.0258 -3.6217  0.1088
 2827TIP3   OH229895   0.871   1.585  16.211 -0.4114 -0.2072  0.3344
 2827TIP3    H129896   0.783   1.550  16.221 -0.9952  1.0031 -0.3388
 2827TIP3    H229897   0.900   1.555  16.125  0.4270 -1.7932  1.1292
 2828TIP3   OH229898   0.252   0.018   4.554 -0.4803 -0.4934 -0.5256
 2828TIP3    H129899   0.308   0.069   4.612 -1.7302  1.0560 -0.6268
 2828TIP3    H229900   0.294   0.025   4.468 -0.0437 -0.6002 -0.3252
 2829TIP3   OH229901   2.750   1.780  15.025 -0.0738  0.0831  0.5450
 2829TIP3    H129902   2.665   1.735  15.020  0.1629 -0.9773  3.6735
 2829TIP3    H229903   2.814   1.711  15.009  0.2454  0.5748 -0.3535
 2830TIP3   OH229904   1.109   2.193  16.265 -0.3522 -0.5473  0.3262
 2830TIP3    H129905   1.132   2.218  16.176  0.6509  1.1001  1.0040
 2830TIP3    H229906   1.148   2.106  16.276  0.0340 -0.5082 -0.6334
 2831TIP3   OH229907   5.155   4.886  11.590  0.0556 -0.0450  0.2593
 2831TIP3    H129908   5.064   4.858  11.577  0.0165 -1.4011  2.7491
 2831TIP3    H229909   5.186   4.832  11.663  2.2885  1.6815  0.6829
 2832TIP3   OH229910   2.125   6.472   4.621 -0.7904  0.2063  0.1889
 2832TIP3    H129911   2.122   6.390   4.670 -2.8597 -0.4919 -0.9726
 2832TIP3    H229912   2.087   6.536   4.681 -0.2187  0.0803  0.6927
 2833TIP3   OH229913   1.397   6.253  14.567  0.5217 -0.9496  0.7538
 2833TIP3    H129914   1.419   6.242  14.474 -1.2904 -2.2340  0.4175
 2833TIP3    H229915   1.480   6.276  14.609  1.0200  2.1048 -1.5030
 2834TIP3   OH229916   1.105   2.439   0.873 -0.3067  0.7665  0.0855
 2834TIP3    H129917   1.101   2.489   0.792  0.2475 -1.4001 -1.3462
 2834TIP3    H229918   1.196   2.407   0.877 -0.4012  0.6063  1.4191
 2835TIP3   OH229919   2.718   5.410   3.110 -0.3557  0.3261  0.1533
 2835TIP3    H129920   2.653   5.480   3.122 -0.9896 -0.3616  0.8251
 2835TIP3    H229921   2.711   5.357   3.189  1.1929  0.3562  0.3516
 2836TIP3   OH229922   3.038   0.054  17.238 -0.1681  0.4866 -0.2012
 2836TIP3    H129923   3.082   0.109  17.302 -1.5732  1.2067  0.1978
 2836TIP3    H229924   3.059   0.094  17.154  0.8587  0.1397 -0.1121
 2837TIP3   OH229925   4.288   4.421  16.588  0.0248  0.1933  0.2951
 2837TIP3    H129926   4.255   4.337  16.555 -0.7012  0.4653  0.3201
 2837TIP3    H229927   4.234   4.487  16.545 -0.8297  0.5718  1.8779
 2838TIP3   OH229928   0.632   0.210   5.352  0.6855  0.1375 -0.0288
 2838TIP3    H129929   0.648   0.304   5.347 -1.7679  0.7760  1.8559
 2838TIP3    H229930   0.613   0.183   5.262  0.9037  1.5507 -0.5164
 2839TIP3   OH229931   1.424   4.233   0.264 -0.4313 -0.2627  0.7533
 2839TIP3    H129932   1.458   4.173   0.197  2.3232  2.4437 -0.4917
 2839TIP3    H229933   1.469   4.207   0.344  0.2689 -0.2926  0.3598
 2840TIP3   OH229934   4.821   1.712  17.114 -0.6624  0.3112 -0.0662
 2840TIP3    H129935   4.823   1.668  17.199 -0.9480 -0.3584 -0.3998
 2840TIP3    H229936   4.880   1.661  17.059 -1.1352  0.2417 -0.5107
 2841TIP3   OH229937   2.037   3.150  12.666  0.0972 -0.4082 -0.2928
 2841TIP3    H129938   2.088   3.084  12.713  0.1539  0.2901  0.6451
 2841TIP3    H229939   1.999   3.205  12.734  0.9247  1.2134 -1.0807
 2842TIP3   OH229940   5.857   4.115   1.159  0.1925  0.6350 -0.0117
 2842TIP3    H129941   5.801   4.192   1.150  3.1352  2.7960 -1.8837
 2842TIP3    H229942   5.891   4.099   1.071  3.1075  0.0306  1.0954
 2843TIP3   OH229943   1.884   2.648   4.083 -0.3840  0.0642  0.1603
 2843TIP3    H129944   1.905   2.638   4.175 -0.5346  0.3622  0.2291
 2843TIP3    H229945   1.938   2.723   4.055  2.0804 -1.9073 -0.7660
 2844TIP3   OH229946   3.701   1.050   3.981 -0.3996 -0.6061  0.3587
 2844TIP3    H129947   3.765   1.042   4.052 -0.8700  1.9777  1.1605
 2844TIP3    H229948   3.753   1.068   3.903 -0.0560  1.2396  0.9646
 2845TIP3   OH229949   3.747   0.492  12.663 -0.3284 -0.0320  0.4542
 2845TIP3    H129950   3.751   0.407  12.618  1.0295  0.7452 -1.0139
 2845TIP3    H229951   3.666   0.533  12.631 -0.6239 -0.4746  0.6246
 2846TIP3   OH229952   1.775   3.316   2.017  0.5752 -0.0092  0.2031
 2846TIP3    H129953   1.771   3.407   2.046 -0.6851 -0.2385  0.8251
 2846TIP3    H229954   1.793   3.322   1.923 -0.6842  0.9441 -0.0097
 2847TIP3   OH229955   6.420   5.033   4.775  0.4095 -0.1703 -0.0263
 2847TIP3    H129956   6.348   5.079   4.733  0.1357 -2.3211 -2.0881
 2847TIP3    H229957   6.495   5.045   4.716  0.5257 -1.6375 -0.2276
 2848TIP3   OH229958   1.616   6.621   3.625 -0.1759 -0.0316 -0.0110
 2848TIP3    H129959   1.668   6.650   3.550  0.3328  0.1757  0.4180
 2848TIP3    H229960   1.613   6.525   3.616  0.1633 -0.0353 -0.1191
 2849TIP3   OH229961   1.752   0.470  14.883  0.7774  0.3628 -0.3240
 2849TIP3    H129962   1.725   0.471  14.974  1.4949  0.7930 -0.1044
 2849TIP3    H229963   1.801   0.388  14.874  0.2171  0.0410 -0.4775
 2850TIP3   OH229964   3.058   0.227   1.516  0.1420  0.3991  0.3248
 2850TIP3    H129965   3.065   0.209   1.610  1.5609 -1.4606 -0.0822
 2850TIP3    H229966   2.978   0.183   1.488  1.2284 -1.6125  0.1852
 2851TIP3   OH229967   4.860   5.309   2.401  0.0285 -1.2234 -0.4206
 2851TIP3    H129968   4.879   5.265   2.484  2.3898  0.4169 -0.0252
 2851TIP3    H229969   4.942   5.307   2.353 -0.9402 -0.9108 -2.1838
 2852TIP3   OH229970   6.092   1.573  12.978 -0.0661  0.4068 -0.0874
 2852TIP3    H129971   6.173   1.603  13.020 -0.1401 -0.8302  0.9806
 2852TIP3    H229972   6.120   1.504  12.918 -0.4658 -1.4023  1.6906
 2853TIP3   OH229973   1.046   5.923  12.961 -0.3426 -0.1477 -0.1091
 2853TIP3    H129974   1.120   5.983  12.969 -0.8448  0.8340 -2.3586
 2853TIP3    H229975   1.087   5.839  12.938  0.3477 -0.7863  2.9442
 2854TIP3   OH229976   0.105   2.387  15.990 -0.1699  0.0321  0.8847
 2854TIP3    H129977   0.101   2.403  15.896  0.5934 -1.7277  0.4991
 2854TIP3    H229978   0.197   2.366  16.007 -0.5933 -1.3458  1.6740
 2855TIP3   OH229979   2.008   4.299   3.121 -0.7703  0.3991 -0.1294
 2855TIP3    H129980   1.968   4.259   3.199 -0.2323 -0.2366 -0.1625
 2855TIP3    H229981   2.039   4.384   3.151 -0.3574  0.0642  0.4271
 2856TIP3   OH229982   3.976   3.450   2.550  0.5168  0.1683  0.0394
 2856TIP3    H129983   3.895   3.474   2.505  0.6435 -1.3584 -1.0875
 2856TIP3    H229984   3.947   3.407   2.630  0.1136 -1.6034 -0.9954
 2857TIP3   OH229985   0.696   0.822   4.585  0.1399  0.0233 -0.1114
 2857TIP3    H129986   0.773   0.854   4.633  0.2416 -1.1919  0.5854
 2857TIP3    H229987   0.663   0.750   4.638  0.1068 -1.2288 -1.7541
 2858TIP3   OH229988   6.361   0.880   0.449  0.0947 -0.0714 -0.6244
 2858TIP3    H129989   6.396   0.793   0.469  0.3164 -1.0844 -4.5237
 2858TIP3    H229990   6.434   0.927   0.409 -0.5444  1.2346 -0.3263
 2859TIP3   OH229991   5.965   2.838  13.756  0.5467  0.0980  0.0215
 2859TIP3    H129992   5.985   2.932  13.757  0.7493  0.0555  0.1983
 2859TIP3    H229993   5.870   2.834  13.749  0.5328  0.3189  0.0669
 2860TIP3   OH229994   6.643   6.172  15.633  0.3507 -0.2556  0.4756
 2860TIP3    H129995   6.611   6.193  15.545 -0.0137  1.2206  0.9276
 2860TIP3    H229996   6.582   6.217  15.691  0.6015 -1.2048  1.4933
 2861TIP3   OH229997   6.036   0.938   2.658 -0.0648 -0.0337  0.0976
 2861TIP3    H129998   6.017   0.922   2.751 -0.7540  0.9683  0.1537
 2861TIP3    H229999   6.123   0.901   2.644  0.1579  0.0215  1.2145
 2862TIP3   OH230000   5.047   5.856   5.940  0.2455  0.5928  0.0932
 2862TIP3    H130001   5.062   5.824   5.851 -1.1714  1.0567 -0.3379
 2862TIP3    H230002   5.057   5.778   5.995 -0.6375 -0.0852 -0.6685
 2863TIP3   OH230003   0.792   4.444   2.399 -0.1706  0.0942  0.0058
 2863TIP3    H130004   0.789   4.535   2.427 -1.8554  0.3737 -0.9105
 2863TIP3    H230005   0.813   4.447   2.306 -3.3931 -0.1415 -0.8582
 2864TIP3   OH230006   0.254   2.053  12.060 -0.2406 -0.1145  1.0193
 2864TIP3    H130007   0.331   2.036  12.114  0.0367  0.0719  0.6794
 2864TIP3    H230008   0.288   2.062  11.971 -0.5690  0.6638  0.9655
 2865TIP3   OH230009   4.038   0.846   2.324 -0.0565  0.2029 -0.3497
 2865TIP3    H130010   3.966   0.803   2.278 -0.9319  0.8116  0.4034
 2865TIP3    H230011   4.068   0.914   2.264 -1.1611  0.9621 -0.0871
 2866TIP3   OH230012   2.174   5.654  17.277 -0.1126 -0.3484 -0.1932
 2866TIP3    H130013   2.179   5.653  17.372 -2.4324  1.3938  0.0367
 2866TIP3    H230014   2.122   5.577  17.254  1.0227 -1.1528 -0.1533
 2867TIP3   OH230015   1.021   5.903  15.918 -0.3971 -0.1357  0.2405
 2867TIP3    H130016   1.055   5.833  15.863 -1.2639  0.7707 -1.5362
 2867TIP3    H230017   1.099   5.944  15.955  0.2578 -0.3354 -0.8863
 2868TIP3   OH230018   5.189   4.001  17.162  0.9951  0.0916  0.2151
 2868TIP3    H130019   5.274   4.040  17.147  1.5782 -0.2451  2.2868
 2868TIP3    H230020   5.167   4.025  17.253 -0.2386 -1.3698  0.3468
 2869TIP3   OH230021   2.496   2.625   3.531 -0.1554 -0.1756 -0.6707
 2869TIP3    H130022   2.521   2.549   3.583 -0.8825  0.1681  0.2080
 2869TIP3    H230023   2.544   2.698   3.571 -0.1627 -0.0218 -0.9410
 2870TIP3   OH230024   2.224   2.799  16.530  0.0222 -0.1309  0.2690
 2870TIP3    H130025   2.306   2.755  16.508 -0.9999 -1.4243 -1.2864
 2870TIP3    H230026   2.193   2.753  16.608  0.4342 -0.1071  0.4494
 2871TIP3   OH230027   3.235   4.981   0.473 -0.1413 -0.3872  0.6735
 2871TIP3    H130028   3.285   5.008   0.397  0.6672  2.2435  2.0280
 2871TIP3    H230029   3.146   5.011   0.455 -0.0247 -0.0751  0.6095
 2872TIP3   OH230030   3.322   3.016  16.557  0.0884 -0.2745  0.4234
 2872TIP3    H130031   3.407   3.043  16.591  0.0199 -0.7219  0.9457
 2872TIP3    H230032   3.258   3.049  16.621 -0.2507  1.1953 -0.6076
 2873TIP3   OH230033   1.427   6.655  16.636 -0.2305 -0.0822 -0.2563
 2873TIP3    H130034   1.373   6.576  16.638 -0.3280 -0.0102  1.0759
 2873TIP3    H230035   1.403   6.702  16.717  1.1054  0.4286 -0.1388
 2874TIP3   OH230036   5.148   1.598  10.897  0.0248  0.1189  0.0508
 2874TIP3    H130037   5.212   1.609  10.827  2.3265 -1.3313  1.7475
 2874TIP3    H230038   5.071   1.559  10.854  1.5819 -1.3238 -1.5924
 2875TIP3   OH230039   1.610   6.611   6.109 -0.5503 -0.7462 -0.1953
 2875TIP3    H130040   1.609   6.706   6.107 -1.2200 -0.7398  0.2735
 2875TIP3    H230041   1.569   6.585   6.026  0.7577 -0.6501 -0.9059
 2876TIP3   OH230042   6.540   2.316   3.036  0.1978  0.2789  0.2148
 2876TIP3    H130043   6.595   2.239   3.028 -0.9374 -0.4418 -0.8394
 2876TIP3    H230044   6.458   2.293   2.994 -0.0022  2.2322 -0.5950
 2877TIP3   OH230045   4.033   1.764   0.984 -0.2721 -0.1245  0.7151
 2877TIP3    H130046   3.988   1.756   0.900  1.8269 -2.1198 -0.3420
 2877TIP3    H230047   3.990   1.700   1.040  0.4706 -1.2480  0.0470
 2878TIP3   OH230048   2.024   1.201   5.648  0.6537  0.7907 -0.3457
 2878TIP3    H130049   2.004   1.137   5.580 -0.6874  1.6879 -0.8266
 2878TIP3    H230050   2.101   1.166   5.692  0.1137 -1.0104 -0.7720
 2879TIP3   OH230051   2.459   5.653   2.353  0.1345 -0.2013  0.0670
 2879TIP3    H130052   2.439   5.713   2.281  0.7757 -1.1672 -0.9549
 2879TIP3    H230053   2.428   5.698   2.431 -0.4382  0.9530 -0.7922
 2880TIP3   OH230054   6.140   3.344  12.221 -0.0898 -0.2155  0.2210
 2880TIP3    H130055   6.153   3.296  12.139 -0.6283  0.6313 -0.3790
 2880TIP3    H230056   6.211   3.408  12.222  0.5388 -0.9120  0.9444
 2881TIP3   OH230057   6.275   3.258   5.828 -0.4575 -0.6114  1.0999
 2881TIP3    H130058   6.367   3.276   5.850 -0.8659 -0.3494  2.7206
 2881TIP3    H230059   6.276   3.239   5.734  1.3609 -1.3492  1.2296
 2882TIP3   OH230060   0.351   1.226   5.144  0.8342  0.0472  0.2719
 2882TIP3    H130061   0.338   1.249   5.236  0.5340  1.2193 -0.0470
 2882TIP3    H230062   0.373   1.309   5.101 -1.6626  0.0660 -1.1953
 2883TIP3   OH230063   1.066   1.914   0.154  0.0105 -0.2823  0.2307
 2883TIP3    H130064   1.121   1.873   0.222  1.2718  0.7359 -0.1361
 2883TIP3    H230065   0.998   1.849   0.136  1.0509 -1.5590  0.7588
 2884TIP3   OH230066   6.086   1.956  16.581 -0.0110  0.0052 -0.7820
 2884TIP3    H130067   6.100   1.909  16.664  0.6858 -0.0890 -0.9468
 2884TIP3    H230068   6.134   2.038  16.592 -0.3344  0.2116 -0.9039
 2885TIP3   OH230069   2.352   2.165  15.898  0.1790  0.4968  0.3324
 2885TIP3    H130070   2.336   2.108  15.973  2.2626  1.0271  1.2753
 2885TIP3    H230071   2.432   2.130  15.858  0.5991  1.7818 -0.0217
 2886TIP3   OH230072   2.478   2.637   6.697 -0.2219 -0.3879 -0.8840
 2886TIP3    H130073   2.527   2.560   6.725 -1.6137 -0.3316  2.1197
 2886TIP3    H230074   2.388   2.620   6.726 -0.3610  2.8491  1.0960
 2887TIP3   OH230075   5.889   2.563  11.514 -0.2701 -0.2464  0.0179
 2887TIP3    H130076   5.971   2.519  11.492 -0.4430 -0.1864 -0.7645
 2887TIP3    H230077   5.823   2.521  11.458  0.1469  3.4904 -3.7137
 2888TIP3   OH230078   0.172   4.754   0.204  0.1305  0.3157  0.2614
 2888TIP3    H130079   0.079   4.741   0.220 -0.0785  1.0774 -0.2565
 2888TIP3    H230080   0.207   4.666   0.191 -0.6882  0.0797 -0.4333
 2889TIP3   OH230081   1.104   5.328   1.941  0.1740  0.2492 -0.4249
 2889TIP3    H130082   1.181   5.370   1.978  0.8953  0.4459 -2.0797
 2889TIP3    H230083   1.094   5.247   1.991  0.9347  0.6194  0.3534
 2890TIP3   OH230084   6.286   0.174   6.352 -0.1354  0.5208 -0.3191
 2890TIP3    H130085   6.221   0.208   6.291  0.6064  2.5635 -0.0312
 2890TIP3    H230086   6.347   0.246   6.366  1.1113 -0.7051  0.9221
 2891TIP3   OH230087   2.793   4.429   2.928  0.0122  0.2080  0.4039
 2891TIP3    H130088   2.843   4.436   2.846 -0.9471  0.4571 -0.1754
 2891TIP3    H230089   2.813   4.511   2.975 -1.6234  1.3965 -0.8646
 2892TIP3   OH230090   3.909   2.389   0.034  0.0612 -0.0052  0.7073
 2892TIP3    H130091   3.870   2.358  -0.047 -0.2894  1.2905  0.3555
 2892TIP3    H230092   3.837   2.435   0.079  0.6321  0.5779  1.0403
 2893TIP3   OH230093   4.221   3.546   3.526  0.1164  0.1008 -0.5604
 2893TIP3    H130094   4.311   3.573   3.511 -0.6324  2.0939 -1.7296
 2893TIP3    H230095   4.204   3.568   3.618  0.6129  0.2688 -0.5083
 2894TIP3   OH230096   6.117   4.101   0.598 -0.2458  0.2458  0.2062
 2894TIP3    H130097   6.165   4.163   0.652  1.4392 -1.3088  0.6093
 2894TIP3    H230098   6.157   4.108   0.512  0.7963 -1.0833  0.5508
 2895TIP3   OH230099   4.230   1.497  11.597 -0.4312 -0.1152  0.1478
 2895TIP3    H130100   4.268   1.580  11.568  1.0760 -0.9125 -0.2203
 2895TIP3    H230101   4.153   1.486  11.540  0.7621 -0.1675 -1.5305
 2896TIP3   OH230102   4.795   0.321   1.977  0.2766  0.0209  0.3177
 2896TIP3    H130103   4.850   0.391   1.942  1.6186  0.0321  2.2824
 2896TIP3    H230104   4.746   0.363   2.048  0.7063 -0.8678  1.1658
 2897TIP3   OH230105   6.261   0.384  15.413  0.0102 -0.2582 -0.0148
 2897TIP3    H130106   6.204   0.369  15.338 -0.4796  0.9051  0.1151
 2897TIP3    H230107   6.329   0.442  15.380 -0.4934  0.6742  0.5668
 2898TIP3   OH230108   3.745   1.089   5.057  0.2369  0.5012  0.1073
 2898TIP3    H130109   3.724   1.042   5.138  2.1181 -1.5082 -0.4556
 2898TIP3    H230110   3.827   1.049   5.027  1.0490  3.0333 -1.3890
 2899TIP3   OH230111   4.232   5.332   3.379  0.0746  0.5495 -0.4951
 2899TIP3    H130112   4.313   5.366   3.342  0.4100 -0.2971 -0.5504
 2899TIP3    H230113   4.250   5.325   3.473  1.1283 -2.4004 -0.8227
 2900TIP3   OH230114   4.181   3.371   6.471  0.2534 -0.1336 -0.1651
 2900TIP3    H130115   4.258   3.404   6.516 -0.0487 -1.6145  1.5416
 2900TIP3    H230116   4.112   3.433   6.493  0.4954  0.0950 -0.0481
 2901TIP3   OH230117   2.375   3.540   5.146  0.3179  0.1974 -0.1544
 2901TIP3    H130118   2.469   3.548   5.163  0.5626 -0.9707 -0.8706
 2901TIP3    H230119   2.368   3.474   5.078 -0.9340  1.5491 -1.3995
 2902TIP3   OH230120   1.857   6.113  15.911 -0.1740  0.0921  0.2465
 2902TIP3    H130121   1.791   6.048  15.938  1.4892 -1.1593  1.4554
 2902TIP3    H230122   1.875   6.091  15.819 -0.1180 -0.7547  0.4483
 2903TIP3   OH230123   3.702   6.137  14.989 -0.1029  0.7430 -0.2165
 2903TIP3    H130124   3.706   6.094  15.075  0.7715 -0.8270 -1.0165
 2903TIP3    H230125   3.778   6.104  14.942 -1.8127 -0.2421 -2.4285
 2904TIP3   OH230126   0.377   6.103  12.323  0.2635  0.0823  0.3285
 2904TIP3    H130127   0.283   6.119  12.317  0.2074 -0.3417  0.0622
 2904TIP3    H230128   0.384   6.011  12.347  0.5993  0.3059  1.0945
 2905TIP3   OH230129   5.780   2.506  16.778 -0.1835  0.2238  0.1166
 2905TIP3    H130130   5.687   2.492  16.759 -0.7066 -0.1103  2.6431
 2905TIP3    H230131   5.823   2.426  16.747 -1.0743 -0.5939  0.9449
 2906TIP3   OH230132   2.582   2.929  17.208 -0.1260  0.2910 -0.2615
 2906TIP3    H130133   2.594   2.980  17.128  1.7984  0.0416 -0.1883
 2906TIP3    H230134   2.493   2.896  17.203 -0.1622  0.5846 -2.1364
 2907TIP3   OH230135   3.439   3.523  14.662  0.0019 -0.0619  0.3231
 2907TIP3    H130136   3.499   3.580  14.710  0.3104  0.6357 -0.8653
 2907TIP3    H230137   3.488   3.496  14.584 -0.8313 -0.3839 -0.1006
 2908TIP3   OH230138   5.576   5.642   5.242  0.2899  0.1312  0.1991
 2908TIP3    H130139   5.493   5.683   5.266  1.2764  1.9826  0.5664
 2908TIP3    H230140   5.569   5.627   5.148 -0.8391 -0.7102  0.3900
 2909TIP3   OH230141   5.399   0.888  11.376  0.0783  0.6801  0.3990
 2909TIP3    H130142   5.318   0.911  11.421 -1.7568 -0.6364 -1.9720
 2909TIP3    H230143   5.399   0.792  11.374  2.0170  0.6401  0.8372
 2910TIP3   OH230144   3.209   0.277  11.201  0.5900  0.3187 -0.1604
 2910TIP3    H130145   3.182   0.236  11.119  0.6608  1.4100 -0.7402
 2910TIP3    H230146   3.129   0.284  11.252  0.9524 -2.9896  1.1184
 2911TIP3   OH230147   6.572   5.909  14.723 -1.1383 -0.0874  0.3411
 2911TIP3    H130148   6.500   5.927  14.784 -1.9927  2.1757 -1.2156
 2911TIP3    H230149   6.619   5.992  14.716  0.8845 -1.1746  0.3055
 2912TIP3   OH230150   3.595   1.652   0.016 -0.3882 -0.2703 -0.4451
 2912TIP3    H130151   3.644   1.640  -0.066 -0.8789  2.1375 -1.1601
 2912TIP3    H230152   3.618   1.740   0.045 -1.4979 -0.4655  1.1503
 2913TIP3   OH230153   0.131   0.263  16.413  0.3198 -0.7716  0.2583
 2913TIP3    H130154   0.159   0.355  16.415 -0.6658 -0.4496 -0.4042
 2913TIP3    H230155   0.058   0.259  16.475  0.1273 -1.0238  0.0166
 2914TIP3   OH230156   3.137   3.217   0.913 -0.0312 -0.7368 -0.2019
 2914TIP3    H130157   3.198   3.143   0.917  0.0559 -0.6115  2.0995
 2914TIP3    H230158   3.160   3.272   0.988 -2.6174 -0.4077  0.4486
 2915TIP3   OH230159   3.147   3.000  16.804 -0.4194  0.0430  0.3093
 2915TIP3    H130160   3.081   2.931  16.813 -0.0126 -0.2269  1.4602
 2915TIP3    H230161   3.101   3.073  16.763 -1.2565 -0.3869  0.4650
 2916TIP3   OH230162   2.637   2.997  15.160  0.8424 -0.4297 -0.2040
 2916TIP3    H130163   2.624   3.014  15.067 -0.2440  0.8218  0.1419
 2916TIP3    H230164   2.604   2.908  15.173  0.1534 -0.2785 -0.8603
 2917TIP3   OH230165   1.153   2.303  12.681 -0.0701  0.5000 -0.3496
 2917TIP3    H130166   1.203   2.384  12.682 -2.3858  2.1161 -2.8227
 2917TIP3    H230167   1.107   2.303  12.765 -0.6878  2.2652 -0.6393
 2918TIP3   OH230168   5.190   4.363   3.630  0.4092  0.6133  0.1903
 2918TIP3    H130169   5.253   4.292   3.642 -0.1451  0.4162  2.3278
 2918TIP3    H230170   5.240   4.443   3.644  0.4391  0.4949  0.8199
 2919TIP3   OH230171   3.134   6.611  11.681 -0.6518  0.0670  1.1685
 2919TIP3    H130172   3.181   6.532  11.653 -0.7389  0.4403 -0.0749
 2919TIP3    H230173   3.089   6.584  11.762 -0.8427 -1.2247  0.6628
 2920TIP3   OH230174   1.631   3.951  17.101 -0.0214  0.0429 -0.0585
 2920TIP3    H130175   1.561   3.894  17.134 -0.2839  1.0921  1.3294
 2920TIP3    H230176   1.618   3.953  17.007 -1.7583  0.0315  0.1411
 2921TIP3   OH230177   2.060   2.765   6.201  0.2312 -0.0006 -0.3765
 2921TIP3    H130178   1.976   2.752   6.158  0.0149 -1.4485  0.4403
 2921TIP3    H230179   2.067   2.860   6.213 -1.9859  0.0486  0.9402
 2922TIP3   OH230180   3.290   5.342  15.976  0.0427 -0.0685 -0.1100
 2922TIP3    H130181   3.231   5.342  15.901  0.2934  1.7273 -0.3560
 2922TIP3    H230182   3.354   5.273  15.957 -0.2989 -0.0952 -1.2118
 2923TIP3   OH230183   2.634   4.896  13.145  0.3502  0.5022  0.5183
 2923TIP3    H130184   2.625   4.843  13.066 -0.2803  0.5480  0.5541
 2923TIP3    H230185   2.554   4.948  13.149  0.7675  1.1481  0.7149
 2924TIP3   OH230186   5.757   1.042  12.479  0.1691  0.3300  0.5748
 2924TIP3    H130187   5.810   1.046  12.558  1.7340 -1.8436 -0.2647
 2924TIP3    H230188   5.818   1.060  12.408 -1.1339  1.9128 -0.2302
 2925TIP3   OH230189   1.419   1.385  13.051 -0.4103  0.3551 -0.2289
 2925TIP3    H130190   1.420   1.394  13.147 -0.6188  0.0147 -0.1955
 2925TIP3    H230191   1.457   1.299  13.035 -1.7697 -0.2377 -0.3779
 2926TIP3   OH230192   4.952   0.247  11.472 -0.0343 -0.0231 -0.3129
 2926TIP3    H130193   5.000   0.216  11.548  0.7160  1.6524 -0.0410
 2926TIP3    H230194   4.860   0.231  11.493  0.2458 -0.7489  0.3824
 2927TIP3   OH230195   5.042   0.811  16.201 -0.4783 -0.2074 -0.1409
 2927TIP3    H130196   5.088   0.888  16.235  0.0830 -0.3645 -0.5334
 2927TIP3    H230197   5.111   0.750  16.177 -0.8459 -0.1782 -1.3710
 2928TIP3   OH230198   0.638   1.007  13.580 -0.1302 -0.1618 -0.4426
 2928TIP3    H130199   0.598   0.929  13.542 -0.9075  0.2887 -0.5735
 2928TIP3    H230200   0.658   0.982  13.670 -1.2233 -0.2331 -0.2037
 2929TIP3   OH230201   3.920   2.350  14.042 -0.1492 -0.0654  0.6011
 2929TIP3    H130202   3.871   2.420  14.084 -1.1528 -0.6436  0.4304
 2929TIP3    H230203   3.985   2.395  13.988 -1.4783  0.7727 -0.3537
 2930TIP3   OH230204   6.726   3.756   5.706 -0.0331  0.0819 -0.6805
 2930TIP3    H130205   6.689   3.678   5.748 -2.4529  0.8097 -1.2611
 2930TIP3    H230206   6.790   3.722   5.643  0.8968 -1.2345  0.9126
 2931TIP3   OH230207   2.434   0.580  13.769 -0.1816  0.1432 -0.7452
 2931TIP3    H130208   2.409   0.618  13.685  0.0678  1.0117 -0.4401
 2931TIP3    H230209   2.404   0.644  13.834 -1.8500 -1.2786 -0.0522
 2932TIP3   OH230210   2.312   0.157   0.636  0.1943  0.1102  0.3721
 2932TIP3    H130211   2.393   0.144   0.587 -0.3339  0.9860 -0.7852
 2932TIP3    H230212   2.291   0.250   0.624 -0.7281  0.0015  1.0324
 2933TIP3   OH230213   1.540   6.161   4.078 -0.4571 -0.0968  0.0725
 2933TIP3    H130214   1.615   6.213   4.049 -0.0455 -0.5157  0.3611
 2933TIP3    H230215   1.467   6.194   4.026  0.1124 -0.3337 -0.9296
 2934TIP3   OH230216   2.965   0.977  11.572 -0.4608 -0.3017 -0.3678
 2934TIP3    H130217   2.987   0.934  11.654 -0.8928  0.5552  0.2111
 2934TIP3    H230218   3.022   1.055  11.569 -2.2574  1.1096  0.4220
 2935TIP3   OH230219   1.636   1.108   3.738 -0.3616 -0.6957 -0.4069
 2935TIP3    H130220   1.638   1.203   3.742 -1.9411 -0.6066 -1.0171
 2935TIP3    H230221   1.698   1.079   3.805 -0.8660  0.7498  0.7214
 2936TIP3   OH230222   2.594   2.389   2.972 -0.1567 -0.5272  0.2177
 2936TIP3    H130223   2.529   2.383   3.042  1.2415  0.2616  1.6510
 2936TIP3    H230224   2.673   2.351   3.009  0.7081  0.1994 -0.8267
 2937TIP3   OH230225   3.754   2.202  14.266 -0.3968  0.6478  0.0752
 2937TIP3    H130226   3.686   2.253  14.222 -0.6607  0.6888  0.5240
 2937TIP3    H230227   3.755   2.119  14.218 -1.0113  0.5136  0.2790
 2938TIP3   OH230228   2.395   5.611  15.775 -0.5320 -0.2569  0.2505
 2938TIP3    H130229   2.446   5.668  15.717  0.9870 -1.1769  0.6142
 2938TIP3    H230230   2.441   5.615  15.859 -0.6455 -1.6465  0.4025
 2939TIP3   OH230231   5.011   6.670  14.590 -0.2605 -0.1021  0.0723
 2939TIP3    H130232   5.001   6.667  14.685  0.0080  1.6711  0.1756
 2939TIP3    H230233   4.923   6.684  14.557 -0.1089  1.1317  0.1733
 2940TIP3   OH230234   1.342   1.325  16.946  0.4803  0.4355  0.0809
 2940TIP3    H130235   1.313   1.266  17.015  0.8192 -2.4515 -2.0410
 2940TIP3    H230236   1.288   1.404  16.956 -0.7235 -0.6158  2.4502
 2941TIP3   OH230237   5.418   2.182  11.497 -0.0534 -0.1820 -0.2008
 2941TIP3    H130238   5.411   2.087  11.483  0.0514 -0.2147 -0.0373
 2941TIP3    H230239   5.336   2.205  11.540 -0.4879 -0.0385 -1.0762
 2942TIP3   OH230240   3.844   6.110  14.228 -0.0063  0.0501 -0.3304
 2942TIP3    H130241   3.891   6.147  14.303 -0.8261  0.8152 -0.1766
 2942TIP3    H230242   3.841   6.181  14.164 -1.4224  0.2119 -0.1111
 2943TIP3   OH230243   4.188   6.209  16.002 -0.3795 -0.0641  0.1304
 2943TIP3    H130244   4.192   6.253  15.917 -0.5516  0.0419  0.1766
 2943TIP3    H230245   4.233   6.126  15.988 -0.8470 -0.2677 -0.2070
 2944TIP3   OH230246   0.910   0.656  11.712 -0.2252  0.1804 -0.1538
 2944TIP3    H130247   0.818   0.656  11.737 -0.0508 -1.1439  0.6276
 2944TIP3    H230248   0.946   0.735  11.754 -0.5118 -0.5935  1.6719
 2945TIP3   OH230249   5.969   6.368   3.147  0.1945 -0.0127  0.5624
 2945TIP3    H130250   5.921   6.450   3.140 -0.2960 -0.1666  1.8658
 2945TIP3    H230251   6.048   6.390   3.197  0.8761 -0.0167 -0.4896
 2946TIP3   OH230252   1.940   6.316   0.612  0.2666 -0.4371  0.5898
 2946TIP3    H130253   1.896   6.388   0.567  0.3056 -1.6787 -1.6390
 2946TIP3    H230254   2.004   6.284   0.548  1.6540 -1.1818  2.2691
 2947TIP3   OH230255   1.481   0.455  17.048  0.2473  0.4569  0.0473
 2947TIP3    H130256   1.455   0.371  17.086 -1.2925  0.6585 -0.4990
 2947TIP3    H230257   1.496   0.435  16.955  0.0499  0.7507 -0.0494
 2948TIP3   OH230258   1.593   2.946  16.895  0.0894 -0.7533  0.3875
 2948TIP3    H130259   1.545   2.960  16.977  0.1388  0.7763  0.1918
 2948TIP3    H230260   1.644   2.866  16.910 -0.5755 -0.9893  1.5188
 2949TIP3   OH230261   4.436   3.768   5.919 -0.4099  0.7350 -0.2148
 2949TIP3    H130262   4.443   3.721   6.002  0.0046 -0.1297 -0.7409
 2949TIP3    H230263   4.343   3.761   5.895 -0.5152  0.9224  0.1269
 2950TIP3   OH230264   3.853   1.096   0.853 -1.1257  0.1737 -0.3151
 2950TIP3    H130265   3.891   1.012   0.880 -0.5338  0.4381 -0.3116
 2950TIP3    H230266   3.847   1.091   0.758 -3.8943 -1.0518 -0.1613
 2951TIP3   OH230267   6.049   1.302  13.659 -0.0931 -0.5298  0.6704
 2951TIP3    H130268   5.956   1.281  13.662 -0.1905 -0.2380 -0.0813
 2951TIP3    H230269   6.055   1.376  13.599  0.7426 -1.2053 -0.1140
 2952TIP3   OH230270   5.315   3.454  15.548  0.6408  0.1781 -0.3742
 2952TIP3    H130271   5.371   3.484  15.620  1.3930  0.4593 -1.0600
 2952TIP3    H230272   5.229   3.492  15.567  0.9739  0.7318  0.0762
 2953TIP3   OH230273   2.121   4.416  14.042 -0.1332  0.1133 -0.2782
 2953TIP3    H130274   2.064   4.377  14.108  1.2736  0.3056  1.1085
 2953TIP3    H230275   2.062   4.445  13.973 -1.5198 -1.4000  0.2092
 2954TIP3   OH230276   3.441   0.059   3.341  0.0346  0.1505 -0.2148
 2954TIP3    H130277   3.454   0.017   3.427 -0.2539  0.8698  0.1849
 2954TIP3    H230278   3.362   0.017   3.306  2.1791 -2.9528 -1.8706
 2955TIP3   OH230279   6.330   6.615  14.961 -0.1625 -0.2213 -0.2125
 2955TIP3    H130280   6.261   6.674  14.991 -0.4340 -0.7556  0.2574
 2955TIP3    H230281   6.406   6.671  14.946  0.0280  0.0784  1.6431
 2956TIP3   OH230282   4.471   2.471  13.444  0.8207  0.2238 -0.3098
 2956TIP3    H130283   4.504   2.511  13.525 -1.4121  0.6338  0.4935
 2956TIP3    H230284   4.411   2.537  13.408  1.8390  0.0876 -2.3992
 2957TIP3   OH230285   2.984   0.642  15.689 -0.5202  0.0541  0.0521
 2957TIP3    H130286   3.014   0.721  15.645  1.4850 -0.9103 -0.4188
 2957TIP3    H230287   2.974   0.668  15.781 -1.0321  1.1161 -0.2840
 2958TIP3   OH230288   4.211   1.876  13.525 -0.3277  0.5151 -0.2527
 2958TIP3    H130289   4.205   1.885  13.620  0.6830  1.0708 -0.2263
 2958TIP3    H230290   4.204   1.782  13.509  1.5834  0.1847  0.5714
 2959TIP3   OH230291   4.263   5.320   5.739 -0.0502 -0.1327 -0.1743
 2959TIP3    H130292   4.323   5.390   5.714 -2.4067  2.1328  0.0524
 2959TIP3    H230293   4.230   5.345   5.825 -0.4444 -1.9304  0.2516
 2960TIP3   OH230294   3.336   3.727  16.112 -0.2756  0.4523  0.0330
 2960TIP3    H130295   3.261   3.675  16.084  0.6266 -0.9049 -0.0024
 2960TIP3    H230296   3.310   3.818  16.098 -1.0569 -0.0563 -2.1679
 2961TIP3   OH230297   4.282   3.923  11.127 -0.1173 -1.0351 -0.3216
 2961TIP3    H130298   4.213   3.962  11.181 -0.3801 -0.6661 -0.9204
 2961TIP3    H230299   4.260   3.948  11.037  1.8061  0.7130 -0.3907
 2962TIP3   OH230300   3.688   6.734  14.982 -0.4859  0.2004  0.6001
 2962TIP3    H130301   3.614   6.691  15.026 -0.1119  0.0233  1.0573
 2962TIP3    H230302   3.721   6.667  14.922 -1.6440  0.7707 -0.7575
 2963TIP3   OH230303   5.559   2.509  14.305  0.4614 -0.4870 -0.3566
 2963TIP3    H130304   5.551   2.455  14.384  1.5073 -0.4278 -0.2046
 2963TIP3    H230305   5.630   2.469  14.255  0.8169  0.3695 -0.5525
 2964TIP3   OH230306   1.497   3.649  11.369  0.5354 -0.1592  0.5025
 2964TIP3    H130307   1.445   3.606  11.301  0.6927  0.1907  0.1538
 2964TIP3    H230308   1.572   3.685  11.321  0.9142 -0.3541  0.9449
 2965TIP3   OH230309   0.149   1.810  15.449  0.2481  1.0026  0.5004
 2965TIP3    H130310   0.102   1.780  15.526 -1.1376 -0.5678 -0.8725
 2965TIP3    H230311   0.225   1.753  15.443 -0.5134  0.0207 -0.1546
 2966TIP3   OH230312   4.402   4.445   6.218 -0.1179 -0.0828  0.3666
 2966TIP3    H130313   4.440   4.479   6.299  0.0693 -0.7404  0.5624
 2966TIP3    H230314   4.356   4.365   6.245 -0.2637 -0.1729 -0.1339
 2967TIP3   OH230315   2.903   0.987   6.688  0.5739  0.0355  0.8503
 2967TIP3    H130316   2.930   1.078   6.691  0.5072  0.1583 -0.9627
 2967TIP3    H230317   2.808   0.990   6.673  0.4632 -0.3441  1.4330
 2968TIP3   OH230318   2.148   3.171  15.471  0.0265 -0.6145 -0.5860
 2968TIP3    H130319   2.075   3.225  15.439 -1.0926 -1.0387  1.1133
 2968TIP3    H230320   2.220   3.233  15.483 -0.0236 -0.1901 -2.3230
 2969TIP3   OH230321   2.092   1.951   4.448 -0.1842  0.0662 -0.4415
 2969TIP3    H130322   2.011   1.975   4.494 -0.5739  0.8058 -1.4688
 2969TIP3    H230323   2.099   2.015   4.377  0.8929 -0.4739 -0.8454
 2970TIP3   OH230324   0.797   3.117  13.815  0.2104  0.1862 -0.4733
 2970TIP3    H130325   0.845   3.036  13.803 -0.3541 -0.0616 -1.0959
 2970TIP3    H230326   0.841   3.160  13.889  1.2923 -0.0891 -0.9445
 2971TIP3   OH230327   5.880   1.380   1.616  0.2722 -0.1479 -0.3418
 2971TIP3    H130328   5.884   1.373   1.711 -1.4901 -0.5286 -0.2546
 2971TIP3    H230329   5.853   1.293   1.587 -1.4451  0.5450 -0.9725
 2972TIP3   OH230330   0.131   6.079   1.939  0.2446 -0.1980 -0.2447
 2972TIP3    H130331   0.129   6.007   2.002 -0.8339  0.7331  0.8438
 2972TIP3    H230332   0.047   6.123   1.951  1.4141  2.0532  0.0849
 2973TIP3   OH230333   3.248   5.899  14.507 -0.5915  0.0130 -0.0255
 2973TIP3    H130334   3.200   5.982  14.512 -1.3462 -0.1611 -2.8108
 2973TIP3    H230335   3.336   5.924  14.480 -0.1562  0.0297  1.3285
 2974TIP3   OH230336   1.859   1.008   3.903  0.3261  0.9883  0.0589
 2974TIP3    H130337   1.944   1.028   3.942  0.2819  0.5026  0.4059
 2974TIP3    H230338   1.872   0.926   3.856 -0.3449  0.0821  1.4151
 2975TIP3   OH230339   4.585   4.975   3.816  0.1127 -0.3656 -0.0018
 2975TIP3    H130340   4.660   5.033   3.825  0.1517 -0.3818 -0.2222
 2975TIP3    H230341   4.613   4.892   3.855  0.4800 -0.6141 -0.7871
 2976TIP3   OH230342   6.440   5.269   1.154 -0.0686  0.3291 -0.3049
 2976TIP3    H130343   6.345   5.266   1.161 -0.0443 -1.6042 -0.2899
 2976TIP3    H230344   6.458   5.353   1.111 -1.9028 -0.0772 -2.0524
 2977TIP3   OH230345   5.949   2.224  15.095  0.5296  0.7018  0.5512
 2977TIP3    H130346   5.864   2.202  15.133  0.7172 -1.1964 -0.0512
 2977TIP3    H230347   5.999   2.263  15.167 -1.1848  2.9711  0.6488
 2978TIP3   OH230348   5.566   5.175  16.491  0.5919  0.3761 -0.0230
 2978TIP3    H130349   5.515   5.112  16.439  0.2793  0.9866 -0.4609
 2978TIP3    H230350   5.505   5.209  16.555  0.3339  1.3857 -0.7859
 2979TIP3   OH230351   1.592   3.089   5.164  0.6385 -0.4517  0.2685
 2979TIP3    H130352   1.637   3.139   5.233  0.1320 -0.8774  0.9227
 2979TIP3    H230353   1.553   3.015   5.211 -0.9572  0.0391 -0.2343
 2980TIP3   OH230354   3.065   4.597   2.693 -0.3794  0.2311  0.1287
 2980TIP3    H130355   3.134   4.554   2.744 -0.1575  2.0814  1.5087
 2980TIP3    H230356   3.106   4.615   2.608 -0.1067 -1.1653 -0.0619
 2981TIP3   OH230357   0.366   3.463  12.514 -0.2559 -0.6039 -0.3562
 2981TIP3    H130358   0.293   3.520  12.539 -0.2577 -0.1477 -1.3749
 2981TIP3    H230359   0.423   3.463  12.590  0.6467  2.2057 -0.9100
 2982TIP3   OH230360   6.320   1.302  15.982 -0.0128 -0.0870 -0.2453
 2982TIP3    H130361   6.344   1.285  15.891  0.6089  0.4863 -0.2025
 2982TIP3    H230362   6.225   1.298  15.983 -0.0920  0.9888 -1.1619
 2983TIP3   OH230363   1.488   3.144   2.617 -0.5970 -0.2869  0.4999
 2983TIP3    H130364   1.534   3.099   2.546  0.6531  1.8079 -0.1128
 2983TIP3    H230365   1.557   3.179   2.672 -1.5215  0.5042  1.1857
 2984TIP3   OH230366   5.775   6.303  15.341  0.4528 -0.4433 -0.1054
 2984TIP3    H130367   5.827   6.285  15.419  1.5898 -0.8298 -0.9306
 2984TIP3    H230368   5.823   6.261  15.270  1.0798  2.4111 -1.5052
 2985TIP3   OH230369   3.542   1.620   2.876  0.2987  0.7309  0.7975
 2985TIP3    H130370   3.491   1.653   2.802  0.9493  0.2134  0.1047
 2985TIP3    H230371   3.515   1.529   2.886  1.8069  0.1229 -0.2642
 2986TIP3   OH230372   5.170   4.384  16.511  0.1813  0.3014 -0.5772
 2986TIP3    H130373   5.107   4.312  16.507  0.0061  0.3335  0.9993
 2986TIP3    H230374   5.250   4.344  16.545 -0.1442  0.9465  1.0671
 2987TIP3   OH230375   1.515   1.805   1.067 -0.2516  0.2738  0.1335
 2987TIP3    H130376   1.467   1.863   1.126  0.3508  0.2213  0.6876
 2987TIP3    H230377   1.451   1.739   1.041 -0.6792  0.6292  0.2734
 2988TIP3   OH230378   4.442   4.492  15.406 -0.4136  0.0985 -0.4383
 2988TIP3    H130379   4.478   4.414  15.447 -0.4747 -0.0798 -0.7208
 2988TIP3    H230380   4.440   4.472  15.312 -0.3543  0.4679 -0.5231
 2989TIP3   OH230381   5.767   0.618   1.217  0.2932 -0.6026 -0.0220
 2989TIP3    H130382   5.756   0.523   1.211  0.1415 -0.5261 -1.2578
 2989TIP3    H230383   5.699   0.645   1.280 -1.1383 -1.0861 -1.2893
 2990TIP3   OH230384   4.973   2.337   0.204  0.2541  0.2067  0.1259
 2990TIP3    H130385   4.992   2.349   0.111  1.9129 -1.9983  0.1030
 2990TIP3    H230386   4.878   2.334   0.209  0.1447 -1.4478 -1.7917
 2991TIP3   OH230387   3.180   2.069  13.805  0.0701 -0.7688  0.1993
 2991TIP3    H130388   3.114   2.012  13.843  1.4119 -1.7349  1.1741
 2991TIP3    H230389   3.247   2.078  13.872 -0.2180  2.3060  0.2390
 2992TIP3   OH230390   6.383   2.547  12.341  0.2939 -0.4582 -0.0897
 2992TIP3    H130391   6.356   2.577  12.428 -0.5330 -0.2742 -0.4003
 2992TIP3    H230392   6.335   2.604  12.281  1.2590 -0.2433 -0.6705
 2993TIP3   OH230393   6.531   3.272  13.373 -0.7294 -0.0804 -0.0541
 2993TIP3    H130394   6.545   3.296  13.464  0.1289 -0.9498  0.0580
 2993TIP3    H230395   6.618   3.280  13.333 -1.3649  1.8200 -1.1870
 2994TIP3   OH230396   3.063   2.989   5.323  0.6333  0.7339  0.7085
 2994TIP3    H130397   3.031   3.071   5.361 -3.0998  0.4613 -1.3195
 2994TIP3    H230398   3.094   3.013   5.236 -1.6847 -0.0074 -0.4168
 2995TIP3   OH230399   0.097   2.474  11.108 -0.3806 -0.0802 -0.1063
 2995TIP3    H130400   0.138   2.520  11.036  0.1876  1.6634  1.2653
 2995TIP3    H230401   0.167   2.462  11.172 -0.4195 -3.1985 -0.4911
 2996TIP3   OH230402   0.723   0.696  16.555 -0.3828 -0.3059 -0.2249
 2996TIP3    H130403   0.753   0.607  16.537  1.1303  0.1664 -0.1997
 2996TIP3    H230404   0.803   0.746  16.571 -1.1320  1.2495 -1.0300
 2997TIP3   OH230405   5.636   2.176  14.002 -0.1866 -0.1474  0.0820
 2997TIP3    H130406   5.683   2.163  13.920 -1.8543 -0.5377 -0.8702
 2997TIP3    H230407   5.696   2.145  14.070  0.6783 -1.1947 -1.1082
 2998TIP3   OH230408   1.030   0.456   2.965  0.2875  0.3487  0.1209
 2998TIP3    H130409   1.089   0.384   2.985  1.5853  1.1844 -0.5677
 2998TIP3    H230410   1.063   0.530   3.016 -0.9512  0.5279  0.7237
 2999TIP3   OH230411   2.165   1.713  12.322  0.2742 -0.2776  0.0108
 2999TIP3    H130412   2.099   1.662  12.275  0.6883  1.3594 -2.5976
 2999TIP3    H230413   2.248   1.671  12.300  0.4136  0.0456 -0.0864
 3000TIP3   OH230414   1.966   3.554   3.366 -0.0597 -0.0828 -0.2101
 3000TIP3    H130415   2.053   3.515   3.377  1.6779  2.8794 -2.0732
 3000TIP3    H230416   1.948   3.596   3.450  0.5151 -0.3325  0.0435
 3001TIP3   OH230417   6.705   6.518   6.309 -0.3290 -0.8427 -0.0777
 3001TIP3    H130418   6.667   6.475   6.386  0.5683  0.1767  0.9760
 3001TIP3    H230419   6.633   6.570   6.272 -0.2700  0.3216  1.3402
 3002TIP3   OH230420   1.902   0.270   6.256  0.2952  0.3369  0.5445
 3002TIP3    H130421   1.913   0.277   6.162  1.4635  0.5994  0.6834
 3002TIP3    H230422   1.987   0.295   6.292  0.0504 -0.3580  1.6481
 3003TIP3   OH230423   2.627   3.151   5.733  0.5841 -0.0671 -0.2286
 3003TIP3    H130424   2.539   3.185   5.749  0.2188 -1.5584  1.2019
 3003TIP3    H230425   2.683   3.199   5.794  0.5736  0.0402 -0.3022
 3004TIP3   OH230426   6.163   2.131   5.772  0.8915 -0.4016  0.4216
 3004TIP3    H130427   6.172   2.134   5.676  0.7677 -2.7280  0.2662
 3004TIP3    H230428   6.252   2.116   5.803  0.6833 -1.5829  0.4962
 3005TIP3   OH230429   2.498   5.830   3.000  0.4960  0.9225 -0.2255
 3005TIP3    H130430   2.514   5.768   3.070 -0.2137 -0.1645 -0.9895
 3005TIP3    H230431   2.425   5.884   3.031 -0.5954 -0.3055 -0.5498
 3006TIP3   OH230432   3.913   6.135  16.764  0.1440  0.0329  0.2920
 3006TIP3    H130433   3.876   6.048  16.750  0.1393 -0.1039  1.0757
 3006TIP3    H230434   3.889   6.185  16.686 -1.5911 -0.0933  0.6999
 3007TIP3   OH230435   4.251   2.165  11.104  0.5793  0.2339  0.2732
 3007TIP3    H130436   4.190   2.091  11.110  0.4693  0.1896 -1.0601
 3007TIP3    H230437   4.334   2.126  11.076  0.5590  0.5891 -0.2977
 3008TIP3   OH230438   2.117   3.989  13.087 -0.5351  0.0042  0.3193
 3008TIP3    H130439   2.129   4.033  13.171  2.4614 -0.6965  0.3747
 3008TIP3    H230440   2.041   3.932  13.100  1.9991 -3.0379  3.9610
 3009TIP3   OH230441   0.432   2.596  11.830  0.0731  0.1253  0.0215
 3009TIP3    H130442   0.422   2.674  11.885 -4.2987 -0.4129  0.3837
 3009TIP3    H230443   0.400   2.524  11.884 -0.1300 -1.1624 -1.7099
 3010TIP3   OH230444   0.866   3.273   6.850 -0.8428  0.1612  0.1235
 3010TIP3    H130445   0.839   3.192   6.807  0.7216 -1.0391  1.2800
 3010TIP3    H230446   0.955   3.289   6.818 -0.4106  0.3348  1.3495
 3011TIP3   OH230447   4.031   4.579  12.629 -0.8495 -0.4505  0.6301
 3011TIP3    H130448   4.099   4.588  12.563 -1.0472 -1.1274  0.3164
 3011TIP3    H230449   4.004   4.668  12.649 -0.1504 -0.1966  0.4667
 3012TIP3   OH230450   3.531   5.771  11.075  0.3929 -0.1945 -0.7560
 3012TIP3    H130451   3.571   5.699  11.125  0.1965 -1.0883 -1.8460
 3012TIP3    H230452   3.480   5.727  11.007 -1.6854  0.9292 -0.0019
 3013TIP3   OH230453   3.323   6.540  10.635  0.3362 -0.1580 -0.2913
 3013TIP3    H130454   3.268   6.500  10.568  0.0043 -0.9047  0.4233
 3013TIP3    H230455   3.413   6.519  10.607  0.1773 -3.4231  1.2072
 3014TIP3   OH230456   3.089   3.419  16.848  0.3061 -0.4300 -0.0138
 3014TIP3    H130457   3.098   3.344  16.789  0.4663 -0.5082  0.1090
 3014TIP3    H230458   3.170   3.419  16.900  0.3132 -0.1660 -0.0215
 3015TIP3   OH230459   5.421   5.452  13.420  0.1109 -0.1850 -0.7091
 3015TIP3    H130460   5.509   5.424  13.443  0.5259  0.9530 -0.8273
 3015TIP3    H230461   5.433   5.516  13.350 -0.8707 -0.6143 -1.2941
 3016TIP3   OH230462   4.984   3.418  11.858 -0.4312 -0.2499 -0.2486
 3016TIP3    H130463   4.912   3.400  11.918  1.1466 -1.3285  1.4495
 3016TIP3    H230464   5.048   3.465  11.911 -0.1440  1.3174 -1.9032
 3017TIP3   OH230465   2.901   5.021  10.270 -0.0702 -0.8945 -0.2493
 3017TIP3    H130466   2.980   5.003  10.320  0.0021  0.0937  0.0160
 3017TIP3    H230467   2.858   5.092  10.318 -0.3375 -0.3718 -1.2230
 3018TIP3   OH230468   3.268   3.289  14.425 -0.0691  0.2188 -0.2550
 3018TIP3    H130469   3.235   3.286  14.515  0.0680  0.5612 -0.1940
 3018TIP3    H230470   3.362   3.308  14.434  0.2218 -1.0588 -0.4138
 3019TIP3   OH230471   4.863   3.115   0.824  0.3185 -0.7167  0.3827
 3019TIP3    H130472   4.956   3.111   0.804  0.5708 -2.5815  1.7366
 3019TIP3    H230473   4.821   3.073   0.749  0.5369  0.1464 -0.2410
 3020TIP3   OH230474   6.615   1.473   3.273 -0.5101 -0.3514 -0.2601
 3020TIP3    H130475   6.709   1.490   3.281 -0.1779 -0.7176 -2.6551
 3020TIP3    H230476   6.577   1.559   3.255 -0.2752 -0.5017 -1.6141
 3021TIP3   OH230477   5.238   4.321   4.523 -0.3147  0.3637  0.4894
 3021TIP3    H130478   5.249   4.345   4.615  0.7318  1.0017  0.2122
 3021TIP3    H230479   5.290   4.241   4.512 -0.3998  0.3145  0.4466
 3022TIP3   OH230480   5.511   3.161   2.015 -0.0304  0.1854  0.3261
 3022TIP3    H130481   5.521   3.216   2.093  1.9342  2.0203 -1.0781
 3022TIP3    H230482   5.430   3.192   1.974  0.5673  1.4498  0.0457
 3023TIP3   OH230483   0.005   0.263   1.460  0.2369  0.3773 -0.0710
 3023TIP3    H130484   0.008   0.359   1.462 -3.0917  0.5979  0.8379
 3023TIP3    H230485   0.015   0.237   1.552 -1.2198  0.0680  0.0284
 3024TIP3   OH230486   1.982   0.516   4.723 -0.4804 -0.6471 -0.6262
 3024TIP3    H130487   2.070   0.530   4.757 -0.9545  1.0682 -0.0095
 3024TIP3    H230488   1.983   0.426   4.691  1.7797 -0.3728 -1.5395
 3025TIP3   OH230489   6.257   2.120   1.956 -0.2784 -0.0155  0.1047
 3025TIP3    H130490   6.345   2.117   1.918  0.3030 -1.7103  1.4596
 3025TIP3    H230491   6.225   2.030   1.950 -2.3976  0.7459 -1.3187
 3026TIP3   OH230492   0.908   0.921  12.875 -0.1777 -0.0985  0.1714
 3026TIP3    H130493   0.886   0.952  12.962 -2.6343  1.1004 -0.7875
 3026TIP3    H230494   0.857   0.841  12.865 -0.6748  0.3014 -0.5147
 3027TIP3   OH230495   3.325   1.182   1.359 -0.6343 -0.6771 -0.1658
 3027TIP3    H130496   3.241   1.181   1.313 -1.3099  0.0802  1.0051
 3027TIP3    H230497   3.311   1.129   1.437 -0.2985  0.1823  0.4909
 3028TIP3   OH230498   4.996   3.826  15.862  0.4563  0.2564  0.2776
 3028TIP3    H130499   4.930   3.851  15.927 -0.6199 -0.2639 -0.5675
 3028TIP3    H230500   5.080   3.839  15.905 -0.2095  0.9433  1.3897
 3029TIP3   OH230501   1.729   4.674   2.552 -0.1635 -0.6984 -0.1889
 3029TIP3    H130502   1.713   4.583   2.527 -0.9560 -0.8038  0.6472
 3029TIP3    H230503   1.797   4.669   2.620 -2.0822 -0.9624  1.8495
 3030TIP3   OH230504   3.557   2.852   3.871  0.6750  0.0893  0.2533
 3030TIP3    H130505   3.580   2.769   3.831  0.1657  1.0952 -2.3445
 3030TIP3    H230506   3.473   2.875   3.831  0.1397  1.2113  1.9424
 3031TIP3   OH230507   5.808   0.404   3.750  0.4397  0.2428 -0.2702
 3031TIP3    H130508   5.841   0.444   3.669  1.1962  1.5073  0.6145
 3031TIP3    H230509   5.808   0.310   3.733  1.9611  0.3900 -1.2564
 3032TIP3   OH230510   1.958   3.067  16.908 -0.7015 -0.1182 -0.2846
 3032TIP3    H130511   1.978   3.112  16.826  0.3076 -0.4093 -0.2133
 3032TIP3    H230512   1.923   2.982  16.881 -0.6844 -0.0843 -0.4124
 3033TIP3   OH230513   4.146   1.774  11.728  0.8656  0.0490 -0.4074
 3033TIP3    H130514   4.062   1.761  11.684 -0.2123 -2.2891  2.0424
 3033TIP3    H230515   4.210   1.773  11.657 -0.5221 -5.3378 -2.1064
 3034TIP3   OH230516   1.506   3.963  15.809  0.0724  0.3569  0.0945
 3034TIP3    H130517   1.551   4.012  15.740  0.1827  0.8201  0.4913
 3034TIP3    H230518   1.570   3.955  15.879  0.8333 -2.2653 -0.7778
 3035TIP3   OH230519   1.381   2.876   4.577 -0.1263  0.0695  0.7423
 3035TIP3    H130520   1.412   2.786   4.572 -1.0210 -0.1885 -1.3813
 3035TIP3    H230521   1.311   2.874   4.643 -1.1341 -1.1715 -0.2976
 3036TIP3   OH230522   6.203   6.644  14.508 -0.2825  0.2762 -0.1346
 3036TIP3    H130523   6.223   6.732  14.540 -1.2699  1.4511 -2.5201
 3036TIP3    H230524   6.175   6.657  14.417 -2.5462 -2.2492  0.0648
 3037TIP3   OH230525   4.782   2.036  11.874 -0.4811  0.0096 -0.0271
 3037TIP3    H130526   4.759   1.944  11.890  0.3650 -0.2036 -0.0096
 3037TIP3    H230527   4.854   2.054  11.935 -0.2498  0.5135 -0.4395
 3038TIP3   OH230528   1.011   3.437   0.494  0.0553 -0.7095  0.2700
 3038TIP3    H130529   1.096   3.394   0.498 -0.6796 -2.1533  1.7482
 3038TIP3    H230530   1.029   3.529   0.509  1.6120 -0.5132 -2.2592
 3039TIP3   OH230531   5.616   5.657   6.417 -0.1406  0.0568  0.2768
 3039TIP3    H130532   5.643   5.568   6.396 -2.3707 -0.4994 -0.4000
 3039TIP3    H230533   5.676   5.684   6.487  2.3948 -0.9097 -1.3527
 3040TIP3   OH230534   3.637   0.511  13.179  0.2608 -0.2628  0.4320
 3040TIP3    H130535   3.670   0.454  13.110  2.0529 -0.9000  1.7469
 3040TIP3    H230536   3.563   0.462  13.217  0.2810 -0.6240  0.0141
 3041TIP3   OH230537   1.416   0.028   3.700 -0.7275 -0.2080  0.3164
 3041TIP3    H130538   1.440   0.079   3.778 -2.5376 -1.3442  1.6776
 3041TIP3    H230539   1.492  -0.028   3.684  0.3421  1.1997  0.1990
 3042TIP3   OH230540   2.349   4.595   1.645 -0.0197  0.3759  0.3606
 3042TIP3    H130541   2.314   4.659   1.583  2.2939  0.7303 -0.6800
 3042TIP3    H230542   2.394   4.649   1.711 -0.4310 -0.0884  1.0260
 3043TIP3   OH230543   6.471   2.810   4.406  0.2076 -0.5245  0.5376
 3043TIP3    H130544   6.493   2.902   4.417 -2.6229  0.2918  0.0434
 3043TIP3    H230545   6.443   2.781   4.493 -3.0260  0.3691 -0.0965
 3044TIP3   OH230546   3.587   5.690   1.682  0.4496 -0.4621  0.2238
 3044TIP3    H130547   3.638   5.752   1.733 -1.3458 -0.4100  2.1304
 3044TIP3    H230548   3.532   5.744   1.626 -0.8393 -0.2552  1.6093
 3045TIP3   OH230549   1.109   4.684   1.936  0.7183  0.1800 -0.4781
 3045TIP3    H130550   1.015   4.684   1.953  0.3600 -1.4025 -2.1168
 3045TIP3    H230551   1.135   4.593   1.949  2.3287  0.8116  1.2048
 3046TIP3   OH230552   2.901   4.036  13.325 -0.5366  0.0981 -0.4016
 3046TIP3    H130553   2.962   4.109  13.317 -1.4487  0.7766 -1.4257
 3046TIP3    H230554   2.823   4.064  13.277 -1.2507 -1.1854 -0.0446
 3047TIP3   OH230555   4.008   4.740  11.570  0.6015 -0.2633 -0.2174
 3047TIP3    H130556   4.076   4.694  11.619  1.5110  0.7791 -0.4670
 3047TIP3    H230557   4.028   4.721  11.478 -0.9819 -2.0506 -0.2450
 3048TIP3   OH230558   0.967   6.249  14.715 -0.5488  0.0504  0.3136
 3048TIP3    H130559   0.977   6.341  14.737  0.7887  0.2462 -0.8967
 3048TIP3    H230560   0.889   6.246  14.660 -0.5298  0.4933  0.2549
 3049TIP3   OH230561   2.407   5.895  11.818  0.1361  0.3052 -0.2564
 3049TIP3    H130562   2.374   5.870  11.904  0.2671 -1.9155 -0.7953
 3049TIP3    H230563   2.399   5.815  11.765 -0.7626  1.8216 -2.5707
 3050TIP3   OH230564   6.010   6.592  11.959  0.1777  0.1883 -0.1047
 3050TIP3    H130565   6.077   6.661  11.961 -0.5335  0.8863  0.5693
 3050TIP3    H230566   5.933   6.632  12.001 -0.0057 -1.2854  1.0627
 3051TIP3   OH230567   2.560   5.267   2.025 -0.1407 -0.0307  0.0532
 3051TIP3    H130568   2.468   5.246   2.040  0.5323 -2.8337  0.9191
 3051TIP3    H230569   2.598   5.274   2.112  0.4976  1.1883 -0.2952
 3052TIP3   OH230570   6.617   4.516  16.398 -0.3461  0.7272 -0.4759
 3052TIP3    H130571   6.650   4.589  16.451 -0.1345  0.6978 -0.5667
 3052TIP3    H230572   6.639   4.438  16.449 -1.3851  0.7678  0.0668
 3053TIP3   OH230573   3.104   4.591   1.033  0.3791 -0.6082 -0.3174
 3053TIP3    H130574   3.126   4.582   1.125 -0.8807  2.4160  0.3759
 3053TIP3    H230575   3.167   4.654   0.998 -1.4999  1.2981 -0.4668
 3054TIP3   OH230576   3.475   5.598   5.418  0.3737  0.0214  0.2262
 3054TIP3    H130577   3.463   5.689   5.447 -0.4163 -0.2658  0.8363
 3054TIP3    H230578   3.425   5.592   5.337  0.6655  0.2073  0.0306
 3055TIP3   OH230579   2.787   0.771   6.791  0.0506  0.0905  0.4062
 3055TIP3    H130580   2.708   0.811   6.754  0.3942  0.3674 -0.0301
 3055TIP3    H230581   2.859   0.823   6.757  0.5385 -1.1327 -0.5277
 3056TIP3   OH230582   6.019   5.062   4.409  0.5518 -0.4440 -0.0760
 3056TIP3    H130583   6.020   4.968   4.390  1.0915 -0.5471  0.4254
 3056TIP3    H230584   5.949   5.073   4.473  1.8054 -0.8405  1.4244
 3057TIP3   OH230585   6.597   1.488  13.173  0.0910 -0.2889  0.4628
 3057TIP3    H130586   6.545   1.497  13.094 -1.1457 -0.3662  1.2488
 3057TIP3    H230587   6.637   1.574  13.185 -1.7510  0.5334  1.1140
 3058TIP3   OH230588   4.555   1.750  14.497  0.3659 -0.0314 -0.3530
 3058TIP3    H130589   4.517   1.810  14.433  1.8808  2.0161  0.5585
 3058TIP3    H230590   4.482   1.729  14.556 -0.0111  1.7243 -0.1290
 3059TIP3   OH230591   0.313   6.151  16.300  0.4498 -0.2604 -0.3877
 3059TIP3    H130592   0.358   6.210  16.361  1.2421 -0.4138 -0.8119
 3059TIP3    H230593   0.356   6.167  16.216  1.6919 -2.4718 -0.2443
 3060TIP3   OH230594   1.335   2.501  12.771 -0.2274  0.1870  0.3765
 3060TIP3    H130595   1.390   2.473  12.843  0.6978 -1.0371 -0.7423
 3060TIP3    H230596   1.395   2.514  12.698 -1.0775  1.8097 -0.0789
 3061TIP3   OH230597   3.401   6.195   1.899 -0.2389 -0.2216 -0.0280
 3061TIP3    H130598   3.317   6.157   1.873 -1.0108 -0.3495  2.3953
 3061TIP3    H230599   3.379   6.255   1.970  1.5931  0.7137 -0.1969
 3062TIP3   OH230600   4.666   2.630  12.891 -0.3774  0.2713 -0.6353
 3062TIP3    H130601   4.629   2.543  12.872 -1.9757  1.3106 -2.6676
 3062TIP3    H230602   4.753   2.627  12.853 -0.1113 -0.6824  0.0091
 3063TIP3   OH230603   2.442   5.263  11.765 -0.0795  0.8957 -0.5679
 3063TIP3    H130604   2.408   5.207  11.834  2.2746 -1.3852 -1.0862
 3063TIP3    H230605   2.493   5.330  11.811  1.4079 -0.5631 -0.0232
 3064TIP3   OH230606   3.868   1.324  11.791  0.1456 -0.4187  0.2557
 3064TIP3    H130607   3.857   1.414  11.760  0.6968 -0.3008  0.4044
 3064TIP3    H230608   3.959   1.303  11.771 -0.0030 -0.9739  0.1475
 3065TIP3   OH230609   6.130   0.214   4.699 -0.1889  0.3203  0.3597
 3065TIP3    H130610   6.058   0.246   4.754  0.1994  2.2795 -0.2053
 3065TIP3    H230611   6.090   0.203   4.612 -0.5575 -1.8135  0.7332
 3066TIP3   OH230612   0.656   2.375   0.007 -0.0521  0.0617  0.2913
 3066TIP3    H130613   0.628   2.326   0.085 -0.0628 -0.5409 -0.0849
 3066TIP3    H230614   0.707   2.312  -0.044 -1.0265  0.0895 -0.7569
 3067TIP3   OH230615   2.375   2.472   0.026  0.0806  0.2692  0.1233
 3067TIP3    H130616   2.454   2.478   0.079  0.3050  0.4292 -0.2266
 3067TIP3    H230617   2.307   2.442   0.087  0.0950  1.4438  0.7470
 3068TIP3   OH230618   3.598   6.244   3.109 -0.6347  0.7169  0.4744
 3068TIP3    H130619   3.659   6.176   3.081  1.9303  2.6191  1.0589
 3068TIP3    H230620   3.568   6.285   3.028 -1.9301 -0.7764  0.1411
 3069TIP3   OH230621   6.711   1.212   3.462 -0.1996  0.1129  0.8425
 3069TIP3    H130622   6.654   1.135   3.468  0.1429 -0.2329 -0.0939
 3069TIP3    H230623   6.751   1.205   3.376  2.3125 -0.4107  1.9576
 3070TIP3   OH230624   3.080   2.103  11.901  0.4563 -0.4044 -0.3874
 3070TIP3    H130625   3.168   2.080  11.871  1.0334  1.8424 -0.5870
 3070TIP3    H230626   3.094   2.165  11.972 -0.9575  0.4566 -0.8205
 3071TIP3   OH230627   0.091   5.429  14.305  0.4807 -0.1915  0.4638
 3071TIP3    H130628   0.185   5.431  14.286 -0.0154  0.4294 -2.4172
 3071TIP3    H230629   0.059   5.516  14.279 -0.8924 -0.3815  1.4064
 3072TIP3   OH230630   5.002   5.843  11.663 -0.4676  0.4307  0.0280
 3072TIP3    H130631   5.002   5.758  11.707 -1.3814  1.5857  2.4779
 3072TIP3    H230632   5.094   5.871  11.665 -0.1225 -0.5598 -1.0083
 3073TIP3   OH230633   3.886   5.517  15.609 -0.7506  0.4003 -0.3212
 3073TIP3    H130634   3.914   5.436  15.653  1.9913  0.9596 -0.8344
 3073TIP3    H230635   3.843   5.487  15.529  0.4107 -0.5851 -0.6162
 3074TIP3   OH230636   1.958   2.452   1.002  0.1796  0.4562  0.1753
 3074TIP3    H130637   1.931   2.536   1.040 -0.3096 -0.6813  2.5887
 3074TIP3    H230638   2.053   2.450   1.012  0.3756  1.2993 -1.2716
 3075TIP3   OH230639   0.822   4.731  17.280 -0.4669  0.0176  0.1043
 3075TIP3    H130640   0.849   4.729  17.372  0.2567 -2.0068 -0.1005
 3075TIP3    H230641   0.807   4.640  17.257  0.4805  0.3471 -2.0997
 3076TIP3   OH230642   1.351   4.152   6.336 -0.3182  0.0640 -0.4325
 3076TIP3    H130643   1.283   4.177   6.399 -0.1681 -3.4821  1.3647
 3076TIP3    H230644   1.303   4.127   6.257 -1.2153 -2.1858  0.7391
 3077TIP3   OH230645   3.440   5.868   1.542 -0.7296  0.5910 -0.7137
 3077TIP3    H130646   3.355   5.826   1.556 -1.7636  2.9217  0.5869
 3077TIP3    H230647   3.419   5.958   1.517  1.3282  1.3926  0.1859
 3078TIP3   OH230648   4.037   0.732  14.781  0.6576  0.0529 -0.4612
 3078TIP3    H130649   4.099   0.702  14.848  2.9158 -1.5427 -3.0592
 3078TIP3    H230650   4.028   0.826  14.796  1.3640 -0.1731  1.7800
 3079TIP3   OH230651   6.332   3.825  13.447  0.0532 -0.2930  0.1131
 3079TIP3    H130652   6.296   3.871  13.370  0.0227 -1.9407 -0.9064
 3079TIP3    H230653   6.266   3.837  13.515 -0.0576  0.9608 -0.1884
 3080TIP3   OH230654   0.943   3.975  13.986 -0.5764 -0.2211  0.2306
 3080TIP3    H130655   0.951   3.998  13.894 -2.0385 -0.2880  0.0540
 3080TIP3    H230656   1.019   4.015  14.028  1.2240 -1.8539 -1.2618
 3081TIP3   OH230657   4.075   5.158   4.649 -0.1357 -0.4725  0.1805
 3081TIP3    H130658   4.096   5.234   4.703 -0.2440 -1.0568  1.0746
 3081TIP3    H230659   4.155   5.105   4.650 -1.7433 -3.4185  4.7728
 3082TIP3   OH230660   4.720   3.861  12.834 -0.2783 -0.1297  0.2110
 3082TIP3    H130661   4.665   3.793  12.872 -1.2871  0.4802 -0.1212
 3082TIP3    H230662   4.671   3.892  12.758  1.1979 -0.5772 -0.9748
 3083TIP3   OH230663   0.733   4.191  12.129  0.2766 -0.3887  0.8110
 3083TIP3    H130664   0.757   4.270  12.178 -0.5228  0.9029 -0.7657
 3083TIP3    H230665   0.761   4.119  12.184 -1.0188  0.9617  3.3928
 3084TIP3   OH230666   6.212   4.869  12.331  0.1520  0.2189  0.2999
 3084TIP3    H130667   6.280   4.889  12.395  0.4593  0.2116 -0.0204
 3084TIP3    H230668   6.209   4.945  12.274 -0.7533  0.6177  0.8559
 3085TIP3   OH230669   2.624   5.665  12.162 -0.2286 -0.0504 -0.3184
 3085TIP3    H130670   2.574   5.586  12.142 -0.3404 -0.4721  1.4848
 3085TIP3    H230671   2.676   5.642  12.239 -1.1152  1.9512  0.9722
 3086TIP3   OH230672   0.682   2.672  15.129 -0.6105  0.6675  0.0202
 3086TIP3    H130673   0.589   2.696  15.123 -0.9038  0.1246  1.6764
 3086TIP3    H230674   0.688   2.590  15.081 -1.3211 -0.0100  1.0244
 3087TIP3   OH230675   4.016   5.348   3.795  0.0902 -0.3055  0.1815
 3087TIP3    H130676   3.970   5.266   3.776  1.8588 -1.6426  1.1946
 3087TIP3    H230677   4.027   5.347   3.891 -0.9306  1.7694  0.3579
 3088TIP3   OH230678   6.585   0.322   0.362 -0.0389 -0.1456  0.0188
 3088TIP3    H130679   6.582   0.371   0.280  2.0233  0.3933  0.2048
 3088TIP3    H230680   6.596   0.231   0.336 -2.0656 -0.3308 -0.3055
 3089TIP3   OH230681   2.365   3.272   4.726 -0.0131 -0.3895 -0.5111
 3089TIP3    H130682   2.363   3.301   4.817  1.4017 -0.2078 -0.5254
 3089TIP3    H230683   2.360   3.352   4.674  0.7499 -0.3805 -0.5762
 3090TIP3   OH230684   0.468   1.401  11.933  0.9046 -0.4479 -0.2271
 3090TIP3    H130685   0.552   1.446  11.921  0.8449  0.1411  1.2544
 3090TIP3    H230686   0.418   1.461  11.988 -0.7295 -0.5263 -1.5572
 3091TIP3   OH230687   0.790   0.057   4.713 -0.9390  0.0005  0.5193
 3091TIP3    H130688   0.731  -0.007   4.752 -1.0655  0.4977  1.1577
 3091TIP3    H230689   0.852   0.079   4.783  0.2691 -0.8170 -0.2474
 3092TIP3   OH230690   1.602   3.355   6.153  0.5471 -0.4222 -0.2153
 3092TIP3    H130691   1.575   3.291   6.088  0.2451  0.3572 -0.8751
 3092TIP3    H230692   1.546   3.431   6.138  1.8866  0.5681 -0.4502
 3093TIP3   OH230693   0.918   0.149  14.170 -0.1789  0.1665  0.0271
 3093TIP3    H130694   0.974   0.213  14.214 -0.1108  0.9698 -1.1567
 3093TIP3    H230695   0.940   0.159  14.077 -1.0901 -0.6906 -0.2949
 3094TIP3   OH230696   3.432   4.004   3.648  0.0298 -0.0449 -0.5093
 3094TIP3    H130697   3.456   3.992   3.556 -0.3107 -0.4590 -0.5492
 3094TIP3    H230698   3.468   3.926   3.692 -0.0069  0.0392 -0.3294
 3095TIP3   OH230699   0.300   5.941   4.794 -0.0447  0.4434 -0.0752
 3095TIP3    H130700   0.307   5.889   4.875 -1.4569 -1.5704 -1.1511
 3095TIP3    H230701   0.348   5.889   4.729 -0.3271  1.2101 -0.9115
 3096TIP3   OH230702   5.691   4.879  11.048  0.1958  0.2184  0.0964
 3096TIP3    H130703   5.750   4.876  10.973 -0.3701 -2.9325 -0.3682
 3096TIP3    H230704   5.603   4.881  11.009 -0.0860  0.7891  0.7337
 3097TIP3   OH230705   3.016   5.219   5.646 -0.1594  0.1995  0.6357
 3097TIP3    H130706   2.934   5.262   5.670 -0.7060  0.0388 -0.8350
 3097TIP3    H230707   2.989   5.146   5.591  0.9776  0.1957  0.0627
 3098TIP3   OH230708   4.325   4.105   6.097 -0.5897  0.1824  0.1552
 3098TIP3    H130709   4.287   4.154   6.024  0.5271 -0.2096 -0.7199
 3098TIP3    H230710   4.251   4.063   6.140 -1.3132  0.7995 -0.4654
 3099TIP3   OH230711   0.775   4.720  16.178  0.4924  0.2885  0.2102
 3099TIP3    H130712   0.728   4.708  16.261  0.8680 -1.1415  0.2359
 3099TIP3    H230713   0.848   4.778  16.201 -0.0160  0.7840  0.6294
 3100TIP3   OH230714   3.257   0.926   2.696  0.7538 -0.1465 -0.0284
 3100TIP3    H130715   3.278   0.996   2.757 -0.4460  0.8512 -0.7010
 3100TIP3    H230716   3.276   0.964   2.610 -4.6907  1.4690 -0.8988
 3101TIP3   OH230717   5.074   0.238  15.641 -0.2422  0.3522 -0.0710
 3101TIP3    H130718   4.978   0.234  15.638 -0.2572  1.0822 -1.9979
 3101TIP3    H230719   5.102   0.148  15.631 -0.7499  0.4244 -2.7222
 3102TIP3   OH230720   5.542   5.461  15.347 -0.6618 -0.4275 -0.0975
 3102TIP3    H130721   5.544   5.394  15.279 -0.5790 -1.4013  0.8174
 3102TIP3    H230722   5.583   5.418  15.423  1.6438  1.4508 -0.1512
 3103TIP3   OH230723   6.439   5.506  14.581 -0.0824  0.3787  0.1232
 3103TIP3    H130724   6.449   5.443  14.510  0.3417 -0.4700  0.9079
 3103TIP3    H230725   6.522   5.553  14.583  0.6301 -0.8652  1.2153
 3104TIP3   OH230726   0.741   2.490   1.280  0.2200  0.0484  0.2923
 3104TIP3    H130727   0.778   2.573   1.248  0.9242 -0.2028  0.4377
 3104TIP3    H230728   0.788   2.472   1.361 -0.0752 -0.3860  0.3698
 3105TIP3   OH230729   2.328   4.950  14.286  0.3451  0.6799 -0.0238
 3105TIP3    H130730   2.239   4.919  14.273  0.7444 -0.3446 -0.4673
 3105TIP3    H230731   2.373   4.876  14.328  0.0275  2.5024  4.0551
 3106TIP3   OH230732   1.561   1.745  11.712  0.7013  0.2070 -0.4194
 3106TIP3    H130733   1.644   1.703  11.689  0.3778 -0.0642 -1.0959
 3106TIP3    H230734   1.537   1.795  11.634  0.8731  1.3283  0.2230
 3107TIP3   OH230735   3.297   5.857   5.363 -0.3567 -0.6178  0.0330
 3107TIP3    H130736   3.213   5.866   5.409  0.6196 -0.8696  1.9978
 3107TIP3    H230737   3.274   5.824   5.277 -2.3566  0.4417  0.1092
 3108TIP3   OH230738   4.425   1.595   4.304  0.3507  0.5335  0.0357
 3108TIP3    H130739   4.382   1.579   4.389 -0.9923  4.0080  0.2011
 3108TIP3    H230740   4.515   1.616   4.327  0.6880 -1.0574  0.2863
 3109TIP3   OH230741   4.109   0.180  11.397  1.1018  0.0403  0.0396
 3109TIP3    H130742   4.068   0.242  11.456 -1.0176 -1.1488 -0.0730
 3109TIP3    H230743   4.054   0.182  11.318  0.9224 -1.9624  0.0532
 3110TIP3   OH230744   2.871   3.118  14.544 -0.1596 -0.0173  0.9074
 3110TIP3    H130745   2.947   3.093  14.492 -0.2956  1.1681  0.1144
 3110TIP3    H230746   2.865   3.213  14.535 -1.5374 -0.0511  1.2359
 3111TIP3   OH230747   5.750   2.281  11.535  0.3039  0.0046 -0.3024
 3111TIP3    H130748   5.822   2.224  11.510 -0.0613 -0.2594 -0.7748
 3111TIP3    H230749   5.779   2.323  11.617  1.5489  0.9554 -1.1986
 3112TIP3   OH230750   0.454   1.593  16.632 -0.3323 -0.1515  0.4323
 3112TIP3    H130751   0.360   1.578  16.635 -0.5008  0.9517  2.6961
 3112TIP3    H230752   0.467   1.676  16.678  1.4952  1.3581 -2.4357
 3113TIP3   OH230753   2.510   1.675  15.077  0.2344 -0.3502 -0.6616
 3113TIP3    H130754   2.505   1.736  15.151  1.2925 -0.2381 -0.6688
 3113TIP3    H230755   2.423   1.635  15.073 -0.1578  0.4071 -0.0149
 3114TIP3   OH230756   3.398   6.173   6.687 -0.4648 -0.2000  0.2507
 3114TIP3    H130757   3.463   6.149   6.752  0.2521 -2.4949 -1.2200
 3114TIP3    H230758   3.315   6.140   6.722 -0.5402  0.9280  1.1818
 3115TIP3   OH230759   4.828   2.816  16.298  0.5361 -0.2449 -0.1152
 3115TIP3    H130760   4.863   2.900  16.267  0.1786  0.2602  0.8095
 3115TIP3    H230761   4.835   2.758  16.222 -1.0412  1.1425 -1.4130
 3116TIP3   OH230762   5.701   4.824   1.262 -0.0118  0.4238  0.1066
 3116TIP3    H130763   5.690   4.840   1.168  1.6327 -0.0942 -0.2147
 3116TIP3    H230764   5.730   4.733   1.267 -0.4361  0.3364  1.1585
 3117TIP3   OH230765   2.888   3.774   1.951  0.2308  0.0274 -0.1340
 3117TIP3    H130766   2.843   3.858   1.958 -1.4740 -0.7866 -0.6335
 3117TIP3    H230767   2.830   3.712   1.996 -0.6957 -1.5976 -3.2776
 3118TIP3   OH230768   0.272   0.530  15.731 -0.5311  0.2121  0.2071
 3118TIP3    H130769   0.287   0.616  15.771 -0.6142  0.3306 -0.0116
 3118TIP3    H230770   0.326   0.470  15.781 -1.9692  0.0492  1.6382
 3119TIP3   OH230771   1.210   4.161  12.656  0.6209 -0.4158 -0.0972
 3119TIP3    H130772   1.285   4.174  12.714  0.7112  0.0421 -0.3137
 3119TIP3    H230773   1.248   4.152  12.569  0.3384  1.7862 -0.5084
 3120TIP3   OH230774   6.631   6.658  15.753  0.1157  0.0560  0.5990
 3120TIP3    H130775   6.558   6.597  15.760  0.0689  0.0706  0.2658
 3120TIP3    H230776   6.638   6.697  15.840 -0.6508  0.4803  0.4814
 3121TIP3   OH230777   5.030   5.982  16.312  0.2952  0.3515  0.2320
 3121TIP3    H130778   5.067   6.059  16.268 -1.9407  1.0835 -0.4683
 3121TIP3    H230779   4.987   5.932  16.243  2.8646 -2.4068  0.3936
 3122TIP3   OH230780   5.193   5.648  15.089  0.4846 -0.1294 -0.3515
 3122TIP3    H130781   5.150   5.695  15.017 -0.5530 -0.0803  0.2815
 3122TIP3    H230782   5.176   5.556  15.069 -0.7996 -0.0786  0.4097
 3123TIP3   OH230783   2.275   6.578  14.494  0.9375 -0.4200  0.3165
 3123TIP3    H130784   2.214   6.652  14.498  3.1103  1.4643  0.4426
 3123TIP3    H230785   2.234   6.510  14.547 -0.6182  1.0909  1.1425
 3124TIP3   OH230786   2.921   1.333   5.369  0.4093  0.0305  0.1330
 3124TIP3    H130787   2.931   1.394   5.443 -0.0145  0.8993 -0.5029
 3124TIP3    H230788   2.945   1.385   5.293  0.5076 -0.7584 -0.3805
 3125TIP3   OH230789   4.914   3.670   2.638 -0.1196  0.0039  0.1831
 3125TIP3    H130790   4.840   3.684   2.579  1.2099 -0.8014 -1.7735
 3125TIP3    H230791   4.963   3.752   2.637  1.8877 -1.0810 -2.8602
 3126TIP3   OH230792   2.612   5.925   4.436 -0.8283 -0.2832  0.0963
 3126TIP3    H130793   2.631   5.990   4.368 -0.5552 -0.6123 -0.1509
 3126TIP3    H230794   2.598   5.976   4.515  0.8347  0.0229  0.2407
 3127TIP3   OH230795   0.323   3.360  13.609 -0.5708 -0.3021  0.2562
 3127TIP3    H130796   0.275   3.429  13.655 -0.2852  0.4000 -0.4859
 3127TIP3    H230797   0.388   3.406  13.557 -1.6385 -0.9671 -1.7860
 3128TIP3   OH230798   3.407   3.456   2.746 -0.3454  0.2406  0.0738
 3128TIP3    H130799   3.389   3.381   2.689  1.5896  1.3277 -2.1355
 3128TIP3    H230800   3.322   3.499   2.757 -1.0434 -0.8930 -0.6380
 3129TIP3   OH230801   5.329   4.569  12.177 -0.2045 -0.3192  0.4206
 3129TIP3    H130802   5.424   4.574  12.184 -0.2161  2.6529 -0.4996
 3129TIP3    H230803   5.298   4.557  12.267  0.9848 -0.4880  0.8156
 3130TIP3   OH230804   5.166   4.287   6.612  0.5993  0.4845  0.2230
 3130TIP3    H130805   5.180   4.205   6.660  0.7249  0.4249  0.0852
 3130TIP3    H230806   5.090   4.268   6.556  0.2546  0.6559  0.6259
 3131TIP3   OH230807   6.230   3.091  13.542 -0.1040  0.2400  0.1136
 3131TIP3    H130808   6.319   3.057  13.549 -0.0187  0.5816  0.7333
 3131TIP3    H230809   6.237   3.163  13.479  0.5179  1.7273  1.7931
 3132TIP3   OH230810   0.136   6.379  13.676  0.3630  0.1565  0.2443
 3132TIP3    H130811   0.199   6.441  13.712  1.0843 -0.7384  0.5729
 3132TIP3    H230812   0.189   6.303  13.651 -0.0087  0.8602 -3.1365
 3133TIP3   OH230813   6.390   5.877  16.388  0.1668  0.3022  0.0193
 3133TIP3    H130814   6.423   5.807  16.444  0.5176  0.2603 -0.2325
 3133TIP3    H230815   6.446   5.873  16.310  0.6612  1.3359  0.3158
 3134TIP3   OH230816   0.301   0.624  12.381  0.3225  0.1909 -0.1158
 3134TIP3    H130817   0.238   0.553  12.375  0.1770  0.3492 -0.4954
 3134TIP3    H230818   0.305   0.660  12.293  0.9521  0.1747 -0.1017
 3135TIP3   OH230819   0.947   1.111   1.659 -0.5506  0.4311 -0.0262
 3135TIP3    H130820   1.032   1.144   1.690 -0.3391 -1.0360  1.0500
 3135TIP3    H230821   0.890   1.188   1.658  0.3959  1.1589  0.6485
 3136TIP3   OH230822   6.484   5.685  15.822  0.4244  0.4810  0.2235
 3136TIP3    H130823   6.456   5.694  15.731  0.5751  0.8980  0.2159
 3136TIP3    H230824   6.575   5.714  15.822 -0.1741  2.5552  0.8793
 3137TIP3   OH230825   5.906   3.586  15.395  0.2829 -0.4623  0.4452
 3137TIP3    H130826   5.891   3.678  15.378  0.9136 -0.6646 -1.3761
 3137TIP3    H230827   5.969   3.585  15.467 -0.1680  0.5033  0.8645
 3138TIP3   OH230828   6.068   5.649  11.874 -0.2919  0.3415 -0.1854
 3138TIP3    H130829   6.045   5.706  11.947  0.0654  1.4312 -0.8948
 3138TIP3    H230830   6.005   5.577  11.878 -1.0435  1.0202  0.4705
 3139TIP3   OH230831   6.725   1.961   5.786  0.3006 -0.0050 -0.0420
 3139TIP3    H130832   6.737   2.004   5.701  0.4368  0.9985  0.4639
 3139TIP3    H230833   6.787   1.889   5.785  0.4425  0.1129 -0.7126
 3140TIP3   OH230834   4.339   2.584  16.036 -0.1956  0.1971  0.1795
 3140TIP3    H130835   4.351   2.617  15.947 -1.3910 -1.3915 -0.6229
 3140TIP3    H230836   4.423   2.600  16.080  0.4172  0.9854 -1.2325
 3141TIP3   OH230837   2.474   1.851   2.241 -0.2666 -0.7289 -0.1925
 3141TIP3    H130838   2.512   1.765   2.257  0.5013 -0.3133  0.3192
 3141TIP3    H230839   2.413   1.864   2.314 -0.3137 -0.7944 -0.2195
 3142TIP3   OH230840   1.596   3.888   1.289 -0.4266  0.2879 -0.6842
 3142TIP3    H130841   1.642   3.809   1.259  0.7755  1.2935 -1.5773
 3142TIP3    H230842   1.607   3.950   1.217  1.4312  2.3750  1.2661
 3143TIP3   OH230843   0.625   4.701  11.791  0.0947 -0.1336  0.4446
 3143TIP3    H130844   0.639   4.792  11.815 -2.2509  0.1833  0.7792
 3143TIP3    H230845   0.616   4.702  11.696  3.2431 -0.5408  0.0321
 3144TIP3   OH230846   3.964   6.455   6.043  0.4611 -0.2964  0.0060
 3144TIP3    H130847   3.924   6.376   6.006 -0.5937  1.2582 -2.4623
 3144TIP3    H230848   4.046   6.465   5.994 -1.3715  2.2811 -2.9764
 3145TIP3   OH230849   5.957   5.039  13.434 -0.2098  0.1017  0.6081
 3145TIP3    H130850   6.051   5.035  13.415 -0.4762  0.3070 -0.8745
 3145TIP3    H230851   5.925   4.953  13.410 -0.9538  1.0941 -2.3758
 3146TIP3   OH230852   4.427   6.014  17.327  0.0524 -0.0801 -0.2902
 3146TIP3    H130853   4.466   5.985  17.244  1.1026  1.2845 -0.3102
 3146TIP3    H230854   4.386   5.935  17.363 -1.4843 -0.4582 -2.6457
 3147TIP3   OH230855   3.992   1.526   4.570 -0.1971 -0.4294  0.0278
 3147TIP3    H130856   3.951   1.488   4.493 -1.5606  0.5963  0.2186
 3147TIP3    H230857   4.082   1.546   4.543 -0.8244  0.4685 -1.4895
 3148TIP3   OH230858   6.069   4.655   5.512  0.0833 -0.0570  0.1621
 3148TIP3    H130859   6.163   4.637   5.510  0.1871  0.1750  1.6169
 3148TIP3    H230860   6.063   4.750   5.503 -0.0571 -0.1414 -0.6436
 3149TIP3   OH230861   0.094   2.636  14.798 -0.1563  0.3777 -0.5024
 3149TIP3    H130862   0.054   2.550  14.783  0.1793  0.0624  0.3665
 3149TIP3    H230863   0.124   2.633  14.889  0.4224  1.1904 -0.6611
 3150TIP3   OH230864   0.970   5.494   3.805 -0.9379  0.8761 -0.1936
 3150TIP3    H130865   0.895   5.553   3.801 -0.9670  0.7784 -1.3044
 3150TIP3    H230866   1.043   5.546   3.771 -0.7970  0.5277 -0.4284
 3151TIP3   OH230867   4.628   0.586  16.864 -0.0700 -0.0441 -0.5011
 3151TIP3    H130868   4.617   0.650  16.935 -2.6548  0.2549 -1.0714
 3151TIP3    H230869   4.604   0.502  16.903  0.3356 -0.1876 -0.5525
 3152TIP3   OH230870   6.182   4.554   6.060 -0.2552 -0.2991 -0.0072
 3152TIP3    H130871   6.151   4.625   6.116 -0.5594  1.9752 -2.8370
 3152TIP3    H230872   6.274   4.545   6.082  0.1782  2.0813 -0.5781
 3153TIP3   OH230873   1.411   1.263   6.373  0.5935 -0.1811  0.0902
 3153TIP3    H130874   1.448   1.327   6.434  0.1472 -0.5098  0.7287
 3153TIP3    H230875   1.329   1.302   6.344  0.5663 -0.2410  0.0858
 3154TIP3   OH230876   6.205   6.543   2.310 -0.3067  0.1771 -0.1896
 3154TIP3    H130877   6.193   6.638   2.311  1.1433  0.4015  0.8357
 3154TIP3    H230878   6.153   6.512   2.384  2.3262  0.7306  2.0823
 3155TIP3   OH230879   0.576   2.119  11.999 -0.0021 -0.0357  0.0450
 3155TIP3    H130880   0.664   2.149  12.020  0.3174 -0.9090  0.0119
 3155TIP3    H230881   0.568   2.035  12.044 -0.3587 -0.5542 -0.9568
 3156TIP3   OH230882   5.278   3.843   0.765 -0.1347  0.4495  0.2522
 3156TIP3    H130883   5.286   3.820   0.672 -0.8911  0.0628  0.2728
 3156TIP3    H230884   5.211   3.911   0.766  1.7168  2.3753  0.2422
 3157TIP3   OH230885   3.958   5.969   1.574  0.3790 -0.1287  0.2088
 3157TIP3    H130886   3.899   5.910   1.621  1.1628 -0.6349  0.5724
 3157TIP3    H230887   3.930   6.057   1.601 -0.6037 -0.3308 -0.1112
 3158TIP3   OH230888   3.260   4.054   0.042 -0.3712  0.1686  0.2479
 3158TIP3    H130889   3.328   4.118   0.063 -0.5847 -0.3035  2.6571
 3158TIP3    H230890   3.308   3.974   0.021 -0.1695  0.4976 -0.6326
 3159TIP3   OH230891   1.405   4.362   1.760  0.3297  0.7095  0.6149
 3159TIP3    H130892   1.335   4.330   1.704  0.9429 -0.4633  0.4698
 3159TIP3    H230893   1.408   4.456   1.744 -1.2057  0.7911  0.6432
 3160TIP3   OH230894   6.710   5.322  13.218  0.3407  0.3082  0.4936
 3160TIP3    H130895   6.695   5.228  13.209  2.2029  0.1297 -1.7586
 3160TIP3    H230896   6.645   5.361  13.159  0.6615  0.2958  0.1233
 3161TIP3   OH230897   5.614   1.112  11.773 -0.4499  0.5597  0.0294
 3161TIP3    H130898   5.604   1.107  11.868  0.9127  0.9135  0.2094
 3161TIP3    H230899   5.668   1.190  11.759 -0.1095  0.1516 -0.9940
 3162TIP3   OH230900   2.600   6.301  11.427  0.2009  0.0721 -0.0800
 3162TIP3    H130901   2.655   6.248  11.484 -0.0370 -0.5302 -0.3909
 3162TIP3    H230902   2.517   6.309  11.474 -0.3984 -1.3985 -0.7954
 3163TIP3   OH230903   2.362   5.360   0.526  0.8893 -0.1336  0.1775
 3163TIP3    H130904   2.288   5.420   0.530  0.0057 -1.1349 -0.5665
 3163TIP3    H230905   2.425   5.404   0.468 -0.7377 -0.8956 -2.3393
 3164TIP3   OH230906   5.552   4.594   1.937 -0.3704 -0.2072 -0.1577
 3164TIP3    H130907   5.642   4.607   1.907 -1.1875  0.4356 -2.6262
 3164TIP3    H230908   5.526   4.680   1.970 -0.5874  0.0838 -1.0519
 3165TIP3   OH230909   1.450   4.601  14.120  0.1181  0.0433  0.6482
 3165TIP3    H130910   1.526   4.584  14.064  0.1846 -0.4778  0.8994
 3165TIP3    H230911   1.425   4.691  14.099  0.3166 -0.0530 -0.0157
 3166TIP3   OH230912   4.504   4.925  14.890  0.0630  0.2236 -0.5383
 3166TIP3    H130913   4.437   4.990  14.912  1.0015  0.4834  1.8155
 3166TIP3    H230914   4.460   4.841  14.899  0.1293  0.3620  1.5553
 3167TIP3   OH230915   0.416   2.674  15.023  0.0438  0.1821  0.7270
 3167TIP3    H130916   0.378   2.599  15.069  0.3932 -0.2335  0.3424
 3167TIP3    H230917   0.361   2.748  15.049 -0.0151 -0.1171  1.4860
 3168TIP3   OH230918   5.332   1.196  11.726  0.7864 -0.0816  0.4609
 3168TIP3    H130919   5.291   1.168  11.808  0.8457  1.3146  0.9779
 3168TIP3    H230920   5.392   1.124  11.704 -1.3511 -1.8314  0.0649
 3169TIP3   OH230921   6.378   5.714  13.492 -0.0351 -0.5847  0.1136
 3169TIP3    H130922   6.441   5.653  13.453 -2.3478 -1.1107 -3.2344
 3169TIP3    H230923   6.324   5.660  13.550  0.7025 -0.7114  0.7048
 3170TIP3   OH230924   5.552   0.765  16.874 -0.1261  0.3538 -0.4721
 3170TIP3    H130925   5.556   0.839  16.935 -0.0038 -0.2218  0.2361
 3170TIP3    H230926   5.469   0.722  16.895  0.8416 -1.0468  0.7517
 3171TIP3   OH230927   0.039   2.304   3.229 -0.2367  0.5694  0.0202
 3171TIP3    H130928   0.096   2.338   3.161  0.6456 -0.2322  0.3457
 3171TIP3    H230929  -0.007   2.231   3.189  0.6913 -0.2565  0.4214
 3172TIP3   OH230930   2.754   1.789  13.946 -0.7419  0.4772  0.2492
 3172TIP3    H130931   2.714   1.799  14.033 -0.0205 -0.1510  0.6666
 3172TIP3    H230932   2.752   1.695  13.930 -0.1512  0.5154 -0.0630
 3173TIP3   OH230933   0.579   5.490  12.287 -0.7426  0.8160 -0.4724
 3173TIP3    H130934   0.625   5.441  12.219  0.8255  0.4817  0.7797
 3173TIP3    H230935   0.592   5.439  12.367 -3.8939  0.3366 -0.1282
 3174TIP3   OH230936   0.234   1.055  15.869 -0.0540 -0.1129  0.1200
 3174TIP3    H130937   0.307   0.993  15.879  0.8865  0.9972  0.3484
 3174TIP3    H230938   0.218   1.057  15.775  0.2203 -0.3643  0.0636
 3175TIP3   OH230939   4.577   3.174  14.347  0.2771  0.7604 -0.2109
 3175TIP3    H130940   4.625   3.092  14.347 -0.1206  0.5214  0.4360
 3175TIP3    H230941   4.524   3.171  14.427 -1.4746  0.6319 -1.3460
 3176TIP3   OH230942   3.512   4.630   6.036  0.3552  0.4252 -0.3347
 3176TIP3    H130943   3.546   4.719   6.047 -2.7338  1.7025 -0.2425
 3176TIP3    H230944   3.462   4.614   6.115 -1.5044 -0.2087 -1.5814
 3177TIP3   OH230945   6.481   0.732  13.839  0.3283  0.6633 -0.2271
 3177TIP3    H130946   6.432   0.769  13.765  0.9493  0.9789 -0.4896
 3177TIP3    H230947   6.496   0.640  13.814  0.5383  0.7689 -0.4981
 3178TIP3   OH230948   4.826   2.464  13.837 -0.3704  0.1034 -0.3918
 3178TIP3    H130949   4.904   2.430  13.881 -0.6342 -0.2727 -0.2065
 3178TIP3    H230950   4.766   2.389  13.834 -0.9302  0.5302 -0.0448
 3179TIP3   OH230951   6.260   4.292  13.054 -0.4798  0.3257  0.3278
 3179TIP3    H130952   6.305   4.376  13.068 -0.2867  0.2518  0.1574
 3179TIP3    H230953   6.283   4.268  12.964  0.6590 -0.6247  0.8470
 3180TIP3   OH230954   1.879   3.252  10.890 -0.1376 -0.7088  0.0735
 3180TIP3    H130955   1.823   3.330  10.886  0.9432  0.0530 -0.9411
 3180TIP3    H230956   1.865   3.217  10.978 -1.9877 -0.3972 -0.0519
 3181TIP3   OH230957   1.158   1.833   3.224  0.2789 -0.3666  0.1366
 3181TIP3    H130958   1.252   1.832   3.207  0.1797 -0.1083 -0.4680
 3181TIP3    H230959   1.125   1.906   3.172 -0.2118 -0.2630  0.5901
 3182TIP3   OH230960   2.672   4.712   4.520 -0.0747  0.0956  0.1051
 3182TIP3    H130961   2.766   4.720   4.533 -0.0373  1.0727 -0.6559
 3182TIP3    H230962   2.648   4.630   4.565  1.3487 -0.8792 -0.8363
 3183TIP3   OH230963   5.710   6.375  16.264  0.2448 -0.0908  0.2816
 3183TIP3    H130964   5.733   6.436  16.333 -1.4234  0.8528  0.0352
 3183TIP3    H230965   5.621   6.346  16.285  0.7996 -2.0773  0.1174
 3184TIP3   OH230966   0.634   6.697   2.289  0.8505  0.1517 -0.1960
 3184TIP3    H130967   0.616   6.617   2.241 -0.3979  0.7047 -0.7110
 3184TIP3    H230968   0.630   6.766   2.223  1.1987  0.7103  0.3530
 3185TIP3   OH230969   6.138   2.894  14.014 -0.0498 -0.4796  0.0338
 3185TIP3    H130970   6.083   2.969  13.992 -0.7133 -1.1205 -0.5374
 3185TIP3    H230971   6.218   2.908  13.963  0.6711  0.8375  1.4295
 3186TIP3   OH230972   5.311   1.709   3.638  0.0655 -0.1938 -0.1208
 3186TIP3    H130973   5.340   1.618   3.648 -3.5433 -1.3269  1.9312
 3186TIP3    H230974   5.328   1.750   3.723 -2.4978 -0.4700  0.6317
 3187TIP3   OH230975   4.873   0.813   3.240 -0.4062  0.3722  0.4795
 3187TIP3    H130976   4.855   0.816   3.146 -2.9190  0.7997  0.9009
 3187TIP3    H230977   4.797   0.768   3.278 -0.1019  1.3861  2.4403
 3188TIP3   OH230978   1.786   1.081   2.056  0.5103 -0.3386 -0.2753
 3188TIP3    H130979   1.730   1.118   1.987 -0.5727 -1.2945  0.0460
 3188TIP3    H230980   1.813   0.996   2.022  0.9077 -0.3324  0.0184
 3189TIP3   OH230981   0.891   1.225  13.349 -0.1790  0.1730 -0.3324
 3189TIP3    H130982   0.946   1.150  13.371 -1.2296 -1.0422 -1.6454
 3189TIP3    H230983   0.886   1.223  13.253 -0.1583  1.9914 -0.3992
 3190TIP3   OH230984   0.781   1.476   3.040 -0.8060  0.1279 -0.0393
 3190TIP3    H130985   0.862   1.457   2.992  0.5744 -1.5833  2.7396
 3190TIP3    H230986   0.793   1.566   3.072 -1.1305  0.7666 -1.6153
 3191TIP3   OH230987   2.428   1.796  13.435 -0.4542 -0.7637 -0.3779
 3191TIP3    H130988   2.408   1.703  13.426  1.7056 -1.1867 -1.5008
 3191TIP3    H230989   2.516   1.799  13.473 -1.0129  0.8632  0.9161
 3192TIP3   OH230990   6.234   0.444   3.688 -0.5097  0.5079  0.0821
 3192TIP3    H130991   6.283   0.373   3.729  0.7031 -0.1984 -2.3815
 3192TIP3    H230992   6.166   0.400   3.637  0.4282  1.0154 -1.7027
 3193TIP3   OH230993   5.793   0.528  14.893  0.1605  0.0491 -0.2685
 3193TIP3    H130994   5.736   0.557  14.822 -1.2416 -0.4932  0.5831
 3193TIP3    H230995   5.758   0.442  14.917  1.7654 -0.5928 -0.1369
 3194TIP3   OH230996   3.381   5.243  12.907  0.0089  0.2672 -0.1019
 3194TIP3    H130997   3.352   5.326  12.869 -0.2602  0.7175  1.0513
 3194TIP3    H230998   3.474   5.256  12.926  0.3241 -0.2146 -1.2583
 3195TIP3   OH230999   5.948   5.500  13.890 -0.2095  0.1285 -0.4087
 3195TIP3    H131000   5.969   5.438  13.819 -0.1160  0.0424 -0.3079
 3195TIP3    H231001   5.901   5.571  13.847  0.2603  0.3056 -0.6354
 3196TIP3   OH231002   6.734   0.528  16.882  0.4820  0.0418  0.1836
 3196TIP3    H131003   6.764   0.618  16.896 -0.4057  0.1609  1.4335
 3196TIP3    H231004   6.782   0.499  16.804  0.4393  1.7502 -0.5244
 3197TIP3   OH231005   1.712   4.942  14.214  0.5251 -0.5333 -0.1171
 3197TIP3    H131006   1.746   4.987  14.291 -0.4637  0.2060 -0.0979
 3197TIP3    H231007   1.667   4.865  14.250 -0.1109 -0.0815  0.0717
 3198TIP3   OH231008   1.181   1.521  14.696  0.1787  0.0456  0.1195
 3198TIP3    H131009   1.203   1.599  14.645  0.0544  0.4382  0.6570
 3198TIP3    H231010   1.196   1.448  14.636 -1.6076  0.5746 -1.0592
 3199TIP3   OH231011   4.086   1.652   1.760  0.0695  0.3141 -0.6646
 3199TIP3    H131012   4.034   1.604   1.824  1.3669  0.6689  0.7538
 3199TIP3    H231013   4.042   1.737   1.752  0.5192  0.7052  0.7055
 3200TIP3   OH231014   2.233   0.342  12.521 -0.2259 -0.3020  0.2663
 3200TIP3    H131015   2.203   0.262  12.478 -0.7344  0.2282 -0.3704
 3200TIP3    H231016   2.294   0.311  12.588  2.0084 -1.0449 -1.9755
 3201TIP3   OH231017   5.626   0.994   1.674  0.2234  0.3115  0.3905
 3201TIP3    H131018   5.683   1.056   1.718 -1.0313  1.5294  0.3882
 3201TIP3    H231019   5.658   0.990   1.584  0.6085  0.5838  0.5151
 3202TIP3   OH231020   2.801   1.194   1.713  0.1138  0.1707 -0.0149
 3202TIP3    H131021   2.788   1.189   1.808 -2.7332 -1.5275 -0.3770
 3202TIP3    H231022   2.771   1.109   1.681  0.1403  1.0411 -2.5158
 3203TIP3   OH231023   2.467   4.741  14.753 -0.3519 -0.2138  0.0846
 3203TIP3    H131024   2.470   4.659  14.703  1.2062  1.0532 -2.1035
 3203TIP3    H231025   2.558   4.772  14.752 -0.4714  0.5049  2.7929
 3204TIP3   OH231026   0.184   2.977   3.093 -0.4860  0.6006  0.2636
 3204TIP3    H131027   0.126   3.053   3.093 -0.3002  0.7572  1.1384
 3204TIP3    H231028   0.168   2.935   3.178 -1.4057 -0.9859 -0.6322
 3205TIP3   OH231029   1.041   0.180   2.656 -0.0670 -0.0836  0.1718
 3205TIP3    H131030   1.108   0.113   2.640  0.4835  0.2657  0.9284
 3205TIP3    H231031   1.088   0.249   2.704 -0.6457  0.8004 -0.5120
 3206TIP3   OH231032   3.336   5.549   0.888 -0.5145 -0.5149  0.1821
 3206TIP3    H131033   3.282   5.580   0.815 -0.1176  1.6584  0.7427
 3206TIP3    H231034   3.275   5.503   0.944 -1.3607  0.0153 -0.2767
 3207TIP3   OH231035   6.543   2.212   2.262 -0.2967 -0.1993 -0.3525
 3207TIP3    H131036   6.453   2.217   2.227 -0.5692  1.0476  0.4653
 3207TIP3    H231037   6.543   2.133   2.315 -0.6135 -0.7514 -1.1460
 3208TIP3   OH231038   0.734   5.825   0.109  0.1126  0.2360 -0.4138
 3208TIP3    H131039   0.677   5.900   0.097  0.5315  0.4573 -1.0881
 3208TIP3    H231040   0.720   5.798   0.200  1.6904  2.5854  0.6385
 3209TIP3   OH231041   5.968   0.533   1.940  0.2963  0.1745 -0.4635
 3209TIP3    H131042   6.032   0.479   1.986 -1.9574 -0.9702  1.5491
 3209TIP3    H231043   5.916   0.470   1.889  0.4499  1.0189 -1.7053
 3210TIP3   OH231044   5.549   0.106  13.684  0.3229 -0.7297  0.4542
 3210TIP3    H131045   5.618   0.168  13.708  0.3230 -0.8815  0.8537
 3210TIP3    H231046   5.486   0.111  13.756 -0.9551  0.6581 -0.7040
 3211TIP3   OH231047   2.574   1.003   1.035 -0.5748 -0.2287  0.0289
 3211TIP3    H131048   2.662   1.012   0.997 -0.8968  2.9217 -0.2792
 3211TIP3    H231049   2.525   0.953   0.970  0.5986 -0.7510 -0.4920
 3212TIP3   OH231050   5.935   4.123   2.688  0.7402  0.4105  0.1663
 3212TIP3    H131051   6.007   4.183   2.710  0.1835  0.5600  1.7588
 3212TIP3    H231052   5.960   4.085   2.604  3.1836 -0.2851  1.1106
 3213TIP3   OH231053   2.411   1.963  14.309 -0.4892 -0.0273 -0.2587
 3213TIP3    H131054   2.434   2.047  14.350 -3.1073 -0.5814  2.8081
 3213TIP3    H231055   2.486   1.906  14.326 -0.0316  0.7946  0.5639
 3214TIP3   OH231056   1.152   4.458   2.966 -0.0311  0.5380 -0.3489
 3214TIP3    H131057   1.082   4.523   2.955 -2.0483 -1.4430  0.2386
 3214TIP3    H231058   1.164   4.452   3.060  0.6033  0.5069 -0.4292
 3215TIP3   OH231059   5.768   4.943   2.317  0.4448  0.2399 -0.6885
 3215TIP3    H131060   5.752   5.028   2.358 -1.4324  1.0516 -2.8394
 3215TIP3    H231061   5.698   4.887   2.350  0.5386  0.0999 -0.7287
 3216TIP3   OH231062   5.632   5.263   2.071  0.3024  0.6913 -0.5491
 3216TIP3    H131063   5.725   5.275   2.084  0.1978  0.5301  0.3960
 3216TIP3    H231064   5.617   5.289   1.980  1.1489  1.3324 -0.5149
 3217TIP3   OH231065   6.084   5.859  15.973 -0.2800  0.6048 -0.8166
 3217TIP3    H131066   6.077   5.868  15.878 -0.0157 -0.6863 -0.9808
 3217TIP3    H231067   6.000   5.823  16.001 -0.5275  1.4119 -0.4882
 3218TIP3   OH231068   3.194   3.372   5.247  0.1797  0.3976 -0.1094
 3218TIP3    H131069   3.186   3.276   5.248 -1.4629  0.4725 -1.1844
 3218TIP3    H231070   3.215   3.393   5.156  0.0044  1.0736  0.0033
 3219TIP3   OH231071   4.345   1.930  10.834 -0.2562  0.0307  0.1712
 3219TIP3    H131072   4.262   1.957  10.874 -0.7161 -1.0627 -0.0078
 3219TIP3    H231073   4.322   1.906  10.744 -0.0627 -1.6891  0.5276
 3220TIP3   OH231074   5.268   5.269  12.104  0.1416 -0.5958  0.1534
 3220TIP3    H131075   5.196   5.331  12.112 -0.7393 -1.5957  0.1191
 3220TIP3    H231076   5.235   5.200  12.047  0.7429 -1.5862  0.9523
 3221TIP3   OH231077   2.395   1.533   6.105  0.2937 -0.2781 -0.0790
 3221TIP3    H131078   2.465   1.552   6.169  1.4045 -0.6212 -1.1627
 3221TIP3    H231079   2.319   1.512   6.159  1.2096 -0.5796  1.1402
 3222TIP3   OH231080   3.674   0.951  13.238  0.1992 -1.1201  0.6139
 3222TIP3    H131081   3.620   0.928  13.162  0.1073 -0.1728  0.3723
 3222TIP3    H231082   3.753   0.988  13.200 -0.9290  1.9094  0.8931
 3223TIP3   OH231083   4.273   0.209   2.277 -0.3778 -0.2335  0.0125
 3223TIP3    H131084   4.179   0.200   2.258 -0.6932 -0.5819  1.5387
 3223TIP3    H231085   4.305   0.118   2.281 -0.1657 -0.1495  0.2902
 3224TIP3   OH231086   6.449   2.433  10.861 -0.4297 -0.3089  0.6686
 3224TIP3    H131087   6.469   2.520  10.826 -1.9815  0.8035  2.3473
 3224TIP3    H231088   6.405   2.388  10.789 -1.3805  1.0245  0.3686
 3225TIP3   OH231089   4.806   3.413   5.686  0.3373 -0.1730 -0.6249
 3225TIP3    H131090   4.854   3.439   5.765 -0.3187 -1.7752  0.3658
 3225TIP3    H231091   4.829   3.321   5.673 -0.3907 -0.2258 -1.6717
 3226TIP3   OH231092   2.184   2.611   2.099 -0.0097  0.0374 -0.2104
 3226TIP3    H131093   2.220   2.697   2.082  1.2600 -0.6014 -0.8722
 3226TIP3    H231094   2.181   2.605   2.195  1.6504  0.1236 -0.1321
 3227TIP3   OH231095   3.384   1.139  13.678  0.1065  0.0102 -0.2237
 3227TIP3    H131096   3.369   1.223  13.634 -2.1738 -1.3546 -2.3036
 3227TIP3    H231097   3.344   1.149  13.764 -1.1762  0.7443 -0.8739
 3228TIP3   OH231098   3.310   2.873   6.839 -0.0858 -0.5254  0.2852
 3228TIP3    H131099   3.230   2.909   6.878 -0.2605  2.4953 -2.4279
 3228TIP3    H231100   3.283   2.844   6.751  1.2419 -2.3972  0.4388
 3229TIP3   OH231101   1.871   2.271  14.624  0.1853  0.4662  0.4549
 3229TIP3    H131102   1.925   2.350  14.611  0.3470  0.4256  0.8723
 3229TIP3    H231103   1.876   2.254  14.718 -0.1791  0.1885  0.4242
 3230TIP3   OH231104   0.902   1.748   1.357  1.0333  0.6395 -0.0934
 3230TIP3    H131105   0.854   1.697   1.292 -0.1506  0.3596  0.9661
 3230TIP3    H231106   0.834   1.791   1.409  1.9723  1.6720  0.3185
 3231TIP3   OH231107   0.168   0.019   4.926  0.0385 -0.1469  0.1811
 3231TIP3    H131108   0.132   0.025   5.014  0.7235  0.3807  0.4281
 3231TIP3    H231109   0.221   0.098   4.916 -1.7155  0.9329 -1.4731
 3232TIP3   OH231110   4.095   4.930   0.986 -0.1970  0.2020  0.4943
 3232TIP3    H131111   4.063   5.020   0.991  0.8163  0.5134  2.3233
 3232TIP3    H231112   4.069   4.890   1.069  0.3032 -0.8622  0.1565
 3233TIP3   OH231113   0.212   4.982  14.656 -0.6083 -0.1866 -0.2456
 3233TIP3    H131114   0.200   4.977  14.751  1.8241  1.4230  0.2314
 3233TIP3    H231115   0.193   5.073  14.634  3.3273  0.7553 -0.4355
 3234TIP3   OH231116   0.656   6.517   0.626  0.0626 -0.1039  0.7872
 3234TIP3    H131117   0.576   6.481   0.664 -0.8241  0.5838 -0.3828
 3234TIP3    H231118   0.657   6.608   0.654 -0.5391  0.3782 -0.6799
 3235TIP3   OH231119   6.710   2.752   1.690  0.1808 -0.4625  0.3333
 3235TIP3    H131120   6.642   2.800   1.739 -0.7456 -1.4820  0.0818
 3235TIP3    H231121   6.670   2.736   1.605  1.7196  1.1538 -0.7513
 3236TIP3   OH231122   1.014   1.988   1.237 -0.4225  0.2490 -0.1762
 3236TIP3    H131123   0.957   2.065   1.233 -0.1824  0.5621  1.5169
 3236TIP3    H231124   0.964   1.923   1.286  1.2156  1.1444  2.9597
 3237TIP3   OH231125   1.733   1.849  15.130  0.8214  0.3208  0.3215
 3237TIP3    H131126   1.745   1.755  15.118  1.2098  0.1573  1.7622
 3237TIP3    H231127   1.638   1.860  15.137  0.6993  0.2141 -1.0642
 3238TIP3   OH231128   5.078   5.925  13.131 -0.8131  0.6124 -0.0950
 3238TIP3    H131129   4.999   5.932  13.076 -1.1669 -0.1102  0.3198
 3238TIP3    H231130   5.106   6.016  13.144 -2.5832  1.0166  1.2024
 3239TIP3   OH231131   0.740   5.874  15.987 -0.0961 -0.2957  0.0921
 3239TIP3    H131132   0.833   5.881  15.967 -0.3362 -0.4071 -1.1513
 3239TIP3    H231133   0.728   5.786  16.022  0.2761 -0.2556  0.3155
 3240TIP3   OH231134   5.480   0.612  11.318 -0.1315 -0.4770  0.1739
 3240TIP3    H131135   5.441   0.536  11.274 -0.8854  0.7585 -1.3940
 3240TIP3    H231136   5.548   0.643  11.258  0.9969 -0.6177  1.3568
 3241TIP3   OH231137   3.805   4.405   1.636  0.6016  0.3582  0.3679
 3241TIP3    H131138   3.886   4.361   1.661 -0.2078 -2.2162 -1.1425
 3241TIP3    H231139   3.737   4.358   1.685 -0.1799  1.0271 -0.0603
 3242TIP3   OH231140   3.464   2.643  15.371  0.4422  0.4369  0.1615
 3242TIP3    H131141   3.412   2.565  15.391  0.4320 -0.3623 -2.4885
 3242TIP3    H231142   3.506   2.667  15.453  0.5427 -2.4612  1.0558
 3243TIP3   OH231143   4.694   2.117   1.236  1.0160 -0.1518 -0.4303
 3243TIP3    H131144   4.674   2.134   1.328 -0.3825  2.2153 -1.1027
 3243TIP3    H231145   4.609   2.120   1.192  1.8650  0.9333 -2.0848
 3244TIP3   OH231146   4.895   3.515  11.128 -0.0281  0.1165 -0.2662
 3244TIP3    H131147   4.863   3.479  11.210  0.4981 -1.2567 -0.6385
 3244TIP3    H231148   4.859   3.458  11.060  1.6054 -0.3371 -0.8073
 3245TIP3   OH231149   0.156   3.023   5.262  0.1723 -0.1470 -0.2250
 3245TIP3    H131150   0.132   2.990   5.348  1.3712  3.6418  1.7603
 3245TIP3    H231151   0.250   3.036   5.266 -0.0023  1.9106 -1.3709
 3246TIP3   OH231152   1.117   1.912   1.713  0.8486 -0.0226  0.3769
 3246TIP3    H131153   1.200   1.870   1.689  0.8297  1.0038 -1.6459
 3246TIP3    H231154   1.100   1.881   1.802  3.0799 -0.7474  0.6128
 3247TIP3   OH231155   3.936   3.857  14.131 -0.1464  0.3755  0.0528
 3247TIP3    H131156   3.978   3.943  14.128 -1.9931  1.4867  2.4492
 3247TIP3    H231157   3.967   3.812  14.053  0.2910  3.5008 -1.7301
 3248TIP3   OH231158   2.999   4.491   4.756 -0.3395 -0.1644 -0.0636
 3248TIP3    H131159   3.073   4.550   4.741 -0.1071 -0.5334 -0.3822
 3248TIP3    H231160   3.001   4.430   4.682 -1.0090 -0.1308 -0.1155
 3249TIP3   OH231161   1.690   4.978   1.752  0.0991  0.3002 -0.7655
 3249TIP3    H131162   1.662   4.968   1.661 -0.2107 -2.2881 -0.4469
 3249TIP3    H231163   1.781   4.948   1.754  0.8451  2.3769 -0.5528
 3250TIP3   OH231164   3.455   6.355  11.867 -0.6188 -0.2095  0.0091
 3250TIP3    H131165   3.405   6.288  11.914  0.4944 -2.5766 -1.9581
 3250TIP3    H231166   3.528   6.375  11.925 -1.5384  0.1403  1.0881
 3251TIP3   OH231167   3.485   2.872  12.265  0.2371 -0.6254  0.2569
 3251TIP3    H131168   3.510   2.865  12.173  2.8221 -0.0417  0.8527
 3251TIP3    H231169   3.495   2.784  12.300  1.5742 -0.3855  0.5017
 3252TIP3   OH231170   4.829   2.523  14.164 -0.3454  0.0154 -0.3483
 3252TIP3    H131171   4.878   2.533  14.246 -2.1860 -1.4759  1.0263
 3252TIP3    H231172   4.896   2.527  14.096  1.8271 -2.3998  1.4505
 3253TIP3   OH231173   3.482   4.705  10.703 -0.2715  0.7235  0.1561
 3253TIP3    H131174   3.505   4.622  10.745 -2.8330 -0.6602 -0.9520
 3253TIP3    H231175   3.490   4.770  10.774 -0.4647 -0.8506  1.6983
 3254TIP3   OH231176   1.534   3.217  11.500 -0.0420 -0.0838 -0.0328
 3254TIP3    H131177   1.528   3.296  11.554 -2.1829  0.1473 -0.5408
 3254TIP3    H231178   1.593   3.241  11.429 -0.0257  0.7880  0.2582
 3255TIP3   OH231179   4.161   5.371   1.663  0.0493  0.2972 -0.0614
 3255TIP3    H131180   4.230   5.343   1.723 -0.3503  0.1787  0.3440
 3255TIP3    H231181   4.105   5.429   1.715  0.3903  1.1988 -0.6567
 3256TIP3   OH231182   1.408   2.354  16.785 -0.3694  0.7989  0.3972
 3256TIP3    H131183   1.504   2.353  16.781 -0.3956 -0.4615 -0.5356
 3256TIP3    H231184   1.383   2.262  16.780 -1.6513  1.1336  0.3524
 3257TIP3   OH231185   2.806   5.804   1.334 -0.1693  0.6362 -0.1465
 3257TIP3    H131186   2.873   5.747   1.297  0.2960  0.4849  0.9092
 3257TIP3    H231187   2.855   5.873   1.379 -0.7186  1.6540 -1.0243
 3258TIP3   OH231188   4.545   4.368  16.148  0.1194  0.4835  0.2384
 3258TIP3    H131189   4.549   4.404  16.237  0.1938  1.9315 -0.3099
 3258TIP3    H231190   4.456   4.388  16.119 -0.1695 -0.7141  0.2572
 3259TIP3   OH231191   1.678   3.667   3.047  0.4018  0.6882 -0.3640
 3259TIP3    H131192   1.706   3.759   3.053  1.8841  0.3289 -1.3453
 3259TIP3    H231193   1.757   3.617   3.068 -0.4931 -0.3870  0.5546
 3260TIP3   OH231194   2.752   0.030   2.251 -0.1437 -0.1497  0.2364
 3260TIP3    H131195   2.840  -0.010   2.249 -0.5965 -1.1618 -0.9288
 3260TIP3    H231196   2.769   0.124   2.244  0.8843 -0.2346  1.1824
 3261TIP3   OH231197   1.297   2.043  11.496  0.4822  0.2703 -0.0101
 3261TIP3    H131198   1.329   1.969  11.547 -0.0989 -0.9004 -1.2907
 3261TIP3    H231199   1.376   2.093  11.474  0.6964  1.1653  2.4880
 3262TIP3   OH231200   3.349   3.307  15.309 -0.1429 -0.2004  0.3719
 3262TIP3    H131201   3.366   3.341  15.221  0.2815 -0.1472  0.4725
 3262TIP3    H231202   3.435   3.305  15.351 -0.3968  0.1463  0.9222
 3263TIP3   OH231203   3.608   4.566   1.308  0.6556 -0.1107  0.0694
 3263TIP3    H131204   3.579   4.522   1.387  2.9330  1.3371  1.8365
 3263TIP3    H231205   3.667   4.503   1.265  0.5946 -0.3417  0.3264
 3264TIP3   OH231206   0.855   3.153  12.018 -0.2382  0.4745 -0.3174
 3264TIP3    H131207   0.791   3.091  12.055  0.7989 -1.1499 -1.1191
 3264TIP3    H231208   0.885   3.110  11.938 -1.5503  3.3191 -2.5140
 3265TIP3   OH231209   4.791   0.228  15.618 -0.3212  0.2501  0.2864
 3265TIP3    H131210   4.737   0.253  15.693 -2.2650  0.1790 -1.0099
 3265TIP3    H231211   4.770   0.293  15.551  0.7116 -0.1785 -0.4749
 3266TIP3   OH231212   4.578   4.180  12.310 -0.2969 -0.5918  0.3014
 3266TIP3    H131213   4.556   4.093  12.278 -2.6361  0.4551 -1.2631
 3266TIP3    H231214   4.608   4.227  12.233 -0.0963  0.2765  0.8913
 3267TIP3   OH231215   4.723   3.697  12.133  0.2689  0.0722  0.1588
 3267TIP3    H131216   4.728   3.729  12.223 -1.8202  1.3911 -0.1189
 3267TIP3    H231217   4.758   3.769  12.080  1.9896 -0.9101 -0.0859
 3268TIP3   OH231218   2.847   6.512  15.606  0.3859 -0.4769 -0.1765
 3268TIP3    H131219   2.880   6.572  15.539 -1.6853  2.5007  1.2163
 3268TIP3    H231220   2.848   6.564  15.686 -0.8037 -2.6394  1.3392
 3269TIP3   OH231221   2.393   2.968  11.506  0.4129 -0.0972  0.7578
 3269TIP3    H131222   2.376   2.897  11.444  0.3746  0.8870 -0.4034
 3269TIP3    H231223   2.306   2.995  11.537  0.3122  0.4259  0.0417
 3270TIP3   OH231224   1.195   5.829   1.981  0.6212 -0.3710  0.1016
 3270TIP3    H131225   1.186   5.852   2.073  2.7062  1.3714 -0.0465
 3270TIP3    H231226   1.266   5.765   1.978  1.6425  0.7339 -0.3733
 3271TIP3   OH231227   3.922   1.751   0.114  0.0603 -0.3626  0.3242
 3271TIP3    H131228   4.008   1.717   0.139  0.9726  1.0336 -0.8006
 3271TIP3    H231229   3.913   1.728   0.022  0.2862  1.5370 -0.2076
 3272TIP3   OH231230   2.678   3.353   2.321 -0.3137  0.4673  0.1695
 3272TIP3    H131231   2.770   3.338   2.344  0.1211  0.3429 -1.5066
 3272TIP3    H231232   2.630   3.285   2.366  0.5451 -0.0882  0.2678
 3273TIP3   OH231233   2.823   6.620  12.042 -0.0212 -0.3544 -0.7130
 3273TIP3    H131234   2.811   6.618  12.137 -0.5580 -0.8758 -0.7881
 3273TIP3    H231235   2.819   6.714  12.020 -0.2209 -0.2547 -0.2631
 3274TIP3   OH231236   3.204   5.155   4.426 -0.1532  0.4231  0.1164
 3274TIP3    H131237   3.275   5.182   4.485  0.8255 -0.6678 -0.5366
 3274TIP3    H231238   3.167   5.238   4.394 -0.1799  1.0255  1.6160
 3275TIP3   OH231239   3.442   1.589  12.706 -0.5694  0.6656  0.4926
 3275TIP3    H131240   3.367   1.648  12.714 -2.0360 -1.2712  3.0937
 3275TIP3    H231241   3.461   1.564  12.797 -0.4981 -3.2533 -0.4279
 3276TIP3   OH231242   0.320   1.636   0.323  0.4377 -0.2635  0.3914
 3276TIP3    H131243   0.318   1.665   0.232  2.4136  2.2579  1.0378
 3276TIP3    H231244   0.394   1.577   0.329 -0.4875 -1.4845  0.1382
 3277TIP3   OH231245   2.018   6.445   4.090  0.1721  0.2630 -0.5294
 3277TIP3    H131246   1.973   6.483   4.166  0.1197  1.9100 -1.3535
 3277TIP3    H231247   2.082   6.386   4.129 -2.0597 -1.5286  0.7071
 3278TIP3   OH231248   2.343   6.740   3.548 -0.0682  0.0314  0.0580
 3278TIP3    H131249   2.397   6.695   3.613 -0.5046  1.6289  1.6127
 3278TIP3    H231250   2.345   6.832   3.575 -1.8344  0.4588 -1.0870
 3279TIP3   OH231251   3.500   1.208   5.078  0.4622 -0.2987  0.1377
 3279TIP3    H131252   3.577   1.238   5.126  0.1489 -0.3665  0.6966
 3279TIP3    H231253   3.532   1.138   5.021  0.5411 -1.4577  1.5513
 3280TIP3   OH231254   2.741   6.645   1.072 -0.2972  0.9746  0.0132
 3280TIP3    H131255   2.749   6.713   1.139 -2.1038 -0.6567  2.0901
 3280TIP3    H231256   2.810   6.582   1.094 -0.4494  0.7701 -0.0948
 3281TIP3   OH231257   1.630   4.231   5.344  0.0314 -0.6987 -0.0498
 3281TIP3    H131258   1.538   4.223   5.320  0.0141  0.4453 -0.4438
 3281TIP3    H231259   1.649   4.153   5.397 -1.5285 -0.2488  1.2358
 3282TIP3   OH231260   0.495   0.148  15.890  0.3587 -0.2181  0.7956
 3282TIP3    H131261   0.436   0.096  15.836 -0.1050 -0.4721  1.5251
 3282TIP3    H231262   0.536   0.084  15.948  2.4766 -0.2645 -0.6620
 3283TIP3   OH231263   5.801   2.179   4.952 -0.3463 -0.0101  0.1588
 3283TIP3    H131264   5.854   2.107   4.918  1.4235  0.8137  1.0641
 3283TIP3    H231265   5.827   2.186   5.044 -0.8637  1.4664  0.2054
 3284TIP3   OH231266   3.256   5.038   0.164  0.4346  0.1746 -0.2424
 3284TIP3    H131267   3.181   4.986   0.133  0.1824  0.9257 -0.9360
 3284TIP3    H231268   3.330   5.005   0.114  0.1446  0.9480 -1.2007
 3285TIP3   OH231269   0.708   4.942  10.612  0.1355 -0.1510  0.9483
 3285TIP3    H131270   0.749   5.019  10.573  1.0995 -1.3817 -0.6112
 3285TIP3    H231271   0.778   4.900  10.661  0.5226 -1.6381 -0.7632
 3286TIP3   OH231272   4.684   5.928   4.670  0.4273  0.1800 -0.0179
 3286TIP3    H131273   4.636   5.985   4.610  2.0934 -0.2066 -1.8419
 3286TIP3    H231274   4.775   5.957   4.662  0.8942 -0.8758  1.2137
 3287TIP3   OH231275   1.181   6.693  13.121 -0.1502 -0.3119 -0.0439
 3287TIP3    H131276   1.111   6.695  13.186 -0.9657 -2.5165 -0.7750
 3287TIP3    H231277   1.150   6.632  13.054  1.9606 -0.4038 -1.0103
 3288TIP3   OH231278   1.444   0.095  12.333 -0.5010  0.4775 -0.0507
 3288TIP3    H131279   1.360   0.116  12.373 -0.5577 -0.4257  0.3261
 3288TIP3    H231280   1.423   0.039  12.259 -0.2148 -0.1185  0.3064
 3289TIP3   OH231281   4.721   3.512  14.552  0.3026 -0.4853  0.2684
 3289TIP3    H131282   4.684   3.533  14.466 -1.1229 -1.0186  0.7113
 3289TIP3    H231283   4.796   3.570  14.561  1.1463 -1.1613 -1.7824
 3290TIP3   OH231284   3.814   4.933   1.662 -0.1530  0.3646 -0.4954
 3290TIP3    H131285   3.784   4.844   1.641  0.2372 -0.0661  0.6528
 3290TIP3    H231286   3.738   4.989   1.645 -0.1959 -0.0820 -1.8851
 3291TIP3   OH231287   3.467   1.334   3.384  0.1297  0.5995 -0.3821
 3291TIP3    H131288   3.530   1.265   3.406  0.8653  1.2455 -0.4002
 3291TIP3    H231289   3.448   1.320   3.291 -2.5384 -1.7785  0.3849
 3292TIP3   OH231290   2.195   4.083  16.233 -0.1665  0.1882  0.2005
 3292TIP3    H131291   2.216   4.004  16.282 -2.3801  0.1492  1.1842
 3292TIP3    H231292   2.276   4.135  16.237  1.5598 -2.2329 -1.0527
 3293TIP3   OH231293   1.062   0.415  15.964  0.3128 -0.1053  0.3470
 3293TIP3    H131294   1.071   0.377  16.051  2.0813  0.3962  0.4183
 3293TIP3    H231295   1.136   0.379  15.915 -1.5749 -1.7587 -1.5124
 3294TIP3   OH231296   5.288   2.605  13.973 -0.2217 -0.8772  0.5118
 3294TIP3    H131297   5.342   2.658  14.031 -1.7026 -0.3451  1.4472
 3294TIP3    H231298   5.335   2.522  13.966  2.5499  0.6961 -1.5982
 3295TIP3   OH231299   6.153   6.448  13.451  0.3034  0.4655  0.4191
 3295TIP3    H131300   6.170   6.355  13.468  0.2485  0.2476 -0.6395
 3295TIP3    H231301   6.144   6.487  13.538 -0.6240 -0.6943  0.8782
 3296TIP3   OH231302   1.273   2.165  13.526  0.1749 -0.8670  0.3541
 3296TIP3    H131303   1.288   2.081  13.570  0.1246 -0.4133  1.2680
 3296TIP3    H231304   1.340   2.168  13.457 -0.5525 -2.1565 -0.4573
 3297TIP3   OH231305   4.431   3.314   2.364 -0.1648 -0.3902  0.0047
 3297TIP3    H131306   4.366   3.248   2.389  0.8258 -1.4997 -0.2701
 3297TIP3    H231307   4.412   3.331   2.271  1.1788 -2.2621 -0.6807
 3298TIP3   OH231308   0.095   5.478  11.760 -0.4526  0.4366 -0.0447
 3298TIP3    H131309   0.140   5.560  11.782 -2.4136  1.8813 -1.1569
 3298TIP3    H231310   0.166   5.419  11.732  0.7592  2.8354 -2.4389
 3299TIP3   OH231311   2.440   6.526   1.833 -0.4138 -0.1157  0.0227
 3299TIP3    H131312   2.455   6.435   1.859  2.5654  0.5870  1.2124
 3299TIP3    H231313   2.386   6.562   1.904  0.3228 -0.4096  0.7519
 3300TIP3   OH231314   6.081   3.977   3.769  0.2224 -0.2274 -0.4773
 3300TIP3    H131315   6.036   3.926   3.702  1.7009 -1.0211 -0.9125
 3300TIP3    H231316   6.066   4.068   3.744 -1.5351 -0.4398 -0.3117
 3301TIP3   OH231317   5.595   5.069   0.324 -0.9373 -0.1951  0.1717
 3301TIP3    H131318   5.609   4.976   0.341 -1.4511 -0.0296  1.5814
 3301TIP3    H231319   5.683   5.105   0.312 -0.6263 -0.5676  1.2731
 3302TIP3   OH231320   1.445   3.876  13.689  0.0425 -0.2360  0.2017
 3302TIP3    H131321   1.407   3.790  13.704  0.6137 -0.4391  0.5384
 3302TIP3    H231322   1.414   3.929  13.763 -0.8412  0.0352 -0.3551
 3303TIP3   OH231323   2.199   2.565  11.565  0.1438 -0.2731 -0.8679
 3303TIP3    H131324   2.158   2.567  11.651  1.2495  1.6994 -0.3129
 3303TIP3    H231325   2.223   2.474  11.552 -2.3817 -1.1079 -0.2909
 3304TIP3   OH231326   3.792   3.100   3.087 -0.1578  0.4166  0.3105
 3304TIP3    H131327   3.726   3.046   3.132 -1.0497  1.6538  0.5446
 3304TIP3    H231328   3.795   3.180   3.139 -0.5361  1.5174 -1.3235
 3305TIP3   OH231329   0.775   4.237   2.669 -0.0020 -0.5398  0.0577
 3305TIP3    H131330   0.808   4.147   2.677 -2.3805 -1.4649  0.2717
 3305TIP3    H231331   0.777   4.272   2.758 -1.3352 -1.2868  0.4091
 3306TIP3   OH231332   4.780   5.951  14.078  0.1878 -0.4234 -0.4510
 3306TIP3    H131333   4.702   6.000  14.104 -0.1961 -0.4645 -1.4899
 3306TIP3    H231334   4.746   5.876  14.030  0.7131 -2.2309  1.7935
 3307TIP3   OH231335   2.420   4.575   3.034 -0.1267  0.1712  0.2767
 3307TIP3    H131336   2.464   4.517   3.097 -0.9811 -0.4032  0.3536
 3307TIP3    H231337   2.340   4.528   3.010 -1.0379  1.4779  0.6387
 3308TIP3   OH231338   2.189   1.034   2.112  0.0885 -0.0110 -0.0689
 3308TIP3    H131339   2.248   1.109   2.116 -1.4460  1.3139 -0.8460
 3308TIP3    H231340   2.157   1.024   2.202  0.1146  0.4392 -0.0097
 3309TIP3   OH231341   3.112   2.158   3.143 -0.4404  0.2893 -0.4193
 3309TIP3    H131342   3.189   2.211   3.120  0.9626 -2.2059 -1.8969
 3309TIP3    H231343   3.085   2.192   3.228  1.9224  1.6763 -0.1053
 3310TIP3   OH231344   2.126   5.902  15.758 -0.0156  0.0322  0.1590
 3310TIP3    H131345   2.198   5.916  15.819 -1.2023  1.0879  1.3668
 3310TIP3    H231346   2.118   5.986  15.712 -0.2237 -0.2109 -0.2539
 3311TIP3   OH231347   1.428   4.190   1.404  0.5010  0.2814 -0.3618
 3311TIP3    H131348   1.354   4.163   1.459 -0.8995  1.1416 -1.7573
 3311TIP3    H231349   1.470   4.261   1.453 -0.6963  1.0067 -0.3510
 3312TIP3   OH231350   2.151   2.543   6.063 -0.3047  0.2079 -0.3052
 3312TIP3    H131351   2.149   2.463   6.115  2.5115 -0.4109 -1.0068
 3312TIP3    H231352   2.119   2.611   6.122 -0.3080 -1.0072  1.1368
 3313TIP3   OH231353   0.517   3.649  11.208  0.1460  1.0797  0.8044
 3313TIP3    H131354   0.473   3.609  11.283  3.3541 -1.2545  1.6458
 3313TIP3    H231355   0.511   3.583  11.139  0.7602  1.4629  0.3686
 3314TIP3   OH231356   6.524   0.651  15.521  0.1127  0.2468 -0.1596
 3314TIP3    H131357   6.534   0.746  15.513  0.3640  0.6122  3.1828
 3314TIP3    H231358   6.430   0.638  15.537  0.1883  0.0049  0.0940
 3315TIP3   OH231359   6.371   2.638  15.979  0.3783  0.0361 -0.0542
 3315TIP3    H131360   6.459   2.618  16.008  0.5557  1.2830  0.3322
 3315TIP3    H231361   6.344   2.713  16.032 -0.5993  0.1998 -0.7375
 3316TIP3   OH231362   5.251   6.311   5.980  0.5067 -0.5344 -0.1453
 3316TIP3    H131363   5.178   6.258   6.011  1.9761 -2.3693  0.3306
 3316TIP3    H231364   5.241   6.311   5.885  0.2491 -1.3217 -0.1273
 3317TIP3   OH231365   5.686   0.913   4.949  0.3923  0.2736  0.0048
 3317TIP3    H131366   5.619   0.859   4.906 -0.4420 -1.3574  3.0202
 3317TIP3    H231367   5.740   0.850   4.997  0.0761  1.9412  2.7978
 3318TIP3   OH231368   1.364   4.024   0.947 -0.5635  0.1122  0.0272
 3318TIP3    H131369   1.443   3.994   0.904  0.7694  1.9608  1.0349
 3318TIP3    H231370   1.395   4.084   1.016 -2.8214  0.9218  0.4436
 3319TIP3   OH231371   4.990   3.895   1.682 -0.3659 -0.2980  0.0486
 3319TIP3    H131372   5.035   3.822   1.641 -2.4251 -2.0357  0.6867
 3319TIP3    H231373   4.955   3.946   1.608  0.8723 -0.0683 -0.3952
 3320TIP3   OH231374   5.965   6.314   1.178  0.3313  0.3544 -0.2438
 3320TIP3    H131375   5.992   6.357   1.097 -1.5161  3.1306  0.4694
 3320TIP3    H231376   6.046   6.306   1.229  1.1561  0.4983 -1.4990
 3321TIP3   OH231377   1.117   1.897  11.820 -0.1145 -0.3413 -0.0153
 3321TIP3    H131378   1.086   1.986  11.837  0.9073  0.5845 -2.5051
 3321TIP3    H231379   1.202   1.893  11.865  0.0277  0.1110 -0.2304
 3322TIP3   OH231380   3.924   1.006  14.550 -0.0555 -0.1933  0.1207
 3322TIP3    H131381   3.967   1.013  14.636 -2.3336  0.6881  1.2657
 3322TIP3    H231382   3.979   1.058  14.492  1.4927 -0.7234  1.0493
 3323TIP3   OH231383   1.637   4.886   3.366 -0.5675 -0.1422 -0.1573
 3323TIP3    H131384   1.650   4.967   3.414  0.9881 -0.0735 -0.6614
 3323TIP3    H231385   1.620   4.821   3.434  0.9287  0.0804  0.4712
 3324TIP3   OH231386   4.587   6.700   2.865  0.7494 -0.4813 -0.2305
 3324TIP3    H131387   4.627   6.707   2.951  0.3873 -0.4895 -0.0594
 3324TIP3    H231388   4.564   6.608   2.856  0.9642 -0.5171 -0.4158
 3325TIP3   OH231389   1.561   4.236  14.075 -0.1847  0.3766 -0.2935
 3325TIP3    H131390   1.623   4.308  14.090  0.3231 -0.2231  0.5724
 3325TIP3    H231391   1.596   4.189  13.999 -0.1475  0.6453 -0.4436
 3326TIP3   OH231392   4.457   3.454   1.558 -0.1356 -0.0022  0.0365
 3326TIP3    H131393   4.396   3.438   1.485 -0.3734 -1.9533  0.6089
 3326TIP3    H231394   4.502   3.370   1.570  0.6732  0.6099  1.4530
 3327TIP3   OH231395   4.932   3.707  10.804 -0.2529  0.0306 -0.8595
 3327TIP3    H131396   4.928   3.615  10.776  2.1687 -0.2478 -0.4756
 3327TIP3    H231397   4.954   3.756  10.725  0.0937  0.0794 -0.7320
 3328TIP3   OH231398   0.320   5.333   0.892 -0.5494 -0.1360 -0.7240
 3328TIP3    H131399   0.272   5.415   0.878  0.3390  0.2764 -1.5054
 3328TIP3    H231400   0.360   5.314   0.807  0.0240 -0.8677 -0.3001
 3329TIP3   OH231401   0.012   1.882  12.085 -0.4164  0.4555  0.2678
 3329TIP3    H131402   0.029   1.840  12.000  0.6604  0.4099  0.4931
 3329TIP3    H231403   0.080   1.948  12.093  1.6474 -1.7429  2.5740
 3330TIP3   OH231404   2.400   4.121  11.004  0.5106  0.1568  0.2198
 3330TIP3    H131405   2.441   4.127  10.917  1.9995 -0.7865  0.8277
 3330TIP3    H231406   2.473   4.108  11.064 -0.6098 -0.5181  1.4790
 3331TIP3   OH231407   6.669   1.420  15.812  0.1228 -0.6144 -0.4099
 3331TIP3    H131408   6.619   1.500  15.830 -2.0042 -2.3868  2.5771
 3331TIP3    H231409   6.612   1.369  15.754  1.4643 -0.0325 -2.3002
 3332TIP3   OH231410   5.141   6.630   5.240  0.1070 -0.1508  0.4061
 3332TIP3    H131411   5.094   6.558   5.283  1.6293 -1.5548 -0.1845
 3332TIP3    H231412   5.103   6.635   5.153 -2.4160  2.1591  1.4973
 3333TIP3   OH231413   1.301   5.182   0.506  0.4007 -0.2304  0.2105
 3333TIP3    H131414   1.354   5.114   0.463  2.6510  1.1376  0.6216
 3333TIP3    H231415   1.315   5.167   0.599 -0.9454 -0.5549  0.3708
 3334TIP3   OH231416   6.515   5.313  14.385  0.0020 -0.3346  0.6393
 3334TIP3    H131417   6.500   5.345  14.296 -1.1311  1.4773  1.4268
 3334TIP3    H231418   6.608   5.289  14.386 -0.4431 -2.6193 -1.6389
 3335TIP3   OH231419   4.872   1.874  10.589  0.2281 -0.1659  0.5605
 3335TIP3    H131420   4.816   1.878  10.511  0.2879 -2.2283  0.3523
 3335TIP3    H231421   4.821   1.826  10.653  1.2809 -1.0372  0.7780
 3336TIP3   OH231422   5.716   5.545  12.253  0.0418  0.1669  0.3591
 3336TIP3    H131423   5.698   5.452  12.260  0.6183  0.1269  1.4069
 3336TIP3    H231424   5.780   5.563  12.322  1.3469  0.9721 -0.9880
 3337TIP3   OH231425   0.733   5.495  16.406 -0.4868 -0.4612 -0.2774
 3337TIP3    H131426   0.640   5.507  16.389 -0.5450  0.1988  0.4369
 3337TIP3    H231427   0.738   5.422  16.467 -0.6359  0.2723  0.6295
 3338TIP3   OH231428   4.994   4.264  14.038  0.3592  0.2671 -0.2357
 3338TIP3    H131429   4.969   4.194  14.099  1.4656  1.6915  1.9659
 3338TIP3    H231430   5.029   4.218  13.962 -0.1290 -1.5760  0.5988
 3339TIP3   OH231431   5.062   2.391   6.683 -0.0136  0.1992  0.2014
 3339TIP3    H131432   5.033   2.416   6.771 -0.8060 -1.5034  0.4525
 3339TIP3    H231433   5.057   2.296   6.682  3.1438 -0.0663 -0.6129
 3340TIP3   OH231434   2.754   3.575  15.671  0.7684 -0.2054 -0.1616
 3340TIP3    H131435   2.776   3.573  15.577  0.7841 -1.0146 -0.1434
 3340TIP3    H231436   2.822   3.523  15.713 -0.2547 -1.3725  0.0837
 3341TIP3   OH231437   6.008   3.036   1.090  0.2187 -0.6375  0.2385
 3341TIP3    H131438   6.101   3.013   1.079  0.4712  0.5715 -0.3056
 3341TIP3    H231439   6.007   3.131   1.087 -0.9251 -0.5999  1.3500
 3342TIP3   OH231440   1.695   1.449   2.294 -0.4601  0.3196  0.5174
 3342TIP3    H131441   1.764   1.512   2.316 -1.0479  0.1756  3.0434
 3342TIP3    H231442   1.741   1.381   2.244  0.8590  1.1069  0.6005
 3343TIP3   OH231443   4.713   4.336   5.094  0.0031 -0.6683 -0.3426
 3343TIP3    H131444   4.721   4.292   5.178  0.7214  0.4786  0.2187
 3343TIP3    H231445   4.629   4.382   5.099 -0.1494 -0.9358 -0.4246
 3344TIP3   OH231446   6.095   2.356  11.712 -0.3783 -0.3658 -0.4751
 3344TIP3    H131447   6.014   2.405  11.721 -0.5313 -0.6832 -0.0843
 3344TIP3    H231448   6.124   2.341  11.802 -0.0321 -0.4908 -0.6071
 3345TIP3   OH231449   2.625   1.800  11.636 -0.4320  0.2280 -0.1359
 3345TIP3    H131450   2.704   1.851  11.617 -0.0000  0.0816  1.1768
 3345TIP3    H231451   2.627   1.787  11.731 -1.6555 -0.4091 -0.1807
 3346TIP3   OH231452   2.039   3.746   4.861  0.2519  0.3673 -0.2791
 3346TIP3    H131453   2.073   3.720   4.775  2.1694  0.9140  0.2689
 3346TIP3    H231454   2.116   3.749   4.917 -0.4617  3.1788  0.6908
 3347TIP3   OH231455   5.551   5.212   1.518 -0.7263  0.7968 -0.2099
 3347TIP3    H131456   5.591   5.154   1.454  0.0778 -0.3539  1.2721
 3347TIP3    H231457   5.623   5.266   1.550 -0.9341  0.7463  0.3526
 3348TIP3   OH231458   0.278   1.574  12.076 -0.4176 -0.4718 -0.0912
 3348TIP3    H131459   0.282   1.567  12.172 -0.3344  2.2832  0.1791
 3348TIP3    H231460   0.231   1.496  12.049  0.2081 -1.7199  2.1237
 3349TIP3   OH231461   4.377   1.424   5.483  0.1360  0.7949 -0.0294
 3349TIP3    H131462   4.434   1.350   5.503 -0.1724  0.9944  1.7497
 3349TIP3    H231463   4.434   1.488   5.442  0.1959 -0.7853 -2.6555
 3350TIP3   OH231464   6.158   1.310   1.648  0.0070  0.2298  0.3765
 3350TIP3    H131465   6.209   1.258   1.710 -0.0613 -1.0475 -0.5999
 3350TIP3    H231466   6.081   1.338   1.697  0.5844  0.3516  1.2356
 3351TIP3   OH231467   6.186   2.026   1.046  0.2486 -0.3806 -0.4938
 3351TIP3    H131468   6.268   1.981   1.065  0.0537 -0.4855  0.1195
 3351TIP3    H231469   6.173   2.012   0.952  1.3379  0.3338 -0.7671
 3352TIP3   OH231470   4.487   0.670   2.841  0.2322  0.4978 -0.4927
 3352TIP3    H131471   4.480   0.575   2.854 -0.8905  0.6810  0.4638
 3352TIP3    H231472   4.567   0.681   2.789  0.3190 -0.9731 -0.7338
 3353TIP3   OH231473   2.046   2.244   3.947 -1.1494  0.3991  0.0235
 3353TIP3    H131474   2.119   2.280   3.996  1.5071 -1.7154 -2.0464
 3353TIP3    H231475   2.037   2.155   3.980 -0.5849 -0.4129 -1.8660
 3354TIP3   OH231476   1.768   4.487  15.708 -0.3987 -0.3443  0.4772
 3354TIP3    H131477   1.816   4.560  15.669  0.5526 -1.0098  0.3484
 3354TIP3    H231478   1.704   4.462  15.642  1.3907 -1.6490 -0.8776
 3355TIP3   OH231479   0.507   3.836   1.253  0.4538  0.0294  0.2835
 3355TIP3    H131480   0.590   3.808   1.215  0.9013  3.0671 -1.2831
 3355TIP3    H231481   0.450   3.854   1.178 -1.0147 -0.1920  1.2852
 3356TIP3   OH231482   6.313   0.166   5.535 -0.3073  0.4809  0.2400
 3356TIP3    H131483   6.396   0.212   5.548 -1.2751  1.9281  1.5862
 3356TIP3    H231484   6.260   0.227   5.484 -0.2344 -0.8842 -1.6014
 3357TIP3   OH231485   0.076   5.088   4.802  0.2055 -0.0605 -0.2193
 3357TIP3    H131486   0.151   5.148   4.799 -0.9200  1.4093 -0.4181
 3357TIP3    H231487   0.042   5.097   4.891 -0.1048 -0.2423 -0.3177
 3358TIP3   OH231488   5.355   3.456  13.700 -0.0023  0.2316 -0.3308
 3358TIP3    H131489   5.289   3.401  13.659 -0.3382 -0.7635  1.4579
 3358TIP3    H231490   5.396   3.503  13.627  0.2229 -2.2803 -1.9195
 3359TIP3   OH231491   6.028   1.501   5.302  0.5240  0.7916 -0.5593
 3359TIP3    H131492   6.016   1.592   5.328  1.7280  0.4530  1.3600
 3359TIP3    H231493   5.940   1.463   5.306  0.4783  1.0032  2.3325
 3360TIP3   OH231494   5.131   2.899  11.134  0.0401  0.0223 -0.5699
 3360TIP3    H131495   5.053   2.954  11.127 -0.6445 -0.7201  0.8367
 3360TIP3    H231496   5.176   2.911  11.050 -1.4833  0.6061 -1.3475
 3361TIP3   OH231497   0.369   2.202   2.618 -0.2752 -0.0296  0.3470
 3361TIP3    H131498   0.418   2.214   2.537  0.0656  1.3740  0.7230
 3361TIP3    H231499   0.401   2.119   2.653 -0.7142 -0.8568 -1.1278
 3362TIP3   OH231500   0.603   3.910   2.749  0.0943  0.8239  0.1892
 3362TIP3    H131501   0.571   3.958   2.825 -2.5469  0.6509 -0.6968
 3362TIP3    H231502   0.669   3.850   2.783 -0.4607  1.2865  2.1888
 3363TIP3   OH231503   3.771   1.870  11.331  0.0327  0.9542 -0.0511
 3363TIP3    H131504   3.742   1.947  11.380  0.1842  0.2792  1.1669
 3363TIP3    H231505   3.692   1.838  11.288  0.0378  1.9732 -0.8530
 3364TIP3   OH231506   1.997   3.615  14.546 -0.0856 -0.1082  0.0473
 3364TIP3    H131507   2.088   3.641  14.557 -0.6361  1.2857  1.7192
 3364TIP3    H231508   1.981   3.550  14.614 -1.1270  1.9871  1.9278
 3365TIP3   OH231509   1.471   6.309   5.270  0.2875 -0.2994 -0.8321
 3365TIP3    H131510   1.434   6.332   5.185  1.0086 -0.3802 -1.1760
 3365TIP3    H231511   1.556   6.271   5.250  0.3858 -0.5000 -0.0830
 3366TIP3   OH231512   5.584   3.236   5.343 -0.1062  0.2620  0.4815
 3366TIP3    H131513   5.513   3.282   5.388 -2.2308 -2.3611  0.1115
 3366TIP3    H231514   5.617   3.173   5.407  1.9118  1.4099  0.6223
 3367TIP3   OH231515   2.759   2.224  12.318  0.2625 -0.1941  0.5962
 3367TIP3    H131516   2.681   2.176  12.347  0.0574  0.0579  0.4686
 3367TIP3    H231517   2.770   2.294  12.382  1.5304 -1.3841  1.7264
 3368TIP3   OH231518   4.869   4.373   3.041  0.9767  0.2421  0.0799
 3368TIP3    H131519   4.842   4.300   2.986 -1.1031  1.4467 -0.6476
 3368TIP3    H231520   4.833   4.353   3.127  0.9047  0.1346  0.0246
 3369TIP3   OH231521   0.643   0.698   3.293  0.1145 -0.0617 -0.3735
 3369TIP3    H131522   0.729   0.664   3.268  0.4599  0.7902 -0.3612
 3369TIP3    H231523   0.584   0.668   3.223  1.2048  2.9781 -2.8169
 3370TIP3   OH231524   6.642   3.870   5.225 -0.2761  0.4392 -0.7584
 3370TIP3    H131525   6.660   3.961   5.250  1.4416 -0.0856  0.1154
 3370TIP3    H231526   6.583   3.838   5.293  0.3229  0.4930 -0.1939
 3371TIP3   OH231527   4.566   2.229  14.595  0.2026  0.6311 -0.2385
 3371TIP3    H131528   4.566   2.258  14.687 -1.4438 -0.1734  0.0625
 3371TIP3    H231529   4.615   2.147  14.596  1.1207  1.1684 -0.2919
 3372TIP3   OH231530   1.693   4.867  10.763  0.0668 -0.3134  0.0190
 3372TIP3    H131531   1.783   4.849  10.737  0.0657  0.5589 -0.6369
 3372TIP3    H231532   1.693   4.959  10.789 -1.0031  0.2489 -1.7880
 3373TIP3   OH231533   4.711   6.068   1.952  0.0007 -0.1562 -0.5762
 3373TIP3    H131534   4.728   6.105   2.038  0.0404  0.4876 -0.8564
 3373TIP3    H231535   4.618   6.083   1.937  0.3556  1.4485 -1.4265
 3374TIP3   OH231536   0.402   6.627  16.117  0.2954 -0.0504 -0.3119
 3374TIP3    H131537   0.349   6.677  16.178 -2.1519 -1.2738 -1.2926
 3374TIP3    H231538   0.357   6.635  16.033  1.4497 -1.4603 -1.1225
 3375TIP3   OH231539   0.745   3.804  12.881  0.4757  0.0862  0.5576
 3375TIP3    H131540   0.811   3.747  12.921 -0.5103 -0.5427  1.3509
 3375TIP3    H231541   0.721   3.865  12.951  0.3295  0.4162  0.2207
 3376TIP3   OH231542   5.674   5.477   6.704 -0.6197 -0.1214 -0.0904
 3376TIP3    H131543   5.710   5.565   6.696  0.3645 -0.5351 -0.5458
 3376TIP3    H231544   5.722   5.426   6.638 -1.4125 -0.9191 -0.0748
 3377TIP3   OH231545   0.215   4.806   1.937  0.4451  0.1347  0.5557
 3377TIP3    H131546   0.126   4.809   1.902  0.4761 -1.6798  0.2636
 3377TIP3    H231547   0.260   4.879   1.894 -0.5160  0.1938 -0.3865
 3378TIP3   OH231548   4.493   0.904  12.062 -0.2280 -0.6326 -0.0512
 3378TIP3    H131549   4.433   0.952  12.006 -0.4235 -1.8211 -0.8942
 3378TIP3    H231550   4.538   0.972  12.113 -2.4513  0.2751  0.8065
 3379TIP3   OH231551   1.580   3.037  15.004  0.0730 -0.0032  0.2584
 3379TIP3    H131552   1.494   2.996  14.992  0.7898 -1.7009  0.6307
 3379TIP3    H231553   1.571   3.124  14.964 -1.9410  0.0409  0.6950
 3380TIP3   OH231554   3.816   0.852   3.555 -0.4375  0.2888 -0.2794
 3380TIP3    H131555   3.906   0.827   3.531 -0.1574  0.7204  0.2973
 3380TIP3    H231556   3.769   0.769   3.561 -0.3758  0.1167 -1.7182
 3381TIP3   OH231557   4.141   2.287   4.859 -0.0474 -0.3387 -0.1845
 3381TIP3    H131558   4.152   2.265   4.766  0.1306  0.3467 -0.3339
 3381TIP3    H231559   4.225   2.325   4.884 -0.1242 -0.4442  0.2395
 3382TIP3   OH231560   2.742   0.052   0.370  0.2684  0.2449  0.2701
 3382TIP3    H131561   2.832   0.020   0.370  0.5940  1.1180  1.3438
 3382TIP3    H231562   2.751   0.147   0.356 -0.6668 -0.0169 -2.9908
 3383TIP3   OH231563   2.433   1.827  12.115 -0.0203 -0.4322 -0.1778
 3383TIP3    H131564   2.346   1.797  12.089  0.4012 -0.1940 -1.9769
 3383TIP3    H231565   2.463   1.762  12.179 -1.5598 -0.4336  0.5658
 3384TIP3   OH231566   0.921   0.478  14.888  0.0885 -0.3923  0.1745
 3384TIP3    H131567   0.875   0.476  14.972  0.0097 -0.2433  0.1362
 3384TIP3    H231568   0.860   0.435  14.827  0.0150 -0.2239  0.1302
 3385TIP3   OH231569   2.737   0.821  10.989  0.1132  0.0596  0.2733
 3385TIP3    H131570   2.699   0.739  10.955 -0.8858  0.5699  0.1304
 3385TIP3    H231571   2.714   0.886  10.923 -2.2903  1.1816  2.0771
 3386TIP3   OH231572   1.181   5.471  11.257 -0.1006 -0.4989 -0.2379
 3386TIP3    H131573   1.090   5.489  11.279 -0.2461 -1.0011 -0.4000
 3386TIP3    H231574   1.205   5.540  11.195 -0.1077  0.1194  0.4393
 3387TIP3   OH231575   1.765   5.740   2.821 -0.0242 -0.1878  0.2617
 3387TIP3    H131576   1.680   5.781   2.806  0.6131  1.2137  0.3766
 3387TIP3    H231577   1.814   5.802   2.874  0.8649 -1.2556  0.7461
 3388TIP3   OH231578   3.126   6.186   4.576 -0.1117  0.0447  0.0429
 3388TIP3    H131579   3.201   6.245   4.579 -0.0268 -0.0788  0.3301
 3388TIP3    H231580   3.068   6.224   4.510  0.5060 -0.2129 -0.6597
 3389TIP3   OH231581   6.587   5.172   3.708  0.4196 -0.0802  0.0041
 3389TIP3    H131582   6.615   5.252   3.665 -0.5398  1.4299  1.9818
 3389TIP3    H231583   6.661   5.112   3.700  1.5291  1.3359 -0.7426
 3390TIP3   OH231584   2.279   4.601  17.044  0.3756 -0.2100  0.0024
 3390TIP3    H131585   2.361   4.550  17.040 -0.1490 -1.1040  0.3944
 3390TIP3    H231586   2.274   4.643  16.958  1.5418  0.3409  0.1728
 3391TIP3   OH231587   1.628   5.406  16.907  0.2714  0.2027  0.0559
 3391TIP3    H131588   1.606   5.372  16.993  0.9307 -1.2130 -0.2887
 3391TIP3    H231589   1.701   5.466  16.922 -0.1537  0.5947  0.5627
 3392TIP3   OH231590   0.489   5.808  12.919  0.2760 -0.0965  0.1816
 3392TIP3    H131591   0.524   5.744  12.856  1.8223  0.2433  0.6585
 3392TIP3    H231592   0.518   5.893  12.885 -2.2697  0.4820 -0.7821
 3393TIP3   OH231593   5.300   5.421  14.624  0.7506  0.2345  0.1148
 3393TIP3    H131594   5.299   5.517  14.621  1.1355  0.2252 -1.9577
 3393TIP3    H231595   5.378   5.396  14.575 -1.2117 -1.1451 -2.5549
 3394TIP3   OH231596   1.196   2.303  11.262  0.1851 -0.2556 -0.3740
 3394TIP3    H131597   1.271   2.290  11.205  1.8976  0.9564  1.4438
 3394TIP3    H231598   1.133   2.352  11.209  2.3201  2.1444 -0.8616
 3395TIP3   OH231599   6.527   0.077  13.987 -0.1261 -0.0770  0.2234
 3395TIP3    H131600   6.594   0.009  13.984  1.4325  1.4100 -0.4359
 3395TIP3    H231601   6.510   0.099  13.896 -0.4515  0.5540  0.4258
 3396TIP3   OH231602   5.147   0.789   0.220 -0.1601  0.5055 -0.2943
 3396TIP3    H131603   5.215   0.754   0.162  0.3089 -0.6479  0.8947
 3396TIP3    H231604   5.066   0.784   0.168  0.1144 -1.2124 -0.6325
 3397TIP3   OH231605   0.700   1.149  14.302 -0.0946 -1.0648 -0.3895
 3397TIP3    H131606   0.744   1.130  14.219  0.3308 -0.7646 -0.2411
 3397TIP3    H231607   0.613   1.112  14.293  0.6269 -2.9410 -0.1788
 3398TIP3   OH231608   3.701   1.547  14.288 -0.1848  0.2446  0.1623
 3398TIP3    H131609   3.696   1.487  14.362 -1.8945  0.1192 -0.0151
 3398TIP3    H231610   3.765   1.507  14.230  0.3003 -0.2765  1.0259
 3399TIP3   OH231611   6.681   0.597   0.849 -0.0345 -0.3863 -0.0662
 3399TIP3    H131612   6.733   0.538   0.904 -0.2171 -0.3613  0.1340
 3399TIP3    H231613   6.622   0.539   0.800 -0.5853 -0.3370  0.5234
 3400TIP3   OH231614   5.860   6.606   1.248  0.1279 -0.0341 -0.5026
 3400TIP3    H131615   5.801   6.666   1.204 -0.1396 -1.2593 -1.8822
 3400TIP3    H231616   5.875   6.535   1.185  0.8637 -1.1441  0.8515
 3401TIP3   OH231617   0.287   6.212  14.035  0.5738  0.3887 -0.2687
 3401TIP3    H131618   0.284   6.147  14.105  0.6491 -1.8200 -2.1868
 3401TIP3    H231619   0.220   6.276  14.058 -2.0388 -2.2550  0.0018
 3402TIP3   OH231620   1.191   5.510  13.704 -0.0943 -0.0091 -0.0349
 3402TIP3    H131621   1.113   5.481  13.751  0.9252 -0.4071  1.4580
 3402TIP3    H231622   1.198   5.448  13.631 -0.7808 -0.3963  0.2125
 3403TIP3   OH231623   0.993   5.847   0.684  0.4756 -0.2570 -0.5786
 3403TIP3    H131624   0.927   5.911   0.710 -0.5083 -1.9331  1.3842
 3403TIP3    H231625   1.072   5.899   0.668 -0.9126  1.6543 -1.5567
 3404TIP3   OH231626   2.657   1.515  11.550 -0.5633 -0.0070  0.7315
 3404TIP3    H131627   2.614   1.580  11.606 -0.7714 -0.1398  0.7307
 3404TIP3    H231628   2.748   1.513  11.581 -0.4338  0.6344  0.4042
 3405TIP3   OH231629   3.823   1.001   4.510  0.0547 -0.4944  0.1855
 3405TIP3    H131630   3.835   1.039   4.423 -1.2395  2.5460  1.1810
 3405TIP3    H231631   3.764   0.927   4.496  0.2936 -0.4032 -1.5654
 3406TIP3   OH231632   2.687   0.485   6.200  0.1518 -0.0746 -0.3881
 3406TIP3    H131633   2.606   0.435   6.191 -0.3005 -0.0360  2.4465
 3406TIP3    H231634   2.742   0.431   6.256  0.9513  1.1390  0.0389
 3407TIP3   OH231635   1.397   1.905  12.647 -0.3840 -0.5221  0.0813
 3407TIP3    H131636   1.334   1.922  12.716 -0.1035 -0.4385  0.3177
 3407TIP3    H231637   1.415   1.992  12.609 -0.5035 -0.5617 -0.0665
 3408TIP3   OH231638   2.775   2.969   5.626  0.2743  0.2961  0.0457
 3408TIP3    H131639   2.819   2.944   5.707 -1.3571  0.1421  0.9123
 3408TIP3    H231640   2.721   3.045   5.649 -0.2976  0.1908 -0.8665
 3409TIP3   OH231641   0.916   2.910  15.168  0.0627 -0.0933  0.4673
 3409TIP3    H131642   0.823   2.909  15.188 -0.0868 -2.9508  0.1256
 3409TIP3    H231643   0.938   2.818  15.152  2.8515  0.5369  0.0790
 3410TIP3   OH231644   6.104   0.608  14.376  0.4031  0.4056  0.3592
 3410TIP3    H131645   6.089   0.616  14.282 -2.2726 -0.2425  0.6415
 3410TIP3    H231646   6.154   0.687  14.399  1.5126  0.3601 -1.6229
 3411TIP3   OH231647   4.193   5.129   3.192  0.2973  0.2946  0.1249
 3411TIP3    H131648   4.191   5.207   3.248 -0.0911  0.4510 -0.1022
 3411TIP3    H231649   4.146   5.155   3.113  0.8880  0.0905 -0.2983
 3412TIP3   OH231650   3.185   2.743   1.704  0.2519 -0.3904 -0.0339
 3412TIP3    H131651   3.240   2.788   1.640  2.0358 -2.6287 -0.2007
 3412TIP3    H231652   3.230   2.756   1.788 -0.5278  0.1224  0.3176
 3413TIP3   OH231653   5.850   3.647   0.976  0.0244  0.7142 -0.0584
 3413TIP3    H131654   5.871   3.683   0.889 -1.4264  2.5882  0.3122
 3413TIP3    H231655   5.900   3.700   1.037 -0.2700  0.5177  0.3599
 3414TIP3   OH231656   2.958   2.576   1.218  0.0541 -0.2313  0.0407
 3414TIP3    H131657   3.003   2.592   1.301 -1.2740  1.4644  0.4948
 3414TIP3    H231658   2.889   2.514   1.240  0.1945 -0.3968  0.0195
 3415TIP3   OH231659   5.439   1.931   4.773 -0.2657  0.5397 -0.1595
 3415TIP3    H131660   5.438   1.914   4.867  0.8350  0.3665 -0.1650
 3415TIP3    H231661   5.453   2.026   4.766  2.4915  0.2124 -0.1128
 3416TIP3   OH231662   3.649   0.441   5.505 -0.1636 -0.1508 -0.6178
 3416TIP3    H131663   3.583   0.466   5.439 -1.8082 -2.6749 -0.0854
 3416TIP3    H231664   3.729   0.485   5.476 -1.3904  0.7905 -2.9151
 3417TIP3   OH231665   6.661   3.015  13.346 -0.0501  0.1997 -0.6785
 3417TIP3    H131666   6.705   2.940  13.385 -0.4218 -0.9023 -2.2862
 3417TIP3    H231667   6.718   3.043  13.275 -0.8609  0.1729 -1.3622
 3418TIP3   OH231668   2.835   2.997   2.367 -0.1965 -0.2430  0.0688
 3418TIP3    H131669   2.833   2.908   2.400 -1.3122  0.4458  2.0261
 3418TIP3    H231670   2.878   3.048   2.436  2.4662  0.4604 -1.9301
 3419TIP3   OH231671   1.333   3.734   3.745 -1.0758  0.4588 -0.7183
 3419TIP3    H131672   1.349   3.744   3.651  2.5937  0.0782 -0.2875
 3419TIP3    H231673   1.349   3.641   3.762 -1.2457  0.6124  0.3460
 3420TIP3   OH231674   2.375   1.911   0.093 -0.2213 -0.0830  0.4671
 3420TIP3    H131675   2.395   2.002   0.074  0.9675  0.0018  1.8842
 3420TIP3    H231676   2.304   1.914   0.158 -0.1682 -0.1600  0.5301
 3421TIP3   OH231677   3.405   4.465  10.490  0.5666 -0.0999 -0.0091
 3421TIP3    H131678   3.432   4.541  10.541  2.8633 -0.2111 -0.8997
 3421TIP3    H231679   3.476   4.402  10.503 -0.9399 -1.8285  0.1329
 3422TIP3   OH231680   3.135   5.190   2.944  1.0740  0.8345 -0.2174
 3422TIP3    H131681   3.142   5.216   3.036 -1.0544 -0.3561  0.3464
 3422TIP3    H231682   3.130   5.272   2.895 -1.4330  1.5597  1.1075
 3423TIP3   OH231683   2.565   5.192   4.834  0.2115  0.1649 -0.2113
 3423TIP3    H131684   2.618   5.166   4.759 -0.6776 -1.4243 -0.3284
 3423TIP3    H231685   2.531   5.278   4.810 -0.7245 -0.6511 -2.0227
 3424TIP3   OH231686   3.608   5.117  14.299  0.5558  0.3460  0.4934
 3424TIP3    H131687   3.614   5.111  14.394 -0.4252 -0.9538  0.4888
 3424TIP3    H231688   3.583   5.208  14.282  3.4571  1.4303  1.2860
 3425TIP3   OH231689   4.932   4.452   2.429  0.3103  0.1764 -0.1896
 3425TIP3    H131690   4.885   4.528   2.393  0.5955  0.4251 -0.0384
 3425TIP3    H231691   4.915   4.382   2.366 -2.2140 -0.4073  1.0172
 3426TIP3   OH231692   1.666   4.444  12.608  0.5705 -0.5758 -0.0264
 3426TIP3    H131693   1.704   4.490  12.684 -0.3370 -0.0214  0.1012
 3426TIP3    H231694   1.731   4.377  12.586  0.6117 -1.1125  1.5891
 3427TIP3   OH231695   2.334   6.522  12.736  0.6625 -0.5562 -0.1341
 3427TIP3    H131696   2.358   6.575  12.812  0.8780 -1.0965  0.1844
 3427TIP3    H231697   2.239   6.512  12.743  0.6654 -0.4977 -0.0055
 3428TIP3   OH231698   5.451   6.085   3.866 -0.4870  0.0078 -0.3832
 3428TIP3    H131699   5.489   6.173   3.869 -0.0974 -0.1587 -0.3680
 3428TIP3    H231700   5.505   6.038   3.803 -0.9355 -0.1130 -0.6867
 3429TIP3   OH231701   5.399   3.597  13.941  0.5348 -0.2992 -0.0424
 3429TIP3    H131702   5.387   3.554  13.856  0.3919 -0.3275 -0.0071
 3429TIP3    H231703   5.387   3.528  14.005  0.6591 -0.2807  0.0005
 3430TIP3   OH231704   2.137   3.718   4.049 -0.1697  0.1780 -0.6734
 3430TIP3    H131705   2.091   3.797   4.080 -2.9400 -1.0601 -1.3166
 3430TIP3    H231706   2.071   3.649   4.055  2.0147 -2.0034 -0.6573
 3431TIP3   OH231707   2.052   2.191  12.206  0.6042  0.1853  0.2394
 3431TIP3    H131708   2.028   2.099  12.220  1.5581  0.0320  0.9773
 3431TIP3    H231709   2.036   2.205  12.112 -2.3685  0.1492  0.6560
 3432TIP3   OH231710   3.048   2.182  15.425 -0.3548 -0.8480 -0.4073
 3432TIP3    H131711   3.098   2.224  15.495 -1.6548 -1.1490  0.7463
 3432TIP3    H231712   3.050   2.245  15.353 -2.2913  1.3362  1.2912
 3433TIP3   OH231713   4.270   2.899   8.288  0.4990 -0.3998  0.5013
 3433TIP3    H131714   4.249   2.971   8.347 -0.9209 -0.2332 -0.1534
 3433TIP3    H231715   4.344   2.855   8.329  1.7497  1.7106  0.6639
 3434TIP3   OH231716   1.584   6.212   6.021 -0.5566  0.0477 -0.0220
 3434TIP3    H131717   1.602   6.290   5.970  1.6843 -1.6073 -1.9930
 3434TIP3    H231718   1.511   6.170   5.976  0.7184 -0.8594 -1.3229
 3435TIP3   OH231719   6.342   0.984   3.303  0.2460 -0.7426 -0.1905
 3435TIP3    H131720   6.381   1.071   3.301 -1.7374  0.1938 -1.6016
 3435TIP3    H231721   6.398   0.932   3.245  1.2825 -0.3463  0.4347
 3436TIP3   OH231722   4.798   4.628  12.922  0.0340 -0.4122 -0.5651
 3436TIP3    H131723   4.783   4.545  12.968  0.7569 -1.2137 -1.7099
 3436TIP3    H231724   4.820   4.690  12.991 -1.6478 -0.8618  0.4406
 3437TIP3   OH231725   0.814   5.722  13.113 -0.1090 -0.0188 -0.0107
 3437TIP3    H131726   0.747   5.789  13.105  0.7503  0.7608 -1.0022
 3437TIP3    H231727   0.891   5.769  13.148  0.1335 -0.7530  0.4722
 3438TIP3   OH231728   6.671   4.279  16.525  0.0936 -0.0808 -0.0502
 3438TIP3    H131729   6.766   4.273  16.524  0.1131  0.1032  0.4602
 3438TIP3    H231730   6.645   4.240  16.609 -0.2617  0.0847 -0.0809
 3439TIP3   OH231731   4.395   6.729  16.780  0.2184  0.1444  0.0976
 3439TIP3    H131732   4.475   6.777  16.800 -1.4810  2.1159  2.6576
 3439TIP3    H231733   4.389   6.661  16.848 -0.6094  0.4575  0.3533
 3440TIP3   OH231734   1.549   2.955   3.947 -0.0439  0.0968  0.2697
 3440TIP3    H131735   1.556   2.872   3.996  1.7452 -1.2273 -1.9967
 3440TIP3    H231736   1.455   2.972   3.943 -0.4603 -1.7123  1.0159
 3441TIP3   OH231737   5.788   4.322  12.133 -0.2645  0.1078 -0.2797
 3441TIP3    H131738   5.817   4.400  12.087 -0.2997 -0.2920 -0.9957
 3441TIP3    H231739   5.854   4.256  12.114 -1.2750 -0.6197 -1.3824
 3442TIP3   OH231740   5.729   4.745  12.299 -0.2724  0.0099 -0.0147
 3442TIP3    H131741   5.818   4.714  12.316 -0.9607 -1.1626  1.7133
 3442TIP3    H231742   5.681   4.665  12.278 -0.5669  0.8277 -3.0067
 3443TIP3   OH231743   0.862   3.503   1.961  0.0834 -0.2217 -0.0130
 3443TIP3    H131744   0.770   3.495   1.935  0.6128  0.2819 -2.2494
 3443TIP3    H231745   0.896   3.414   1.959  0.2391 -0.1523 -1.7292
 3444TIP3   OH231746   1.265   1.032   3.954  0.7340 -0.5432 -0.2357
 3444TIP3    H131747   1.201   1.050   4.024  2.1115  0.6410  0.7613
 3444TIP3    H231748   1.258   0.938   3.940  0.1385 -0.7435  1.2208
 3445TIP3   OH231749   2.432   6.747   2.645 -0.6320 -0.1317  0.3800
 3445TIP3    H131750   2.399   6.698   2.570 -0.1628  0.4648 -0.2316
 3445TIP3    H231751   2.425   6.838   2.619 -0.5241  0.0851  1.0914
 3446TIP3   OH231752   4.394   6.298   3.743 -0.4793  0.2044 -0.5929
 3446TIP3    H131753   4.311   6.338   3.766 -1.3358 -1.2495 -1.0068
 3446TIP3    H231754   4.421   6.250   3.821 -1.2048 -1.1787 -1.1545
 3447TIP3   OH231755   4.734   6.226  14.940 -0.3776  0.2412  0.0014
 3447TIP3    H131756   4.651   6.182  14.920 -2.5744  3.5632  0.9849
 3447TIP3    H231757   4.752   6.280  14.863 -0.4298  1.2751  0.6914
 3448TIP3   OH231758   1.800   0.967  12.141 -0.3801  0.0099 -0.5126
 3448TIP3    H131759   1.789   1.031  12.071 -0.3820  0.8861  0.2596
 3448TIP3    H231760   1.779   0.883  12.101 -3.5181  0.8051 -0.8107
 3449TIP3   OH231761   1.307   5.928  14.051  0.6005  0.4261  0.7385
 3449TIP3    H131762   1.361   5.916  13.973 -0.4927  1.3798 -0.1915
 3449TIP3    H231763   1.304   5.842  14.092  0.3214 -0.3323 -0.8334
 3450TIP3   OH231764   3.378   2.773  15.962 -0.1675  0.5102  0.1282
 3450TIP3    H131765   3.322   2.781  16.040  0.6343 -1.9793  1.0802
 3450TIP3    H231766   3.319   2.790  15.889 -1.1208  2.2169  1.2252
 3451TIP3   OH231767   0.612   5.592  11.792 -0.1763 -0.3987 -0.1871
 3451TIP3    H131768   0.676   5.554  11.854 -0.3755 -0.0016  0.2692
 3451TIP3    H231769   0.663   5.608  11.713  0.3060 -0.0662  0.1787
 3452TIP3   OH231770   1.934   6.536   3.243  1.0365  0.0522 -0.0200
 3452TIP3    H131771   1.895   6.449   3.235  0.2320  0.3001  1.0020
 3452TIP3    H231772   2.023   6.520   3.276  1.9717 -0.5275 -2.5835
 3453TIP3   OH231773   2.253   1.903  14.068  0.1772  0.6047 -0.5002
 3453TIP3    H131774   2.289   1.931  14.153  0.1297  0.9752 -0.6022
 3453TIP3    H231775   2.158   1.907  14.080  0.1658  1.3715 -0.8029
 3454TIP3   OH231776   0.841   5.055  11.255 -0.1888  0.3028 -0.4000
 3454TIP3    H131777   0.903   5.128  11.246  0.9985 -0.5211  0.6718
 3454TIP3    H231778   0.769   5.091  11.308  1.4866  0.1488  2.1736
 3455TIP3   OH231779   6.675   0.787   5.494  0.3656  0.1158 -0.1646
 3455TIP3    H131780   6.681   0.801   5.588  1.5260 -0.0963 -0.1899
 3455TIP3    H231781   6.757   0.744   5.471 -0.0612 -0.1747 -1.2175
 3456TIP3   OH231782   5.713   0.430  11.475  0.1052 -0.3402  0.1663
 3456TIP3    H131783   5.643   0.404  11.535  0.6475  0.2865  1.0905
 3456TIP3    H231784   5.740   0.517  11.505  1.2828 -0.5748 -0.1592
 3457TIP3   OH231785   4.273   3.905  13.467 -0.1533  0.1468  0.3559
 3457TIP3    H131786   4.179   3.885  13.475 -0.2851  0.5970 -0.0443
 3457TIP3    H231787   4.290   3.968  13.537 -0.2763  0.5142  0.0520
 3458TIP3   OH231788   0.962   4.725  12.757 -0.2042 -0.0856 -0.1377
 3458TIP3    H131789   0.977   4.750  12.666 -2.0379  1.6005 -0.0354
 3458TIP3    H231790   0.908   4.795  12.793  1.0980 -0.3386  2.4918
 3459TIP3   OH231791   4.242   4.869   4.125 -0.3312  0.0375  0.0992
 3459TIP3    H131792   4.218   4.881   4.217 -0.1285  1.5286 -0.0214
 3459TIP3    H231793   4.162   4.887   4.076  0.0466  1.2058 -0.1078
 3460TIP3   OH231794   5.702   6.393  14.883 -0.4272 -0.2318 -0.2399
 3460TIP3    H131795   5.696   6.352  14.796  0.7915 -0.4124 -0.2640
 3460TIP3    H231796   5.618   6.437  14.895 -0.3831  0.3392 -1.7919
 3461TIP3   OH231797   0.910   5.396   0.192 -0.0452 -0.0867  0.2496
 3461TIP3    H131798   0.835   5.413   0.135 -0.1467  1.9070  0.8729
 3461TIP3    H231799   0.893   5.450   0.270  1.2063 -0.9389  1.1587
 3462TIP3   OH231800   2.032   5.241  13.072 -0.0347  0.2770 -0.0270
 3462TIP3    H131801   2.120   5.273  13.055  2.5193 -4.0924  2.8412
 3462TIP3    H231802   2.014   5.180  13.000  0.4918 -0.7020  0.6409
 3463TIP3   OH231803   3.006   4.637  17.235  0.2227 -0.2131 -0.4375
 3463TIP3    H131804   2.992   4.559  17.183 -1.2065 -0.8892  0.8793
 3463TIP3    H231805   2.937   4.698  17.207 -0.3049 -0.4329  0.3279
 3464TIP3   OH231806   3.555   1.423  11.531  0.2278 -0.1085 -0.2008
 3464TIP3    H131807   3.615   1.350  11.550  0.0456 -0.3043 -0.3710
 3464TIP3    H231808   3.561   1.435  11.437 -0.4473 -0.5265 -0.3053
 3465TIP3   OH231809   0.568   1.079  15.479  0.3810  0.1930 -0.1188
 3465TIP3    H131810   0.552   1.141  15.407 -0.3615 -0.6885 -0.7263
 3465TIP3    H231811   0.664   1.074  15.484  0.4959 -1.1397 -2.3172
 3466TIP3   OH231812   4.172   5.165  17.306  0.2653 -0.4533  0.3417
 3466TIP3    H131813   4.113   5.204  17.241  1.1126  0.3907  0.0488
 3466TIP3    H231814   4.162   5.219  17.384  0.4611 -0.4616  0.3738
 3467TIP3   OH231815   3.282   6.586   3.398  0.3116  0.3829 -0.7794
 3467TIP3    H131816   3.340   6.515   3.370 -0.5853 -0.8373  0.3174
 3467TIP3    H231817   3.220   6.597   3.326  0.3210 -0.1177 -0.8698
 3468TIP3   OH231818   5.157   1.903   3.112  0.1733 -0.1569  0.1969
 3468TIP3    H131819   5.228   1.950   3.068  0.9866  0.0327  1.6275
 3468TIP3    H231820   5.110   1.971   3.161 -1.1279 -0.2559 -0.8755
 3469TIP3   OH231821   2.356   1.473  12.708  0.6183 -0.7657 -0.0401
 3469TIP3    H131822   2.288   1.419  12.668  0.3211 -1.1875  1.0080
 3469TIP3    H231823   2.369   1.544  12.646 -0.4186 -0.9602 -0.5035
 3470TIP3   OH231824   2.250   3.314   2.089  0.1471 -0.4772  0.3801
 3470TIP3    H131825   2.178   3.293   2.030  1.4194 -1.7569 -0.7946
 3470TIP3    H231826   2.251   3.242   2.152  1.4865 -1.4525 -0.7059
 3471TIP3   OH231827   3.256   4.357   4.249 -0.8073  0.3063 -0.0850
 3471TIP3    H131828   3.301   4.438   4.273 -1.8813  1.4678 -1.7789
 3471TIP3    H231829   3.174   4.386   4.209 -1.7306 -1.6676  0.2745
 3472TIP3   OH231830   2.001   0.662   4.436  0.0843 -0.2669  0.4951
 3472TIP3    H131831   2.071   0.727   4.422  0.1577 -0.7633 -2.0812
 3472TIP3    H231832   2.048   0.579   4.448  0.0289 -0.6555 -1.5566
 3473TIP3   OH231833   5.726   4.503  15.742  1.0980  0.2100  0.4502
 3473TIP3    H131834   5.700   4.556  15.667  0.1753 -0.4157  0.2997
 3473TIP3    H231835   5.802   4.453  15.711 -0.6862 -1.8446 -0.9647
 3474TIP3   OH231836   2.180   3.691  11.177  0.1494 -0.1657  0.0378
 3474TIP3    H131837   2.211   3.603  11.197  1.5089 -0.0155 -1.2460
 3474TIP3    H231838   2.258   3.746  11.187 -0.3990  0.7039 -0.3906
 3475TIP3   OH231839   1.143   0.836  14.584 -0.3434 -0.8748  0.1329
 3475TIP3    H131840   1.121   0.749  14.551  2.2750 -1.4422 -0.3916
 3475TIP3    H231841   1.227   0.823  14.628  0.7607  1.5969 -1.0836
 3476TIP3   OH231842   5.600   5.373  14.501 -0.9123 -0.2924  0.4044
 3476TIP3    H131843   5.551   5.395  14.421  2.3087 -1.8028 -2.2012
 3476TIP3    H231844   5.636   5.457  14.531  0.9332 -0.0965 -2.0654
 3477TIP3   OH231845   1.853   4.445   5.945 -0.2015  0.2022  0.0908
 3477TIP3    H131846   1.782   4.439   5.881 -0.3841  1.6966  0.1284
 3477TIP3    H231847   1.916   4.505   5.905  0.5425 -0.2756  0.5278
 3478TIP3   OH231848   3.556   0.251   2.404 -0.2276 -0.9827 -0.0057
 3478TIP3    H131849   3.526   0.332   2.365 -2.2324 -1.7395 -0.1375
 3478TIP3    H231850   3.575   0.194   2.330  1.7158 -0.5122  0.0702
 3479TIP3   OH231851   4.393   3.331  17.039 -0.0694 -0.2959 -0.5074
 3479TIP3    H131852   4.417   3.354  16.949  0.5817 -1.2218 -0.5798
 3479TIP3    H231853   4.298   3.328  17.039 -0.0954  0.2842 -1.0108
 3480TIP3   OH231854   1.452   0.727   3.058 -0.2177  0.0927  0.1037
 3480TIP3    H131855   1.434   0.815   3.093  2.6028  0.8582 -0.1242
 3480TIP3    H231856   1.442   0.736   2.963  0.3670  0.2730  0.0546
 3481TIP3   OH231857   2.719   3.306  16.408 -0.6144 -0.9322  0.2828
 3481TIP3    H131858   2.769   3.306  16.490  1.9486 -1.8535 -1.1901
 3481TIP3    H231859   2.659   3.232  16.416 -0.4604 -0.9555  1.3355
 3482TIP3   OH231860   4.684   3.496   0.222 -0.2051  0.5703  0.3713
 3482TIP3    H131861   4.626   3.424   0.197 -0.2853  1.1182 -1.1224
 3482TIP3    H231862   4.628   3.555   0.273 -0.2844 -0.1341  1.1070
 3483TIP3   OH231863   5.191   4.981   4.554  0.0130 -0.4309  0.3437
 3483TIP3    H131864   5.100   5.005   4.572  0.0327  0.4740 -0.6637
 3483TIP3    H231865   5.194   4.969   4.459  0.9894 -0.2415  0.3425
 3484TIP3   OH231866   6.345   2.918  15.214 -0.1145 -0.2052 -0.4202
 3484TIP3    H131867   6.439   2.930  15.200 -0.1012 -0.5400 -0.6266
 3484TIP3    H231868   6.311   2.890  15.129 -0.6415  1.2439 -0.7199
 3485TIP3   OH231869   2.510   0.956   6.334 -0.2736  0.3076  0.4101
 3485TIP3    H131870   2.563   1.028   6.300  2.3955 -0.7815  1.9571
 3485TIP3    H231871   2.521   0.885   6.270 -1.2407  0.5812 -0.0803
 3486TIP3   OH231872   5.086   0.205  14.033 -0.7192 -0.1471  0.3723
 3486TIP3    H131873   4.995   0.211  14.005 -1.2141 -0.5878  1.7788
 3486TIP3    H231874   5.081   0.186  14.127  0.8252  1.6095  0.8789
 3487TIP3   OH231875   2.662   3.347  14.271 -0.0077  0.4810  0.3426
 3487TIP3    H131876   2.720   3.271  14.281  0.2887  0.6922  0.2339
 3487TIP3    H231877   2.577   3.309  14.249  0.6155  0.2470 -1.8726
 3488TIP3   OH231878   0.435   4.464  15.125 -0.1065  0.5056 -0.0929
 3488TIP3    H131879   0.487   4.414  15.062 -0.0940 -1.5892  1.4431
 3488TIP3    H231880   0.344   4.443  15.102 -0.1237  0.3737  0.0934
 3489TIP3   OH231881   3.136   5.488  16.559 -0.4484 -0.1906 -0.8287
 3489TIP3    H131882   3.099   5.414  16.608  0.5870  0.0384  0.3581
 3489TIP3    H231883   3.195   5.449  16.496  1.1958 -0.3670  0.7512
 3490TIP3   OH231884   2.390   1.796   3.610 -0.0762 -0.1777 -0.1541
 3490TIP3    H131885   2.442   1.722   3.641  0.7478  0.3241 -0.3081
 3490TIP3    H231886   2.299   1.769   3.623  0.2057 -1.3407 -0.5022
 3491TIP3   OH231887   4.006   3.681  16.568 -0.1417 -0.3487 -0.1206
 3491TIP3    H131888   3.995   3.606  16.627 -0.9974  0.1187  0.3329
 3491TIP3    H231889   4.008   3.642  16.480  1.4847 -1.0871  0.2036
 3492TIP3   OH231890   2.640   1.442  12.434 -0.2035  0.4371  0.1224
 3492TIP3    H131891   2.639   1.505  12.506 -0.4183 -0.0816  0.5758
 3492TIP3    H231892   2.630   1.357  12.476 -1.9471  0.2393 -0.6284
 3493TIP3   OH231893   5.154   2.028  13.469 -0.4014  0.3998  0.1700
 3493TIP3    H131894   5.060   2.017  13.483 -0.0550 -0.7112  1.9805
 3493TIP3    H231895   5.186   1.941  13.444  0.4936  0.0944  2.1523
 3494TIP3   OH231896   4.156   1.331  14.000  0.6066  0.5887 -0.4477
 3494TIP3    H131897   4.206   1.347  14.080  0.9063 -0.0171 -0.5087
 3494TIP3    H231898   4.134   1.238  14.004  0.1503  0.6779 -0.8068
 3495TIP3   OH231899   3.105   1.619  14.529 -0.5020  0.6191 -0.1198
 3495TIP3    H131900   3.192   1.582  14.520 -0.4920  0.6374 -0.0993
 3495TIP3    H231901   3.111   1.705  14.487  0.0240  1.4460  1.5454
 3496TIP3   OH231902   5.885   0.599  12.019  0.4467 -0.1586  0.1741
 3496TIP3    H131903   5.975   0.574  12.000  0.7171 -0.8638  2.1579
 3496TIP3    H231904   5.841   0.517  12.039 -0.4607  0.2568 -0.0487
 3497TIP3   OH231905   3.317   2.581   2.404 -0.1644 -0.7581  0.0809
 3497TIP3    H131906   3.307   2.564   2.498  0.6572 -1.4828  0.0509
 3497TIP3    H231907   3.232   2.617   2.377  0.1369  1.1772  1.4485
 3498TIP3   OH231908   2.384   1.498   6.864 -0.6028 -0.0156  0.1415
 3498TIP3    H131909   2.439   1.554   6.809  0.1454 -0.1590  0.7245
 3498TIP3    H231910   2.445   1.434   6.902 -1.0098  0.4013  1.5563
 3499TIP3   OH231911   4.525   2.895  14.200  0.1758 -1.0852  0.4256
 3499TIP3    H131912   4.447   2.846  14.175 -0.6120 -0.3102  1.2952
 3499TIP3    H231913   4.577   2.833  14.251 -0.2074 -1.4006  0.4369
 3500TIP3   OH231914   5.195   5.526   0.880 -0.3332  0.4207  0.6494
 3500TIP3    H131915   5.158   5.475   0.953 -1.0282 -2.2492 -1.4385
 3500TIP3    H231916   5.255   5.466   0.836  0.4791  2.1351 -0.7070
 3501TIP3   OH231917   0.400   2.162  13.534 -0.1142  0.6032  0.2402
 3501TIP3    H131918   0.483   2.167  13.488  0.4064  0.9731  1.1752
 3501TIP3    H231919   0.394   2.072  13.564 -0.0557  0.5677  0.1424
 3502TIP3   OH231920   5.100   2.502  16.284 -0.5384  0.6985  0.4150
 3502TIP3    H131921   5.173   2.549  16.323  0.8618 -0.3714 -0.8041
 3502TIP3    H231922   5.116   2.507  16.189 -0.7659 -1.4935  0.2150
 3503TIP3   OH231923   0.179   6.256  12.555  0.0885  0.2320 -0.0479
 3503TIP3    H131924   0.188   6.163  12.575 -2.9748  0.2126  1.8923
 3503TIP3    H231925   0.138   6.257  12.469  1.3620 -0.1067 -0.6910
 3504TIP3   OH231926   3.985   0.406  13.328 -0.2179  0.2307 -0.0044
 3504TIP3    H131927   4.058   0.369  13.378 -0.8495  0.6400  1.2666
 3504TIP3    H231928   3.908   0.361  13.362 -0.8210  1.5242  0.4179
 3505TIP3   OH231929   1.559   2.563   1.234  0.0676 -0.5750  0.5646
 3505TIP3    H131930   1.501   2.488   1.243  0.2839 -0.6385  1.4459
 3505TIP3    H231931   1.592   2.579   1.322 -0.0596  0.6183  0.4127
 3506TIP3   OH231932   4.012   6.266   3.103 -0.3166  0.4991  0.4426
 3506TIP3    H131933   3.958   6.336   3.142 -0.9633 -1.0038  2.4064
 3506TIP3    H231934   4.044   6.217   3.178  1.4106 -0.4154 -0.8404
 3507TIP3   OH231935   2.973   5.111  16.316  1.2967 -0.3379  0.0666
 3507TIP3    H131936   2.915   5.139  16.245  0.6749 -0.5272  0.4875
 3507TIP3    H231937   3.037   5.181  16.324  0.0842  0.7247  0.7460
 3508TIP3   OH231938   5.505   5.964   1.540  0.1040  0.3417 -0.3865
 3508TIP3    H131939   5.435   5.929   1.596  0.5334  1.4316  0.8868
 3508TIP3    H231940   5.459   6.010   1.470 -0.4450 -0.6444 -0.6953
 3509TIP3   OH231941   4.120   6.331  13.681 -0.4332 -0.3150 -0.2164
 3509TIP3    H131942   4.187   6.398  13.696 -1.0218  0.9196 -2.6938
 3509TIP3    H231943   4.037   6.376  13.695 -0.8331 -0.5465 -1.6809
 3510TIP3   OH231944   6.090   4.375  15.146  0.4739  0.2923 -0.6286
 3510TIP3    H131945   6.043   4.292  15.141  1.1212 -0.1409  0.2482
 3510TIP3    H231946   6.157   4.360  15.213 -0.8329  2.2472  1.2140
 3511TIP3   OH231947   4.870   1.886  11.543  0.5155 -0.5159  0.3548
 3511TIP3    H131948   4.954   1.841  11.555 -0.1752 -2.6100 -1.9174
 3511TIP3    H231949   4.809   1.836  11.597  0.3098 -0.2930  0.3287
 3512TIP3   OH231950   2.612   3.991  14.374  0.5011 -0.3675  0.1991
 3512TIP3    H131951   2.602   4.068  14.430  1.0374  1.1439 -1.6526
 3512TIP3    H231952   2.525   3.973  14.340  0.4647 -0.2350  0.2243
 3513TIP3   OH231953   6.321   3.548   5.768 -0.3094  0.4705  0.2475
 3513TIP3    H131954   6.275   3.525   5.687  0.2815 -0.2759  0.1146
 3513TIP3    H231955   6.280   3.493   5.835  0.6791 -0.5400  0.0447
 3514TIP3   OH231956   3.123   2.575  16.865 -0.4894  0.3988 -0.0468
 3514TIP3    H131957   3.059   2.504  16.865  0.4645 -0.6489  3.4922
 3514TIP3    H231958   3.208   2.531  16.862  0.2062  1.0136  4.2983
 3515TIP3   OH231959   5.862   0.208   4.270 -0.4716  0.0587  0.0944
 3515TIP3    H131960   5.792   0.230   4.332 -0.3658 -1.9820  1.0513
 3515TIP3    H231961   5.942   0.237   4.313 -0.4704 -0.6202  0.5699
 3516TIP3   OH231962   4.383   2.026  12.512 -0.0312 -0.0306  0.7231
 3516TIP3    H131963   4.377   1.932  12.491 -1.5927  0.1507  0.2290
 3516TIP3    H231964   4.476   2.047  12.501  0.6777 -1.8849  2.5421
 3517TIP3   OH231965   0.754   4.377  16.780 -0.0970  0.3488 -0.0474
 3517TIP3    H131966   0.699   4.405  16.707 -0.3694  0.1282  0.0742
 3517TIP3    H231967   0.808   4.306  16.744  0.8328  1.2377 -0.4461
 3518TIP3   OH231968   5.532   4.210   5.334 -0.7054  0.4524 -0.2513
 3518TIP3    H131969   5.584   4.193   5.413  0.6714 -0.9460 -1.3833
 3518TIP3    H231970   5.567   4.292   5.300 -0.2011  0.2441 -0.2455
 3519TIP3   OH231971   4.634   4.273   3.225  0.7982 -0.1527 -0.1632
 3519TIP3    H131972   4.543   4.277   3.194  0.8681 -1.3450 -0.5802
 3519TIP3    H231973   4.654   4.362   3.251 -0.1535  0.3555 -1.0752
 3520TIP3   OH231974   5.271   2.943  15.846  0.6700  0.3715  0.1252
 3520TIP3    H131975   5.276   3.013  15.781  4.1619 -0.5953 -0.8412
 3520TIP3    H231976   5.343   2.961  15.906  0.6612 -1.5247  0.7690
 3521TIP3   OH231977   1.506   1.386   4.535 -0.1780 -0.5611  0.3969
 3521TIP3    H131978   1.488   1.292   4.543 -1.4488 -0.2572  1.4663
 3521TIP3    H231979   1.422   1.428   4.554 -0.1457  0.7716 -2.0754
 3522TIP3   OH231980   5.304   4.744   0.423 -0.6439  0.7914  0.3606
 3522TIP3    H131981   5.232   4.787   0.377 -0.2210  0.8399 -0.2777
 3522TIP3    H231982   5.374   4.740   0.358 -0.0598  0.7783  0.9842
 3523TIP3   OH231983   1.791   5.482  16.365 -0.3537  0.2448  0.8166
 3523TIP3    H131984   1.762   5.527  16.445 -1.4470  0.0984  0.5118
 3523TIP3    H231985   1.744   5.399  16.365 -0.5602  0.3487 -0.1078
 3524TIP3   OH231986   0.113   2.847   0.620  0.0188  0.1142 -0.1598
 3524TIP3    H131987   0.176   2.784   0.583  0.9704  0.0808  1.4320
 3524TIP3    H231988   0.165   2.901   0.680 -1.1811  1.1156  0.0230
 3525TIP3   OH231989   0.030   2.988   2.322 -0.7591 -0.0768 -0.0055
 3525TIP3    H131990  -0.047   3.045   2.322 -0.5066  0.2985  1.1634
 3525TIP3    H231991   0.034   2.954   2.411 -1.1068 -2.2436 -0.7732
 3526TIP3   OH231992   6.411   3.128  12.959  0.2938  0.2085 -0.0569
 3526TIP3    H131993   6.371   3.163  13.039  0.6875  0.0822  0.1965
 3526TIP3    H231994   6.388   3.192  12.891  1.2492  1.1284  0.4594
 3527TIP3   OH231995   6.751   5.829   1.758  0.1633  0.1686  0.4262
 3527TIP3    H131996   6.834   5.783   1.765 -0.8590 -1.5379  2.0513
 3527TIP3    H231997   6.705   5.811   1.840 -3.2397 -1.8625 -1.6628
 3528TIP3   OH231998   6.412   5.959  14.353  0.1579 -0.1252 -1.0071
 3528TIP3    H131999   6.436   6.051  14.350  2.2521 -0.6415 -1.9268
 3528TIP3    H232000   6.327   5.954  14.310  0.2006  1.3175 -1.2818
 3529TIP3   OH232001   0.774   0.870   5.682  0.2647  0.4300  0.3909
 3529TIP3    H132002   0.726   0.845   5.761 -1.3003  2.2563  0.0638
 3529TIP3    H232003   0.866   0.870   5.710 -0.0071 -1.4713  1.4815
 3530TIP3   OH232004   4.318   5.308  12.959 -0.0853 -0.6518 -0.3097
 3530TIP3    H132005   4.400   5.350  12.933 -1.0412  0.4184 -1.7957
 3530TIP3    H232006   4.331   5.215  12.942  0.9069 -0.5298 -0.2627
 3531TIP3   OH232007   2.066   1.944  17.366  0.0037 -0.1567 -0.3796
 3531TIP3    H132008   2.116   1.866  17.341 -0.6230 -0.0954 -1.9687
 3531TIP3    H232009   2.079   2.004  17.293 -4.8766 -1.3006 -2.6014
 3532TIP3   OH232010   3.220   1.374  12.175 -0.3514 -0.1431 -0.1005
 3532TIP3    H132011   3.195   1.464  12.152  2.3340  1.0415  1.2406
 3532TIP3    H232012   3.169   1.320  12.115 -2.2649  2.2303 -0.7869
 3533TIP3   OH232013   6.402   2.092   5.929  0.4492  0.2289 -0.1471
 3533TIP3    H132014   6.385   2.024   5.994  0.4084  0.2986 -0.0846
 3533TIP3    H232015   6.497   2.102   5.929  0.5136 -0.3686 -0.7090
 3534TIP3   OH232016   6.207   5.103   4.614  0.1147  0.7060  0.1783
 3534TIP3    H132017   6.212   5.019   4.568  0.0104  0.6196  0.3217
 3534TIP3    H232018   6.167   5.163   4.551  0.6426  0.7734 -0.0958
 3535TIP3   OH232019   0.946   5.238  12.933  0.5501 -0.0468  0.2539
 3535TIP3    H132020   0.917   5.329  12.927 -0.2263 -0.0345  2.8919
 3535TIP3    H232021   1.039   5.244  12.955  0.4909  0.1196  0.4683
 3536TIP3   OH232022   0.478   2.882  16.743 -0.0292 -0.0577 -0.0797
 3536TIP3    H132023   0.495   2.853  16.832  1.6161  1.7408  0.2737
 3536TIP3    H232024   0.421   2.815  16.706  1.5200 -2.3468  1.4093
 3537TIP3   OH232025   5.671   4.848   0.016 -0.5322  0.1417 -0.7949
 3537TIP3    H132026   5.764   4.826   0.018 -0.5880 -0.1253 -0.9967
 3537TIP3    H232027   5.633   4.782  -0.042 -1.2770 -1.4012  1.2936
 3538TIP3   OH232028   2.251   5.694   1.787 -0.0132 -0.0642 -0.1089
 3538TIP3    H132029   2.194   5.640   1.731 -2.7013  1.3903  1.0406
 3538TIP3    H232030   2.268   5.640   1.864 -1.3988  0.1289  0.3482
 3539TIP3   OH232031   4.083   3.179   4.140  0.1324 -0.6029 -0.0592
 3539TIP3    H132032   4.038   3.164   4.057 -0.5151 -1.0781  0.3588
 3539TIP3    H232033   4.085   3.093   4.182  0.0131 -0.2790  0.6247
 3540TIP3   OH232034   4.460   3.709  11.139 -0.6309 -0.2170  0.2388
 3540TIP3    H132035   4.511   3.690  11.061 -0.7330 -0.0333  0.1273
 3540TIP3    H232036   4.415   3.791  11.119 -1.0840 -0.4530  0.2784
 3541TIP3   OH232037   5.349   3.892   2.566  1.0644  0.2803 -0.4759
 3541TIP3    H132038   5.254   3.881   2.565  0.7662  1.8277  1.9859
 3541TIP3    H232039   5.370   3.931   2.482 -0.8164  1.9595 -0.2467
 3542TIP3   OH232040   2.881   6.417   5.413 -0.1142 -0.6951  0.2109
 3542TIP3    H132041   2.973   6.391   5.411  1.0785  2.9416 -0.8320
 3542TIP3    H232042   2.859   6.433   5.321 -0.7461  1.4764  0.6834
 3543TIP3   OH232043   0.447   1.099   1.927  0.4707 -0.4983  0.0033
 3543TIP3    H132044   0.502   1.069   1.855  0.1476  0.3210 -0.5922
 3543TIP3    H232045   0.381   1.030   1.938  1.4701 -1.3795  0.5789
 3544TIP3   OH232046   3.864   2.448   6.589  0.2375 -0.3611  0.8103
 3544TIP3    H132047   3.809   2.369   6.597 -1.5475  0.7849  0.4065
 3544TIP3    H232048   3.828   2.508   6.655 -0.1080  1.0316 -0.6094
 3545TIP3   OH232049   0.498   0.415  16.516 -0.7013 -0.4208 -0.2543
 3545TIP3    H132050   0.411   0.454  16.515  0.0681  1.5228 -2.6965
 3545TIP3    H232051   0.549   0.471  16.575 -0.7991 -0.8229  0.2174
 3546TIP3   OH232052   3.731   4.081  14.396  0.4743 -0.4256 -0.4264
 3546TIP3    H132053   3.745   4.094  14.303  0.5207  0.1108 -0.3471
 3546TIP3    H232054   3.813   4.045  14.428  0.9969  0.7864 -0.3330
 3547TIP3   OH232055   1.481   2.652  16.752  0.3154 -0.4022 -0.3150
 3547TIP3    H132056   1.483   2.585  16.684  2.3403  1.2518 -2.0397
 3547TIP3    H232057   1.537   2.619  16.821 -0.2650 -1.3025 -0.2667
 3548TIP3   OH232058   0.011   2.589   0.951  0.3203  0.0972  0.0982
 3548TIP3    H132059  -0.020   2.571   1.040 -0.6747 -0.5843 -0.3742
 3548TIP3    H232060   0.028   2.683   0.950 -1.9940  0.5638  0.3148
 3549TIP3   OH232061   4.503   1.739  15.247  0.2387  0.5011 -0.7076
 3549TIP3    H132062   4.561   1.719  15.174 -0.0419 -1.7174 -0.4179
 3549TIP3    H232063   4.487   1.833  15.241 -0.6248  0.2792 -4.1456
 3550TIP3   OH232064   5.738   3.551   2.804  0.1126 -0.4317  0.5999
 3550TIP3    H132065   5.685   3.616   2.758  1.5963 -0.3515 -1.0847
 3550TIP3    H232066   5.744   3.584   2.894 -0.0854  1.1805  0.0482
 3551TIP3   OH232067   6.700   2.943   2.065 -0.2246 -0.1823  0.3887
 3551TIP3    H132068   6.789   2.932   2.031  0.1472  2.3956  0.3523
 3551TIP3    H232069   6.711   2.943   2.160 -0.0937  0.5797  0.3811
 3552TIP3   OH232070   2.915   1.102  16.437  0.0405 -0.4851 -0.1226
 3552TIP3    H132071   2.946   1.103  16.527  1.0217 -0.6013 -0.4441
 3552TIP3    H232072   2.951   1.021  16.400 -1.4302 -1.1082 -0.2715
 3553TIP3   OH232073   1.265   4.617   4.857  0.7856  0.1261 -0.0997
 3553TIP3    H132074   1.355   4.589   4.873  0.6469  0.1089  0.6630
 3553TIP3    H232075   1.224   4.543   4.813  1.1977  0.2124 -0.6408
 3554TIP3   OH232076   3.935   0.306   4.112 -0.4165 -0.1447  0.4380
 3554TIP3    H132077   3.966   0.392   4.086  0.0846 -0.5415 -0.3037
 3554TIP3    H232078   3.996   0.245   4.072 -0.4863 -0.8370  1.3379
 3555TIP3   OH232079   2.701   2.736  14.825 -0.2423  0.5982  0.2891
 3555TIP3    H132080   2.681   2.660  14.880  1.4219  0.6814  1.0658
 3555TIP3    H232081   2.788   2.717  14.788  0.3699  2.2622  0.7877
 3556TIP3   OH232082   4.510   0.374  13.757  0.1279 -0.0284  0.2900
 3556TIP3    H132083   4.477   0.287  13.737 -1.0528  0.3890  0.3790
 3556TIP3    H232084   4.547   0.406  13.674 -2.0952  0.5377 -0.5350
 3557TIP3   OH232085   5.463   2.230  15.597  0.1544 -0.0333  0.2349
 3557TIP3    H132086   5.402   2.303  15.592 -0.1639 -0.2767  0.5189
 3557TIP3    H232087   5.511   2.233  15.514 -1.9972 -1.3753 -1.1588
 3558TIP3   OH232088   1.613   6.466   5.859  0.3479 -0.5313  0.1587
 3558TIP3    H132089   1.682   6.530   5.844 -1.5496  2.0021  1.4377
 3558TIP3    H232090   1.576   6.450   5.772  0.6889  0.3368 -0.1569
 3559TIP3   OH232091   2.469   1.541   3.623  0.2287 -0.3094 -0.0157
 3559TIP3    H132092   2.530   1.557   3.695  0.8167 -2.1055 -0.0381
 3559TIP3    H232093   2.519   1.486   3.562 -0.8089 -0.2477 -0.9566
 3560TIP3   OH232094   6.449   2.432  11.302 -0.0886  0.1668  0.1015
 3560TIP3    H132095   6.412   2.468  11.383 -1.4420  0.9940 -0.8463
 3560TIP3    H232096   6.523   2.490  11.282  0.3067 -0.0959  0.7897
 3561TIP3   OH232097   5.108   3.908  11.254  0.0517 -0.1907 -0.0675
 3561TIP3    H132098   5.143   3.987  11.213 -1.2994  1.4380  1.7473
 3561TIP3    H232099   5.062   3.863  11.183  1.7616  0.0243 -1.3857
 3562TIP3   OH232100   2.579   5.392   5.328  0.7265 -0.3796  0.8097
 3562TIP3    H132101   2.493   5.363   5.297 -0.3387  0.8404  2.4464
 3562TIP3    H232102   2.608   5.322   5.386  0.2140 -0.2267  1.2661
 3563TIP3   OH232103   2.741   0.325  14.882 -0.7157 -0.3512  0.0387
 3563TIP3    H132104   2.794   0.394  14.923 -0.6113 -0.7746  0.6247
 3563TIP3    H232105   2.652   0.343  14.912 -0.8179 -0.0007 -0.4570
 3564TIP3   OH232106   0.089   2.415  15.201 -0.3023  0.1247 -0.3204
 3564TIP3    H132107   0.046   2.446  15.281 -2.5687  1.2643 -1.8609
 3564TIP3    H232108   0.091   2.320  15.209  2.0090  0.2782  2.2266
 3565TIP3   OH232109   0.167   6.684  12.584  0.1793  0.4298  0.0369
 3565TIP3    H132110   0.212   6.607  12.619  0.6352  1.0542  0.8302
 3565TIP3    H232111   0.230   6.755  12.591 -1.0769  1.4476  1.6958
 3566TIP3   OH232112   3.223   0.713  15.865 -0.2777 -0.5186 -0.4508
 3566TIP3    H132113   3.158   0.732  15.932 -2.5328 -0.8473 -2.3902
 3566TIP3    H232114   3.250   0.798  15.832 -2.4851 -0.3294 -2.0092
 3567TIP3   OH232115   3.204   0.207  17.015  0.0314  0.4889  0.1002
 3567TIP3    H132116   3.206   0.279  16.952 -2.1736  1.9053  1.5190
 3567TIP3    H232117   3.233   0.247  17.098  1.3400 -0.9519  0.3879
 3568TIP3   OH232118   6.492   4.580   3.102 -0.1281  0.2725 -0.3965
 3568TIP3    H132119   6.436   4.622   3.168 -3.7504 -2.8581 -1.0834
 3568TIP3    H232120   6.488   4.638   3.026 -0.7164  1.1509  0.2802
 3569TIP3   OH232121   3.354   3.286  13.506  0.1398  0.3593  0.3601
 3569TIP3    H132122   3.291   3.354  13.484  0.4507  0.8240  0.8783
 3569TIP3    H232123   3.403   3.322  13.580 -0.7343 -1.0722  1.6702
 3570TIP3   OH232124   5.470   3.002  12.016  0.2710 -0.1149  0.4250
 3570TIP3    H132125   5.399   2.942  11.992  2.1188 -1.1868 -2.8287
 3570TIP3    H232126   5.452   3.082  11.966  0.3387  0.3576  1.1346
 3571TIP3   OH232127   5.493   0.585   2.475 -0.5830 -0.4542 -0.0754
 3571TIP3    H132128   5.542   0.620   2.550 -1.1129 -1.7840  0.9355
 3571TIP3    H232129   5.415   0.640   2.470 -0.8502 -0.7351  0.7624
 3572TIP3   OH232130   6.582   3.740  13.831 -0.1652  0.4430  1.0092
 3572TIP3    H132131   6.504   3.772  13.875 -0.6059 -0.0465  0.6015
 3572TIP3    H232132   6.553   3.721  13.742  0.4896  0.5340  0.7699
 3573TIP3   OH232133   3.621   2.968   2.152  0.4881 -0.2569 -0.9730
 3573TIP3    H132134   3.594   2.942   2.240 -3.0894 -0.4486 -1.9491
 3573TIP3    H232135   3.653   2.888   2.112  1.5248 -0.3053 -0.0966
 3574TIP3   OH232136   4.165   5.902   5.457 -0.1213 -0.3755  0.2592
 3574TIP3    H132137   4.232   5.950   5.408 -1.0093  2.2742  1.4261
 3574TIP3    H232138   4.191   5.811   5.451  3.3951  0.4839  0.3310
 3575TIP3   OH232139   2.794   4.919   5.293 -0.3182 -0.2378  0.0556
 3575TIP3    H132140   2.764   4.892   5.206  2.6168 -2.0198 -0.5340
 3575TIP3    H232141   2.749   4.859   5.353 -0.0078 -1.0830 -0.5401
 3576TIP3   OH232142   6.637   6.217  13.764  0.3756 -0.1144  0.4945
 3576TIP3    H132143   6.629   6.178  13.677 -0.0441  0.0218  0.4681
 3576TIP3    H232144   6.722   6.260  13.763  0.0713  0.5105 -0.1151
 3577TIP3   OH232145   4.372   2.168  11.461 -0.3453  0.0826 -0.2055
 3577TIP3    H132146   4.446   2.110  11.440 -0.4012 -0.3850  0.8379
 3577TIP3    H232147   4.409   2.233  11.522 -1.1134 -1.0878  1.5906
 3578TIP3   OH232148   5.083   0.170   2.910  0.1831 -0.1987  0.0402
 3578TIP3    H132149   5.069   0.092   2.964  0.9232 -0.1286  0.3498
 3578TIP3    H232150   4.999   0.186   2.868 -1.5046  1.6382  3.6026
 3579TIP3   OH232151   4.636   0.652   5.636  0.1804 -0.5733 -0.2212
 3579TIP3    H132152   4.583   0.573   5.647 -1.9670  0.1769 -3.5277
 3579TIP3    H232153   4.631   0.671   5.542  1.5544  2.8647  0.2486
 3580TIP3   OH232154   6.379   1.974  16.347  0.3818  0.0975 -0.4485
 3580TIP3    H132155   6.453   1.968  16.407  0.3337 -0.4132 -0.4334
 3580TIP3    H232156   6.373   2.067  16.325 -0.2589  0.4486  1.1333
 3581TIP3   OH232157   1.126   5.110   5.231 -0.1227  0.2673 -0.2641
 3581TIP3    H132158   1.184   5.054   5.283  1.3184  0.6747 -1.3771
 3581TIP3    H232159   1.085   5.168   5.295  0.4597 -0.2378  0.5926
 3582TIP3   OH232160   4.122   2.089  16.374  0.4934  0.1513  0.0299
 3582TIP3    H132161   4.084   2.137  16.300 -1.3697 -0.0844  0.7739
 3582TIP3    H232162   4.054   2.093  16.442  1.7110 -0.5856  1.3282
 3583TIP3   OH232163   6.418   6.277   3.282  0.2829  0.0071 -0.2433
 3583TIP3    H132164   6.437   6.242   3.369  0.3473 -0.2630 -0.3635
 3583TIP3    H232165   6.334   6.239   3.259 -0.0683  0.6260 -0.0163
 3584TIP3   OH232166   6.333   3.121  16.596 -0.1670 -0.2222  0.3811
 3584TIP3    H132167   6.340   3.045  16.538 -0.2152  0.0024  0.0779
 3584TIP3    H232168   6.387   3.099  16.672 -0.9030 -0.9382  0.7073
 3585TIP3   OH232169   4.149   2.211   5.612  0.6716 -0.3384  0.6808
 3585TIP3    H132170   4.189   2.167   5.537 -0.4189  0.6791 -0.5494
 3585TIP3    H232171   4.109   2.141   5.663  2.0676 -1.1254  0.7458
 3586TIP3   OH232172   2.811   1.728   0.825  0.1921 -0.3232 -0.0910
 3586TIP3    H132173   2.730   1.687   0.854  1.1385 -1.7834  0.6357
 3586TIP3    H232174   2.807   1.723   0.729 -0.5446 -0.4312 -0.0637
 3587TIP3   OH232175   1.942   5.180   4.367  0.0376 -0.2605  0.1915
 3587TIP3    H132176   1.917   5.267   4.336  0.1063 -1.0549 -2.2996
 3587TIP3    H232177   2.033   5.170   4.341  0.0997 -0.9833  0.6640
 3588TIP3   OH232178   0.467   3.615   2.019 -0.5117  0.0883 -0.0831
 3588TIP3    H132179   0.395   3.552   2.019 -1.2632  0.9117  0.6689
 3588TIP3    H232180   0.489   3.626   2.112 -0.5859  1.1185 -0.1732
 3589TIP3   OH232181   3.398   4.194   4.052  0.7545 -0.0194 -0.5053
 3589TIP3    H132182   3.320   4.233   4.091 -0.1810 -1.7770 -0.4924
 3589TIP3    H232183   3.466   4.205   4.118  0.1401  0.2928  0.0940
 3590TIP3   OH232184   0.648   6.050  11.216 -0.2690 -0.5676 -0.2176
 3590TIP3    H132185   0.647   6.130  11.164 -0.2134 -0.6217 -0.3035
 3590TIP3    H232186   0.702   5.989  11.165 -1.3316 -1.0689 -0.7812
 3591TIP3   OH232187   4.780   1.556  16.547 -0.1437 -0.2571  0.0562
 3591TIP3    H132188   4.711   1.597  16.601 -0.7282 -0.0291 -0.8379
 3591TIP3    H232189   4.776   1.463  16.570 -1.6259 -0.4686 -0.8606
 3592TIP3   OH232190   1.757   2.114   2.726 -0.0857 -0.0818  0.9944
 3592TIP3    H132191   1.801   2.199   2.727  1.0756 -0.6393  0.2835
 3592TIP3    H232192   1.680   2.127   2.671  1.9135 -0.2569 -2.1602
 3593TIP3   OH232193   0.823   2.524  16.199 -0.2739  1.0792 -0.5289
 3593TIP3    H132194   0.862   2.586  16.260  1.3087 -1.0492  0.7905
 3593TIP3    H232195   0.848   2.555  16.112 -0.1713  2.6309  0.0285
 3594TIP3   OH232196   1.513   2.517   1.659  0.0701  0.1659 -0.0167
 3594TIP3    H132197   1.541   2.489   1.746  0.6542  0.1242 -0.2181
 3594TIP3    H232198   1.593   2.519   1.606  0.1684  2.6855  0.0978
 3595TIP3   OH232199   2.524   4.370   2.642  0.4061  0.6892 -0.0321
 3595TIP3    H132200   2.503   4.340   2.730 -0.4129 -1.0951 -0.7823
 3595TIP3    H232201   2.603   4.423   2.652  0.2568  0.6254  1.7731
 3596TIP3   OH232202   5.609   1.123  15.758 -0.1136  0.7390 -0.4592
 3596TIP3    H132203   5.604   1.048  15.818  0.7214  0.9263 -0.1380
 3596TIP3    H232204   5.685   1.104  15.703  0.1201  1.3655 -0.3542
 3597TIP3   OH232205   2.601   1.701  13.192 -0.4687  0.2994 -0.3770
 3597TIP3    H132206   2.520   1.650  13.201  0.4644 -1.0257  1.2182
 3597TIP3    H232207   2.670   1.635  13.184  0.5651  1.3807 -0.6873
 3598TIP3   OH232208   0.629   3.643  14.116  0.6984  0.0731 -0.2922
 3598TIP3    H132209   0.677   3.571  14.156 -0.3989 -1.2787 -1.2766
 3598TIP3    H232210   0.538   3.627  14.139  0.5108  1.7091  0.2459
 3599TIP3   OH232211   0.890   3.088  11.756 -0.3236 -0.4074 -0.3449
 3599TIP3    H132212   0.921   3.009  11.714 -0.2735 -0.1634 -0.7730
 3599TIP3    H232213   0.854   3.141  11.685  1.1205  0.6646 -0.3320
 3600TIP3   OH232214   3.032   0.488  14.218 -0.3037 -0.0200 -0.4474
 3600TIP3    H132215   3.031   0.446  14.132  2.7380  0.0686 -0.6326
 3600TIP3    H232216   3.021   0.416  14.280  1.7937 -0.7272 -0.8430
 3601TIP3   OH232217   6.752   4.818   5.116 -0.0664  0.3606 -0.4825
 3601TIP3    H132218   6.740   4.815   5.211  0.8725 -0.5857 -0.3730
 3601TIP3    H232219   6.677   4.867   5.084 -1.7074 -1.3245  0.5311
 3602TIP3   OH232220   4.991   4.066   2.870 -0.5082 -0.0172 -0.5333
 3602TIP3    H132221   4.976   3.991   2.928 -1.4002 -0.7038 -1.6106
 3602TIP3    H232222   4.910   4.116   2.873  0.7519  2.1060  1.7569
 3603TIP3   OH232223   0.045   4.211   0.886 -0.5017 -0.1537 -0.0453
 3603TIP3    H132224   0.136   4.188   0.908 -0.4140  1.4553  1.4509
 3603TIP3    H232225  -0.008   4.166   0.952 -0.6550  0.3930  0.2017
 3604TIP3   OH232226   4.844   1.069   3.039  0.0958  0.1835  0.0426
 3604TIP3    H132227   4.923   1.106   3.000  0.4727  0.3036  0.8794
 3604TIP3    H232228   4.772   1.107   2.990  0.5139  1.1701  0.1652
 3605TIP3   OH232229   4.827   2.826   5.081 -0.3654  0.0316 -0.3483
 3605TIP3    H132230   4.831   2.855   4.990  0.9397 -0.3853 -0.4452
 3605TIP3    H232231   4.868   2.740   5.081 -1.0958 -0.3365  0.5060
 3606TIP3   OH232232   2.579   4.268  14.232 -0.1743  0.1036 -0.4923
 3606TIP3    H132233   2.606   4.311  14.312  0.2349 -0.1015 -0.5192
 3606TIP3    H232234   2.492   4.303  14.214 -0.5135 -0.2841  0.3568
 3607TIP3   OH232235   6.079   4.664   0.330 -0.0661  0.8560 -1.4945
 3607TIP3    H132236   6.104   4.752   0.356  1.3411 -0.7595  3.8255
 3607TIP3    H232237   5.989   4.654   0.360  0.3116  0.0930 -0.5393
 3608TIP3   OH232238   3.250   1.586  17.033 -0.1388  0.2415 -0.0586
 3608TIP3    H132239   3.251   1.626  17.120  0.4908 -0.7987  0.4176
 3608TIP3    H232240   3.342   1.581  17.007 -0.2811  0.0016 -0.5400
 3609TIP3   OH232241   3.750   1.358   4.954  0.3125  0.7346  0.0296
 3609TIP3    H132242   3.714   1.393   5.036 -1.3216  1.0633 -0.7900
 3609TIP3    H232243   3.781   1.271   4.977 -0.5942  0.6180  0.9110
 3610TIP3   OH232244   2.200   2.454   5.288  0.3815  0.2269 -0.2425
 3610TIP3    H132245   2.109   2.432   5.269  0.7786  0.0850 -2.1645
 3610TIP3    H232246   2.207   2.547   5.267  1.0120 -0.1004 -1.5992
 3611TIP3   OH232247   6.671   4.197  13.720  0.0364 -0.6370  0.4065
 3611TIP3    H132248   6.736   4.250  13.674 -1.1871  0.4339 -0.1968
 3611TIP3    H232249   6.693   4.107  13.699  2.4376 -0.4391  1.7873
 3612TIP3   OH232250   4.755   2.072  16.439 -0.0891  0.5415 -1.0502
 3612TIP3    H132251   4.718   2.008  16.499  0.1189  0.7587 -0.6843
 3612TIP3    H232252   4.738   2.157  16.481  0.2204  0.6832 -1.2056
 3613TIP3   OH232253   0.026   2.174   1.466  1.4407  0.3907 -0.3960
 3613TIP3    H132254   0.053   2.265   1.453  2.9741 -0.2192 -1.8119
 3613TIP3    H232255   0.096   2.136   1.519  0.2978  0.2531  1.0735
 3614TIP3   OH232256   5.186   2.698   1.120  0.4907 -0.4687 -0.0733
 3614TIP3    H132257   5.211   2.659   1.203 -0.5562 -1.2157 -0.0878
 3614TIP3    H232258   5.208   2.632   1.054  1.5101  0.2008 -0.4252
 3615TIP3   OH232259   6.635   4.882   2.465  0.0727  0.0994 -0.6930
 3615TIP3    H132260   6.636   4.824   2.388 -0.5928 -0.0855 -0.5649
 3615TIP3    H232261   6.728   4.897   2.484  0.2960 -1.9569  0.0407
 3616TIP3   OH232262   0.281   1.135   0.423  0.3107 -0.2248 -0.1227
 3616TIP3    H132263   0.233   1.090   0.354  0.3886 -2.5523  1.2538
 3616TIP3    H232264   0.372   1.109   0.409  1.4543  4.1317 -2.7077
 3617TIP3   OH232265   5.115   3.526  13.316  0.3197 -0.0143  0.2377
 3617TIP3    H132266   5.064   3.605  13.302  2.0679  1.3316  1.0190
 3617TIP3    H232267   5.051   3.455  13.316 -1.2092  1.2733 -1.3351
 3618TIP3   OH232268   5.972   3.984  11.625 -0.2670  0.2825  0.2225
 3618TIP3    H132269   6.022   3.909  11.592 -0.4134 -0.0815  0.8044
 3618TIP3    H232270   5.915   4.009  11.553  0.3422  0.3273 -0.2471
 3619TIP3   OH232271   1.194   5.585   2.779 -0.2452 -0.1704  0.4510
 3619TIP3    H132272   1.181   5.635   2.860 -2.8364 -0.7878  0.4939
 3619TIP3    H232273   1.175   5.494   2.803 -0.4279 -0.4546 -0.6930
 3620TIP3   OH232274   1.707   1.706  13.654 -0.2082  0.5781  0.4804
 3620TIP3    H132275   1.678   1.797  13.668 -1.7071 -0.0147  1.4527
 3620TIP3    H232276   1.645   1.653  13.704  1.4122 -0.9258  0.9883
 3621TIP3   OH232277   3.874   6.489  13.467 -0.8713 -0.6129 -0.1874
 3621TIP3    H132278   3.880   6.493  13.563 -2.9178 -1.2549  0.0199
 3621TIP3    H232279   3.790   6.530  13.447 -0.1290  0.1971 -1.8015
 3622TIP3   OH232280   2.266   2.707   4.650 -0.2274  0.0875  0.0731
 3622TIP3    H132281   2.204   2.777   4.670  0.0428  0.5583 -0.6873
 3622TIP3    H232282   2.346   2.753   4.624  0.2608 -0.5107  0.4937
 3623TIP3   OH232283   1.997   3.069  11.932 -0.2351 -0.1666 -0.3188
 3623TIP3    H132284   1.972   3.150  11.888 -2.3061 -0.0342  0.9408
 3623TIP3    H232285   1.951   3.073  12.016 -0.0952 -2.4950 -0.0735
 3624TIP3   OH232286   1.423   4.834   0.734  0.5456 -0.1851 -0.1145
 3624TIP3    H132287   1.505   4.865   0.694  2.0271 -0.7700  2.2717
 3624TIP3    H232288   1.430   4.738   0.730 -0.1862 -0.2358 -0.2074
 3625TIP3   OH232289   3.396   2.634  12.388  0.3084 -0.0011  0.0311
 3625TIP3    H132290   3.307   2.641  12.354  0.4504 -0.8882 -0.5583
 3625TIP3    H232291   3.386   2.640  12.483 -0.4907 -0.9647  0.0256
 3626TIP3   OH232292   0.786   6.446  11.226 -0.0470 -0.3105 -0.2456
 3626TIP3    H132293   0.730   6.434  11.149 -1.2843  1.9562  0.1982
 3626TIP3    H232294   0.850   6.511  11.197  0.2001 -0.3157  0.2926
 3627TIP3   OH232295   3.562   5.354  11.108  0.3131  0.0561 -0.2822
 3627TIP3    H132296   3.543   5.286  11.043 -0.4067  0.2764 -0.3152
 3627TIP3    H232297   3.652   5.379  11.091  0.6890 -1.0909 -0.0822
 3628TIP3   OH232298   1.332   1.664   0.740 -0.5549  0.0224 -0.1348
 3628TIP3    H132299   1.400   1.622   0.686  0.7307  0.0655  1.3658
 3628TIP3    H232300   1.274   1.592   0.765  1.5917 -1.0057  2.3683
 3629TIP3   OH232301   0.955   1.946  16.543  0.3381 -0.0079  0.0887
 3629TIP3    H132302   0.966   1.851  16.549 -0.3742 -0.1680 -0.9002
 3629TIP3    H232303   0.879   1.958  16.486  1.1699  1.1779 -0.8197
 3630TIP3   OH232304   4.109   0.410  14.678 -0.1283 -0.4735 -0.2246
 3630TIP3    H132305   4.190   0.435  14.633 -0.5943 -0.5329 -1.1141
 3630TIP3    H232306   4.139   0.372  14.761  0.6641  1.2869  0.3390
 3631TIP3   OH232307   5.088   3.994  14.584  0.3439  0.2607 -0.1307
 3631TIP3    H132308   5.109   3.966  14.673  0.4836 -0.3036 -0.3373
 3631TIP3    H232309   5.121   4.084  14.578 -0.2781  0.5408  0.6025
 3632TIP3   OH232310   3.872   4.753   4.652  0.6078 -0.4299 -0.1922
 3632TIP3    H132311   3.828   4.830   4.615  1.6435  0.6364  0.7065
 3632TIP3    H232312   3.855   4.683   4.589 -1.1329  0.2899 -0.5860
 3633TIP3   OH232313   3.988   3.442  15.812 -0.0704 -0.0915 -0.4970
 3633TIP3    H132314   4.083   3.438  15.826  0.3098 -0.7663 -2.9161
 3633TIP3    H232315   3.977   3.497  15.735 -1.7184  0.3708  0.0151
 3634TIP3   OH232316   0.179   3.041   3.789  0.3671 -0.7422  0.0181
 3634TIP3    H132317   0.171   3.006   3.878  0.4665 -0.6186  0.0761
 3634TIP3    H232318   0.127   2.982   3.736  1.2766 -1.5289 -0.0337
 3635TIP3   OH232319   6.497   2.557   5.487 -0.0573  0.1040 -0.1925
 3635TIP3    H132320   6.564   2.525   5.547 -0.0025 -0.8583 -0.7541
 3635TIP3    H232321   6.545   2.593   5.413 -0.1401 -0.9120 -0.7621
 3636TIP3   OH232322   1.450   6.170  17.223  0.3772  0.1441  0.4278
 3636TIP3    H132323   1.450   6.260  17.256 -1.0383  0.1774  0.3992
 3636TIP3    H232324   1.410   6.176  17.136 -1.8099 -0.7763  1.3000
 3637TIP3   OH232325   5.222   5.235  16.694  0.8040  0.3918  0.0945
 3637TIP3    H132326   5.193   5.224  16.784 -0.7719  0.8899 -0.3196
 3637TIP3    H232327   5.214   5.329  16.678  2.2184  0.4742 -0.2085
 3638TIP3   OH232328   5.743   2.613   3.044  0.8310  0.0976  0.2626
 3638TIP3    H132329   5.713   2.567   3.123 -2.8120 -0.8757 -1.4546
 3638TIP3    H232330   5.672   2.674   3.023  2.9071  2.2703 -0.8502
 3639TIP3   OH232331   2.741   4.953  12.502  0.4139 -0.2436 -0.1390
 3639TIP3    H132332   2.710   4.888  12.566 -0.4117  1.6665  1.5014
 3639TIP3    H232333   2.828   4.922  12.478  0.3309 -1.6029  1.1260
 3640TIP3   OH232334   1.723   0.335   0.511 -0.1255 -0.3859  0.3589
 3640TIP3    H132335   1.717   0.419   0.557  0.7947 -0.4248  0.5830
 3640TIP3    H232336   1.654   0.338   0.446  1.5385  1.7092 -1.4645
 3641TIP3   OH232337   1.172   2.421  12.259 -0.3669 -0.0947  0.0575
 3641TIP3    H132338   1.147   2.500  12.306 -0.3046  0.6816 -1.1677
 3641TIP3    H232339   1.107   2.412  12.189  1.4064  0.7228 -1.8127
 3642TIP3   OH232340   1.109   4.735  14.397  0.2517  0.8514 -0.0043
 3642TIP3    H132341   1.092   4.760  14.306 -0.3719 -0.6083 -0.3208
 3642TIP3    H232342   1.128   4.641  14.393  1.3014  0.9768  1.2543
 3643TIP3   OH232343   2.718   4.954  14.739 -0.1505 -0.3879  0.5137
 3643TIP3    H132344   2.704   5.046  14.716  0.4514 -0.0129  1.6253
 3643TIP3    H232345   2.795   4.928  14.689 -0.2707 -0.2762  0.2659
 3644TIP3   OH232346   1.193   5.057  11.393  0.1993  0.7021  0.0244
 3644TIP3    H132347   1.193   5.087  11.302  0.6792  2.2891  0.5097
 3644TIP3    H232348   1.102   5.065  11.422  0.5817  3.6419  0.6949
 3645TIP3   OH232349   2.819   2.799  13.586 -0.0586  0.1732  0.0973
 3645TIP3    H132350   2.827   2.705  13.573  0.0971  0.5592 -3.9324
 3645TIP3    H232351   2.725   2.815  13.590 -0.0971 -0.1172  0.3580
 3646TIP3   OH232352   0.381   2.015   0.607  0.8892 -0.2022 -0.2524
 3646TIP3    H132353   0.349   2.105   0.604  1.5438  0.0071 -1.9330
 3646TIP3    H232354   0.411   2.003   0.698 -2.4187  0.0689  0.9984
 3647TIP3   OH232355   5.280   2.451   0.917  0.0037 -0.2321 -0.3261
 3647TIP3    H132356   5.306   2.411   1.000 -0.3045 -1.1564 -0.6637
 3647TIP3    H232357   5.331   2.531   0.911  0.0742 -0.1918  0.7289
 3648TIP3   OH232358   0.642   0.134   4.437 -0.3801  0.2504  0.6978
 3648TIP3    H132359   0.611   0.048   4.409 -1.2672  0.5449  0.7751
 3648TIP3    H232360   0.660   0.124   4.531  1.3146 -0.3574  0.3582
 3649TIP3   OH232361   4.558   0.778   0.222  0.4371  0.1391 -0.1778
 3649TIP3    H132362   4.534   0.688   0.243  0.3446  0.0263 -0.7473
 3649TIP3    H232363   4.485   0.831   0.254 -0.6363 -0.2023 -1.9291
 3650TIP3   OH232364   2.081   3.101  15.183  0.0576  0.3093  0.7100
 3650TIP3    H132365   2.066   3.102  15.277  1.4003  2.5431  0.9762
 3650TIP3    H232366   2.002   3.062  15.147 -2.1689  2.6920  2.5727
 3651TIP3   OH232367   4.808   2.669   0.795 -0.1474  0.6925  0.1533
 3651TIP3    H132368   4.732   2.713   0.757 -0.2636 -0.0409 -0.4686
 3651TIP3    H232369   4.799   2.684   0.889 -0.9399  0.8020  0.0661
 3652TIP3   OH232370   3.345   4.228  13.569  0.1544 -0.3582  0.8634
 3652TIP3    H132371   3.399   4.282  13.626  0.4279 -0.0162  0.2893
 3652TIP3    H232372   3.278   4.191  13.627  0.2753  0.1821  1.3508
 3653TIP3   OH232373   0.112   0.808   3.480 -0.3521  0.2287 -0.1451
 3653TIP3    H132374   0.041   0.863   3.512  0.5469  1.3261  0.0154
 3653TIP3    H232375   0.102   0.809   3.385 -2.4831 -2.3072 -0.0523
 3654TIP3   OH232376   3.841   4.169   5.616 -0.0301 -0.1550 -0.4024
 3654TIP3    H132377   3.774   4.237   5.614 -0.0439 -0.1760 -1.6268
 3654TIP3    H232378   3.919   4.212   5.582  1.0920  0.3327  2.4776
 3655TIP3   OH232379   1.128   1.665   6.199 -0.0286 -0.4651  0.2237
 3655TIP3    H132380   1.191   1.621   6.257 -0.2524 -0.5084  0.4343
 3655TIP3    H232381   1.083   1.727   6.256 -0.7077 -0.9680  0.2410
 3656TIP3   OH232382   1.248   4.823   6.057  0.1873  0.4285 -0.0218
 3656TIP3    H132383   1.165   4.836   6.103 -1.0152 -0.9798 -1.6483
 3656TIP3    H232384   1.271   4.732   6.074  0.2206  0.1699 -1.3175
 3657TIP3   OH232385   0.956   3.769   3.806 -0.5026  0.2776 -0.5023
 3657TIP3    H132386   0.971   3.764   3.712 -0.1864 -0.3569 -0.4270
 3657TIP3    H232387   0.863   3.747   3.816 -0.6276  0.7075 -0.6897
 3658TIP3   OH232388   2.860   5.865   4.562  0.0926  0.1811  0.5053
 3658TIP3    H132389   2.859   5.870   4.658  0.3824  2.0027  0.4577
 3658TIP3    H232390   2.767   5.862   4.538  0.0029  0.1996  0.8387
 3659TIP3   OH232391   4.344   6.316   2.809 -0.3091 -0.3713 -0.0567
 3659TIP3    H132392   4.435   6.316   2.780 -0.5310 -0.6943 -0.7795
 3659TIP3    H232393   4.341   6.379   2.881  0.8320 -1.5478  1.0794
 3660TIP3   OH232394   6.233   3.819   1.297 -0.2138  0.2894 -0.2032
 3660TIP3    H132395   6.231   3.729   1.329 -0.6251  0.5086  0.4157
 3660TIP3    H232396   6.224   3.873   1.376 -0.4883  0.8589 -0.6146
 3661TIP3   OH232397   0.777   4.672  12.429 -0.9384 -0.2930  0.0505
 3661TIP3    H132398   0.866   4.697  12.406 -0.1367 -2.6613  0.2842
 3661TIP3    H232399   0.785   4.626  12.512 -2.2034 -1.5035 -0.4442
 3662TIP3   OH232400   0.179   0.354   4.410  0.1390  0.1123 -0.0950
 3662TIP3    H132401   0.153   0.263   4.425  0.6282 -0.2334 -1.1634
 3662TIP3    H232402   0.273   0.355   4.428 -0.2585  0.9635  2.1593
 3663TIP3   OH232403   1.093   5.950   1.447 -0.2160 -0.5420 -0.2341
 3663TIP3    H132404   1.085   6.045   1.445 -1.4253 -0.6305 -1.4113
 3663TIP3    H232405   1.032   5.922   1.516 -0.4374 -0.5043 -0.4142
 3664TIP3   OH232406   1.375   0.813  11.710 -0.6185 -0.5302 -0.3608
 3664TIP3    H132407   1.363   0.908  11.712 -2.0309 -0.6870 -0.0465
 3664TIP3    H232408   1.438   0.798  11.639 -0.6093  0.6181 -0.6138
 3665TIP3   OH232409   5.089   6.051   0.570  0.4081 -0.0578 -0.6127
 3665TIP3    H132410   4.999   6.024   0.553 -0.5539  1.3653  1.7845
 3665TIP3    H232411   5.108   6.017   0.657  1.6241  1.0184 -0.4339
 3666TIP3   OH232412   5.411   5.504   4.911  0.0785 -0.0869  0.2532
 3666TIP3    H132413   5.359   5.552   4.846  0.2405  1.3145  1.0963
 3666TIP3    H232414   5.358   5.509   4.991  2.3773  3.5467  1.8339
 3667TIP3   OH232415   1.826   1.452  16.649  0.7550  0.0748 -0.1748
 3667TIP3    H132416   1.833   1.365  16.689  1.4096 -0.4173 -1.3081
 3667TIP3    H232417   1.917   1.481  16.640  0.5415  0.8607  0.1270
 3668TIP3   OH232418   2.730   4.672   4.259 -0.0071  0.1739 -0.5314
 3668TIP3    H132419   2.704   4.670   4.351 -1.5449  1.0183 -0.9084
 3668TIP3    H232420   2.778   4.754   4.249  2.5170 -1.1269  0.0400
 3669TIP3   OH232421   5.478   6.642  14.369 -0.3346 -0.2152  0.0319
 3669TIP3    H132422   5.541   6.697  14.415 -0.3645 -1.0148  1.0689
 3669TIP3    H232423   5.458   6.690  14.288 -0.0276  1.0667  0.6910
 3670TIP3   OH232424   2.623   6.572   4.954 -0.5361 -0.4396  0.1265
 3670TIP3    H132425   2.695   6.522   4.914 -1.2967 -0.4792 -1.2247
 3670TIP3    H232426   2.561   6.587   4.883 -0.4575  2.2596  0.5447
 3671TIP3   OH232427   1.130   1.627   1.033 -0.1102 -0.5756  0.2172
 3671TIP3    H132428   1.052   1.679   1.013  0.4121 -0.2544 -1.0893
 3671TIP3    H232429   1.164   1.665   1.114 -0.5469  0.1824  0.0545
 3672TIP3   OH232430   4.711   1.086   4.014 -0.7846 -0.0055 -0.5367
 3672TIP3    H132431   4.710   0.999   4.053  0.8157  0.1154 -0.1754
 3672TIP3    H232432   4.803   1.111   4.013 -1.3516  2.4210  0.9905
 3673TIP3   OH232433   3.749   1.436  14.722  0.7408 -0.3024  0.3022
 3673TIP3    H132434   3.740   1.349  14.762 -1.3870 -0.2761 -0.0474
 3673TIP3    H232435   3.774   1.418  14.631 -0.6000 -0.6035 -0.0202
 3674TIP3   OH232436   6.699   2.597   6.297  0.1373 -0.1299 -0.0236
 3674TIP3    H132437   6.782   2.582   6.342  0.2801 -0.7982 -0.4856
 3674TIP3    H232438   6.680   2.514   6.253 -1.5097 -0.4788  1.2248
 3675TIP3   OH232439   2.145   6.403  14.979  0.1496 -0.3214  0.5584
 3675TIP3    H132440   2.210   6.431  15.044  0.8686  0.7290 -0.5589
 3675TIP3    H232441   2.061   6.409  15.025  0.5111  1.6240  1.0450
 3676TIP3   OH232442   5.835   3.612   4.973  0.8855 -0.1122 -0.1486
 3676TIP3    H132443   5.801   3.671   5.041  1.4814  0.8564 -0.6814
 3676TIP3    H232444   5.924   3.641   4.959  1.2413 -1.2472 -0.3293
 3677TIP3   OH232445   3.347   5.123  13.532 -0.8512 -0.3662 -0.0873
 3677TIP3    H132446   3.385   5.043  13.568  1.3396  1.1549  1.2432
 3677TIP3    H232447   3.257   5.124  13.563 -1.3110 -2.8450 -1.1454
 3678TIP3   OH232448   1.657   2.526   0.044 -0.0813 -0.1947 -0.3202
 3678TIP3    H132449   1.640   2.524   0.139 -0.9837 -0.4264 -0.4726
 3678TIP3    H232450   1.696   2.440   0.026 -0.1714 -0.2613 -0.2040
 3679TIP3   OH232451   6.408   2.470   6.466 -0.4808 -0.3235  0.1093
 3679TIP3    H132452   6.414   2.477   6.561  0.8595  0.4831 -0.0081
 3679TIP3    H232453   6.427   2.378   6.448 -2.4300 -0.8844  0.6981
 3680TIP3   OH232454   6.388   4.878  16.052  0.0912  0.6122 -0.6548
 3680TIP3    H132455   6.302   4.857  16.089  0.1923 -1.2576 -1.3477
 3680TIP3    H232456   6.436   4.919  16.124  0.4631 -3.3470  1.6703
 3681TIP3   OH232457   2.482   1.940  11.415 -0.5865 -0.1623 -0.4736
 3681TIP3    H132458   2.484   1.971  11.324 -0.1147 -1.3107 -0.8709
 3681TIP3    H232459   2.500   1.846  11.409 -1.6156 -0.4734  0.7172
 3682TIP3   OH232460   2.525   0.812   3.840  0.2934 -0.3949 -0.3386
 3682TIP3    H132461   2.518   0.849   3.752 -1.6156  0.7907  0.2402
 3682TIP3    H232462   2.570   0.728   3.828  0.4629 -0.0581 -2.3604
 3683TIP3   OH232463   5.012   5.581  15.359 -0.1628  0.3766 -0.0574
 3683TIP3    H132464   4.990   5.673  15.376  1.2583  0.1629  3.8635
 3683TIP3    H232465   5.088   5.564  15.415  1.0884 -2.6417 -2.4051
 3684TIP3   OH232466   5.358   4.060  13.932  0.4675  0.3349  0.0775
 3684TIP3    H132467   5.452   4.072  13.923  0.3188  0.8887 -0.9742
 3684TIP3    H232468   5.333   4.113  14.008  1.2382 -1.2318  1.4820
 3685TIP3   OH232469   1.681   6.610  16.048 -1.1373  0.1805 -0.3026
 3685TIP3    H132470   1.670   6.645  15.960 -1.1109  1.9838  0.3660
 3685TIP3    H232471   1.705   6.518  16.035 -0.3452  0.6161 -2.1905
 3686TIP3   OH232472   3.798   2.570   3.165 -0.2496 -0.5687  0.5321
 3686TIP3    H132473   3.814   2.528   3.249  1.8960 -0.0309  0.4663
 3686TIP3    H232474   3.863   2.532   3.106 -1.7865 -1.0188 -0.9520
 3687TIP3   OH232475   1.964   4.171  17.037 -0.5920  0.2336 -0.1129
 3687TIP3    H132476   1.962   4.106  16.967 -1.1960 -1.6700  1.5879
 3687TIP3    H232477   2.056   4.199  17.041 -0.5503  0.4131 -1.6319
 3688TIP3   OH232478   4.319   5.461  17.010  0.7391 -0.3301 -0.0114
 3688TIP3    H132479   4.345   5.546  17.046  0.7572 -0.7611  1.0234
 3688TIP3    H232480   4.348   5.397  17.075 -3.4384 -0.8233  1.6972
 3689TIP3   OH232481   6.108   1.031  12.079  0.0504 -0.8235 -0.3353
 3689TIP3    H132482   6.145   1.055  11.994  0.2790  0.1931  0.0355
 3689TIP3    H232483   6.146   0.945  12.098  2.2265  0.1368  0.0027
 3690TIP3   OH232484   0.522   0.671   1.137 -0.1089  0.0520 -0.4202
 3690TIP3    H132485   0.563   0.623   1.066 -0.4743 -0.1048 -0.5252
 3690TIP3    H232486   0.595   0.700   1.192  0.1351 -0.2874 -0.5668
 3691TIP3   OH232487   6.343   6.542   6.466  0.1840  0.6470  0.5295
 3691TIP3    H132488   6.251   6.531   6.490 -0.2678  2.9538  0.1506
 3691TIP3    H232489   6.390   6.478   6.518 -1.6792 -0.9445  0.3409
 3692TIP3   OH232490   6.209   2.582  15.090  0.4404  0.4693 -0.3369
 3692TIP3    H132491   6.293   2.623  15.070  0.1889  1.2824  0.2279
 3692TIP3    H232492   6.190   2.609  15.179  0.5455 -1.3988  0.2920
 3693TIP3   OH232493   5.649   3.259   0.149  0.5409 -0.2899 -0.2725
 3693TIP3    H132494   5.719   3.318   0.121  1.1700 -1.2945 -0.8691
 3693TIP3    H232495   5.651   3.188   0.085 -0.7864 -0.5167 -0.0704
 3694TIP3   OH232496   5.741   1.128  16.361  0.0039 -0.5597 -0.0082
 3694TIP3    H132497   5.664   1.185  16.364 -0.5006 -1.2561  0.4993
 3694TIP3    H232498   5.705   1.039  16.365  0.7068 -0.9791 -1.8731
 3695TIP3   OH232499   5.904   2.820   4.482  0.5131 -0.1098 -0.0311
 3695TIP3    H132500   5.973   2.764   4.518 -0.0457  0.8157  2.6939
 3695TIP3    H232501   5.848   2.842   4.557 -0.3148  2.6412 -1.3045
 3696TIP3   OH232502   3.612   5.020  15.380  0.2161 -0.0398 -0.1893
 3696TIP3    H132503   3.692   4.983  15.343 -0.3492 -2.3912  0.7279
 3696TIP3    H232504   3.642   5.092  15.435  1.4791  0.4526 -1.4718
 3697TIP3   OH232505   4.498   3.159   2.834  0.4729 -0.1052  0.3682
 3697TIP3    H132506   4.499   3.122   2.922 -1.1613  1.4532  1.1133
 3697TIP3    H232507   4.406   3.151   2.807  0.0547  3.0681  0.5101
 3698TIP3   OH232508   3.710   2.041  12.331 -0.0628 -0.2246  0.5642
 3698TIP3    H132509   3.753   2.032  12.416 -0.0642  0.7235  0.6786
 3698TIP3    H232510   3.773   2.003  12.269 -0.0234 -0.8375  0.9668
 3699TIP3   OH232511   0.239   5.391  12.224 -0.0844  0.7078  0.2933
 3699TIP3    H132512   0.303   5.436  12.169  2.4581  0.6251  2.9533
 3699TIP3    H232513   0.177   5.458  12.249  1.8602  2.1320  1.6419
 3700TIP3   OH232514   1.893   3.840   4.479  0.1518 -0.4004  0.2210
 3700TIP3    H132515   1.890   3.796   4.564 -1.3965 -1.1992 -0.2134
 3700TIP3    H232516   1.837   3.787   4.423  0.2120  0.7730 -0.9885
 3701TIP3   OH232517   5.030   6.196   5.552  0.1677  0.1340 -0.2032
 3701TIP3    H132518   4.936   6.212   5.557  0.1917  0.1390  0.3277
 3701TIP3    H232519   5.040   6.128   5.486 -0.0770  1.1468 -1.3027
 3702TIP3   OH232520   4.137   2.651   3.742  0.2703  0.0514  0.0774
 3702TIP3    H132521   4.193   2.621   3.671  0.8119 -0.5155  0.7233
 3702TIP3    H232522   4.164   2.597   3.817 -0.2926  0.6305  0.7025
 3703TIP3   OH232523   6.111   6.022  12.540  0.3553 -0.0879  0.2281
 3703TIP3    H132524   6.057   6.060  12.609 -0.3727  0.5857 -0.6996
 3703TIP3    H232525   6.050   5.975  12.484  1.0890 -1.6338  0.6651
 3704TIP3   OH232526   3.325   0.375   3.259 -0.2160 -0.5788  0.6771
 3704TIP3    H132527   3.329   0.302   3.320  0.0232 -0.9153  0.2641
 3704TIP3    H232528   3.416   0.405   3.251 -0.3251 -0.1817  0.9112
 3705TIP3   OH232529   2.649   2.281   1.989 -0.5118  1.0031  0.4286
 3705TIP3    H132530   2.606   2.196   1.995 -0.0668  0.6939 -0.5110
 3705TIP3    H232531   2.729   2.271   2.041 -0.7173  1.0177  0.7480
 3706TIP3   OH232532   0.055   3.445   5.304 -0.4357  0.6745 -0.5747
 3706TIP3    H132533   0.079   3.517   5.246  4.8952 -0.0119  0.3075
 3706TIP3    H232534   0.074   3.366   5.254 -0.9025 -0.0132  0.3143
 3707TIP3   OH232535   2.141   5.759  15.510 -0.6030  0.0541 -0.4828
 3707TIP3    H132536   2.158   5.790  15.598 -2.7493  0.4865 -0.1478
 3707TIP3    H232537   2.221   5.777  15.461 -0.0641  1.5919  0.9027
 3708TIP3   OH232538   2.238   1.683   1.013  0.2025  0.0387  0.5778
 3708TIP3    H132539   2.256   1.616   0.946  0.8359  0.4254  0.3613
 3708TIP3    H232540   2.304   1.750   0.999 -1.1098  1.2826  0.0500
 3709TIP3   OH232541   1.791   4.106  14.249 -0.4511  0.4842  0.0555
 3709TIP3    H132542   1.849   4.043  14.289  0.7920  0.5401 -1.5426
 3709TIP3    H232543   1.732   4.054  14.195  0.3771  0.6202 -1.0213
 3710TIP3   OH232544   4.479   3.858  16.537 -0.3773  0.1538  0.0796
 3710TIP3    H132545   4.503   3.765  16.539  1.8759  0.5952 -1.7543
 3710TIP3    H232546   4.509   3.892  16.621 -1.4652 -0.7833  0.8848
 3711TIP3   OH232547   2.049   3.723  12.576  0.0957  0.5399 -0.2858
 3711TIP3    H132548   2.017   3.657  12.637  1.9208  1.0080  1.2405
 3711TIP3    H232549   2.077   3.673  12.499  3.0779 -0.7954  1.4930
 3712TIP3   OH232550   2.229   2.364   4.116 -0.1363 -0.2149 -0.2529
 3712TIP3    H132551   2.276   2.311   4.181  2.1170 -0.2243 -1.7842
 3712TIP3    H232552   2.216   2.448   4.159 -0.9507 -0.9788  1.0793
 3713TIP3   OH232553   0.467   1.269   1.116  0.6366  0.3700  0.0733
 3713TIP3    H132554   0.457   1.309   1.203 -0.3957  0.3801 -0.0384
 3713TIP3    H232555   0.422   1.185   1.123  0.4377  0.4281 -0.4821
 3714TIP3   OH232556   2.148   5.981   5.919  0.5071 -0.1790 -0.4390
 3714TIP3    H132557   2.192   6.061   5.889 -0.3944  0.5316  0.0548
 3714TIP3    H232558   2.202   5.909   5.886 -0.2865  0.5187 -3.5323
 3715TIP3   OH232559   3.956   3.183   6.575  0.3792 -0.4975 -0.1711
 3715TIP3    H132560   3.986   3.104   6.620  2.2599  0.0063 -0.4335
 3715TIP3    H232561   4.013   3.253   6.608 -1.4606  0.8584  0.3229
 3716TIP3   OH232562   0.129   2.803  15.293 -0.2746 -0.9110  0.2336
 3716TIP3    H132563   0.090   2.782  15.378  0.3942  1.0944  1.1007
 3716TIP3    H232564   0.091   2.888  15.269 -0.2702 -1.3348 -1.3727
 3717TIP3   OH232565   6.000   0.639  14.689  0.2655  0.1273 -0.6544
 3717TIP3    H132566   5.909   0.626  14.717 -0.2103  0.9614 -1.7726
 3717TIP3    H232567   5.997   0.630  14.594  0.8483  2.7958 -0.9826
 3718TIP3   OH232568   5.829   4.395  13.220 -0.6332  0.4856 -0.3941
 3718TIP3    H132569   5.874   4.426  13.142 -2.1416  1.1854 -1.0337
 3718TIP3    H232570   5.765   4.333  13.187  0.4098 -1.1704  0.5866
 3719TIP3   OH232571   0.764   0.962   3.005  0.0445 -0.0719 -0.1992
 3719TIP3    H132572   0.702   0.906   3.052 -0.5399 -0.2462 -1.1483
 3719TIP3    H232573   0.794   0.909   2.932 -0.1189  0.6642 -0.8171
 3720TIP3   OH232574   6.509   5.849  13.733 -0.7437 -0.2365 -0.0111
 3720TIP3    H132575   6.470   5.934  13.755 -2.1042 -1.1930  1.4122
 3720TIP3    H232576   6.489   5.837  13.640 -3.5699 -0.4968  0.5551
 3721TIP3   OH232577   6.624   2.630  14.216  0.0934  0.0568  0.2058
 3721TIP3    H132578   6.684   2.657  14.146 -1.3018 -0.0340 -1.0603
 3721TIP3    H232579   6.588   2.712  14.249 -0.6491  0.0247 -0.4837
 3722TIP3   OH232580   5.667   5.077  13.147  0.3896  0.2030  0.2137
 3722TIP3    H132581   5.657   5.137  13.220  0.6489  1.8219 -1.0272
 3722TIP3    H232582   5.761   5.073  13.132  0.5086 -1.6208  1.1134
 3723TIP3   OH232583   4.161   1.575  12.346  0.4073  0.5132 -0.5607
 3723TIP3    H132584   4.211   1.587  12.427  1.3187 -1.3684 -0.7769
 3723TIP3    H232585   4.072   1.558  12.374  0.8166 -0.6243  0.0996
 3724TIP3   OH232586   5.321   0.601   3.859 -0.2785  0.2493  0.6736
 3724TIP3    H132587   5.403   0.554   3.871 -0.2260  0.1666  0.0164
 3724TIP3    H232588   5.340   0.690   3.889  0.5140  0.6401 -0.8866
 3725TIP3   OH232589   3.447   2.315   5.048 -0.1632 -0.4994  0.3617
 3725TIP3    H132590   3.449   2.410   5.050  0.1392 -0.3929 -2.0381
 3725TIP3    H232591   3.415   2.289   5.135  1.3966  1.6989  1.6782
 3726TIP3   OH232592   0.898   1.890   3.931 -0.2496 -0.5651 -0.5252
 3726TIP3    H132593   0.876   1.980   3.954 -2.1558 -0.7391 -1.5224
 3726TIP3    H232594   0.969   1.897   3.867  1.5701  0.0799  1.4513
 3727TIP3   OH232595   1.389   1.067   6.071  0.5261  0.0022 -0.4965
 3727TIP3    H132596   1.365   1.053   6.163  3.1720  0.6378  0.3724
 3727TIP3    H232597   1.413   1.159   6.067  2.5415 -0.5239 -1.2683
 3728TIP3   OH232598   0.019   5.775  14.909 -0.2274  0.4836 -0.5398
 3728TIP3    H132599   0.051   5.824  14.833  0.1721 -0.3952 -0.9506
 3728TIP3    H232600  -0.069   5.747  14.884 -0.1976  0.4218 -0.5760
 3729TIP3   OH232601   3.254   0.429   3.791 -0.1532 -0.5899 -0.1459
 3729TIP3    H132602   3.220   0.345   3.821  0.8367 -0.6766  0.7905
 3729TIP3    H232603   3.236   0.489   3.864  1.0497 -0.4890  0.0942
 3730TIP3   OH232604   0.003   3.192  17.325  0.0838 -0.2757 -0.2805
 3730TIP3    H132605   0.073   3.129  17.340  0.1182  0.0507  1.0628
 3730TIP3    H232606   0.032   3.272  17.368 -0.8174  0.0728 -0.2861
 3731TIP3   OH232607   1.100   6.508  15.575 -0.2107 -0.2433  0.2714
 3731TIP3    H132608   1.104   6.599  15.605 -1.2861  0.6585 -2.0931
 3731TIP3    H232609   1.033   6.467  15.629 -1.0691  0.9141  0.1148
 3732TIP3   OH232610   5.835   4.250   0.346 -0.2044 -0.1568  0.4715
 3732TIP3    H132611   5.743   4.252   0.318 -0.9938 -2.5136  2.5393
 3732TIP3    H232612   5.832   4.268   0.440  1.3691 -0.9559  0.6950
 3733TIP3   OH232613   5.749   0.941  15.328 -0.1114 -0.0043  0.3336
 3733TIP3    H132614   5.717   0.851  15.332 -0.0888  0.0221  1.3431
 3733TIP3    H232615   5.734   0.968  15.237  2.5625 -1.9863 -0.8015
 3734TIP3   OH232616   5.608   0.628   5.867 -0.2332  0.1412  0.1295
 3734TIP3    H132617   5.602   0.570   5.791 -1.4167  2.1430 -1.4186
 3734TIP3    H232618   5.527   0.612   5.915 -0.6636  0.6289 -0.4152
 3735TIP3   OH232619   3.909   3.169  17.140  0.2406  0.1792  0.2120
 3735TIP3    H132620   3.983   3.206  17.188 -0.0037  0.0891  0.6590
 3735TIP3    H232621   3.929   3.187  17.048  0.8147  0.1561  0.3306
 3736TIP3   OH232622   6.090   5.685   2.342  0.0377  0.1850  0.5407
 3736TIP3    H132623   6.093   5.633   2.422 -0.0383  0.7303  0.8999
 3736TIP3    H232624   6.040   5.763   2.365  0.0858  0.3892 -0.0155
 3737TIP3   OH232625   6.312   5.944   6.112  0.4964  0.0512  0.1024
 3737TIP3    H132626   6.269   5.929   6.196  0.4201 -1.6741 -0.2093
 3737TIP3    H232627   6.283   5.872   6.056 -1.5367  2.5339 -2.3125
 3738TIP3   OH232628   2.119   4.201  12.115  0.1484  0.5155 -0.0471
 3738TIP3    H132629   2.066   4.256  12.173  0.4615  0.8634 -0.0869
 3738TIP3    H232630   2.205   4.243  12.113  0.3125  0.1800 -0.3012
 3739TIP3   OH232631   6.754   0.604   0.376  0.3595  0.2445  0.1027
 3739TIP3    H132632   6.728   0.679   0.430  0.1295  0.1072  0.1852
 3739TIP3    H232633   6.797   0.545   0.437 -1.5808 -0.7716  0.5470
 3740TIP3   OH232634   3.076   6.749  12.266 -0.2753 -0.3537 -0.1465
 3740TIP3    H132635   2.993   6.748  12.314  0.1944 -1.4646  0.6819
 3740TIP3    H232636   3.055   6.792  12.183 -1.4932  0.0903  0.3649
 3741TIP3   OH232637   5.734   2.045  15.145  0.5597  0.1704 -0.2412
 3741TIP3    H132638   5.644   2.076  15.132 -0.8541 -3.7036 -1.2137
 3741TIP3    H232639   5.736   2.013  15.235  0.5374 -0.8528 -0.5939
 3742TIP3   OH232640   1.210   1.644   5.018  0.3810 -1.0523 -0.1189
 3742TIP3    H132641   1.156   1.719   5.042 -0.9959 -1.7185 -0.9819
 3742TIP3    H232642   1.277   1.680   4.960 -0.3073 -0.4759 -0.5782
 3743TIP3   OH232643   3.017   6.417  14.378  0.4249  0.4735 -0.3567
 3743TIP3    H132644   3.087   6.472  14.414  0.6521 -0.9428  1.5266
 3743TIP3    H232645   2.954   6.408  14.449 -1.2405  0.9496 -1.7222
 3744TIP3   OH232646   1.708   6.238  12.503  0.3435  0.2068  0.0040
 3744TIP3    H132647   1.765   6.170  12.539  1.1307  0.9093  0.1150
 3744TIP3    H232648   1.733   6.244  12.411  0.8707  0.9239  0.1873
 3745TIP3   OH232649   5.612   1.863   1.833  0.1019 -0.5399  0.4596
 3745TIP3    H132650   5.586   1.771   1.827  1.5655 -0.9197 -0.6760
 3745TIP3    H232651   5.572   1.895   1.914 -1.0647 -1.9555  0.4648
 3746TIP3   OH232652   3.459   1.407  11.891 -0.7629 -0.4414  0.5282
 3746TIP3    H132653   3.503   1.468  11.831  0.2518 -2.2822 -0.7130
 3746TIP3    H232654   3.373   1.445  11.905 -1.8735 -0.8281 -3.7806
 3747TIP3   OH232655   5.872   6.286  17.327  0.0011  0.0419  0.4131
 3747TIP3    H132656   5.777   6.298  17.333  0.1717  1.4443  0.6870
 3747TIP3    H232657   5.888   6.203  17.370 -1.2579 -0.9969 -1.0188
 3748TIP3   OH232658   4.039   5.339  14.374  0.2991  0.2738 -0.3203
 3748TIP3    H132659   4.042   5.406  14.442 -0.4399 -0.2896  0.2838
 3748TIP3    H232660   3.982   5.376  14.307 -0.6322 -0.0130  0.3074
 3749TIP3   OH232661   2.416   1.878   5.465  0.4631 -0.3666 -0.5331
 3749TIP3    H132662   2.489   1.823   5.496 -0.4300 -0.4210  1.7328
 3749TIP3    H232663   2.341   1.846   5.515 -0.4376  1.8054 -0.3992
 3750TIP3   OH232664   0.553   0.677   4.767 -0.1981 -0.2535  0.0809
 3750TIP3    H132665   0.486   0.745   4.764 -0.1199 -0.0898  1.2241
 3750TIP3    H232666   0.508   0.600   4.802  0.0453 -0.3353  0.2205
 3751TIP3   OH232667   2.550   6.126   4.658  0.4389  0.2668 -0.2554
 3751TIP3    H132668   2.510   6.146   4.742  0.0082  0.1629 -0.4365
 3751TIP3    H232669   2.643   6.146   4.671  0.5120 -0.5034  0.4853
 3752TIP3   OH232670   4.068   5.903  13.407 -0.6234  0.2614 -0.6459
 3752TIP3    H132671   3.995   5.953  13.371 -2.1776 -0.5148  1.2418
 3752TIP3    H232672   4.082   5.939  13.494  0.3851 -0.4753 -0.4805
 3753TIP3   OH232673   1.136   4.588   0.184  0.1403  0.2573  0.2559
 3753TIP3    H132674   1.147   4.495   0.205 -2.6432  0.0618  1.2329
 3753TIP3    H232675   1.219   4.612   0.141  1.1014 -2.5465  0.2783
 3754TIP3   OH232676   6.455   3.778   5.445 -0.7255  0.4044  0.0321
 3754TIP3    H132677   6.463   3.794   5.539 -0.6162 -1.3422  0.3461
 3754TIP3    H232678   6.365   3.750   5.432 -0.1736 -1.5483  0.0193
 3755TIP3   OH232679   2.961   5.493  10.794 -0.2834  0.3241 -0.6572
 3755TIP3    H132680   3.015   5.451  10.727 -0.4123 -0.9113 -0.0243
 3755TIP3    H232681   3.024   5.542  10.848  0.0962 -0.3549 -0.4689
 3756TIP3   OH232682   1.610   1.940   3.029  0.1373 -0.1846  0.0366
 3756TIP3    H132683   1.692   1.912   3.069  0.5889  1.4259  0.2867
 3756TIP3    H232684   1.626   2.029   2.999 -1.1954 -0.2153 -0.8849
 3757TIP3   OH232685   6.663   5.746  12.746  0.2178 -0.7713 -0.0143
 3757TIP3    H132686   6.715   5.671  12.773  0.2893 -0.9270 -0.5764
 3757TIP3    H232687   6.727   5.813  12.723  0.2066 -1.1338 -1.2030
 3758TIP3   OH232688   4.374   1.521  11.103  0.0808  0.5483 -0.2631
 3758TIP3    H132689   4.298   1.580  11.100  0.3987  0.9660 -0.1872
 3758TIP3    H232690   4.429   1.558  11.172 -0.6284 -0.9450  1.1900
 3759TIP3   OH232691   3.485   5.372  14.417 -0.3771 -0.0127  0.2492
 3759TIP3    H132692   3.422   5.442  14.431  0.2363  0.3360  1.4300
 3759TIP3    H232693   3.532   5.365  14.500  0.2279 -1.1721 -0.1650
 3760TIP3   OH232694   4.287   2.533  15.108  0.1696 -0.0445 -0.1561
 3760TIP3    H132695   4.209   2.583  15.086  0.3204  0.7659  1.0768
 3760TIP3    H232696   4.359   2.586  15.074  0.4339  1.4112  2.3903
 3761TIP3   OH232697   4.834   6.404  14.752 -0.4130  0.3392  0.1057
 3761TIP3    H132698   4.884   6.475  14.792  1.4825 -0.4694 -0.7198
 3761TIP3    H232699   4.796   6.442  14.673 -0.8522  0.8568  0.5507
 3762TIP3   OH232700   4.393   4.760   5.096  0.7290 -0.2451 -0.3167
 3762TIP3    H132701   4.346   4.801   5.023  0.4261  1.8761  0.9912
 3762TIP3    H232702   4.484   4.757   5.066  0.2722 -1.7756 -1.7390
 3763TIP3   OH232703   4.286   0.489   1.914  0.4218  0.1407 -0.0757
 3763TIP3    H132704   4.254   0.522   1.830 -1.3075 -1.5294 -0.1457
 3763TIP3    H232705   4.381   0.484   1.902  0.4478  2.0160 -1.1141
 3764TIP3   OH232706   3.736   1.443   1.216 -0.5409 -0.2594  0.7889
 3764TIP3    H132707   3.645   1.414   1.213 -0.1407 -1.5219  0.1307
 3764TIP3    H232708   3.784   1.366   1.247  0.5031 -0.1496 -0.4779
 3765TIP3   OH232709   4.196   0.478  11.264 -0.0219  0.1883  0.1487
 3765TIP3    H132710   4.247   0.437  11.334 -0.1897 -0.1629  0.0640
 3765TIP3    H232711   4.252   0.471  11.187 -0.4553 -0.7570 -0.0842
 3766TIP3   OH232712   3.027   6.695  13.018  0.3605 -0.2498 -0.5595
 3766TIP3    H132713   2.940   6.727  12.994 -0.2883 -0.4767  1.2634
 3766TIP3    H232714   3.012   6.604  13.044  0.9093  0.0185  0.7998
 3767TIP3   OH232715   4.090   5.738   3.284  0.3283 -0.3465  0.2347
 3767TIP3    H132716   4.152   5.795   3.239 -0.0635  0.9612  1.3111
 3767TIP3    H232717   4.141   5.697   3.354  0.2444 -0.0794  0.4565
 3768TIP3   OH232718   1.318   1.407   1.352 -0.5439 -0.1272 -0.5105
 3768TIP3    H132719   1.392   1.463   1.374 -1.0985  1.1219 -1.7036
 3768TIP3    H232720   1.323   1.335   1.415  1.2371  0.3131 -0.1015
 3769TIP3   OH232721   3.172   1.245   5.694  0.3014 -0.0961  0.6975
 3769TIP3    H132722   3.078   1.231   5.707 -0.3102  0.7836 -2.1213
 3769TIP3    H232723   3.189   1.332   5.730 -0.3797  0.4699 -0.2936
 3770TIP3   OH232724   4.173   5.706   5.105  0.1810  0.0744 -0.3632
 3770TIP3    H132725   4.093   5.755   5.089 -0.4283 -0.7628  0.0825
 3770TIP3    H232726   4.146   5.631   5.158  1.3405  0.0674  0.2516
 3771TIP3   OH232727   2.622   3.736  13.362 -0.1668  0.7287 -0.0065
 3771TIP3    H132728   2.649   3.790  13.437 -3.8165  2.3301  0.3525
 3771TIP3    H232729   2.634   3.793  13.286  0.4067  0.2863 -0.2587
 3772TIP3   OH232730   1.570   1.565   3.398  0.4173  0.4743  0.5292
 3772TIP3    H132731   1.492   1.619   3.411 -0.1783 -0.0202 -0.7162
 3772TIP3    H232732   1.632   1.623   3.354  1.0799  1.1002  2.2295
 3773TIP3   OH232733   6.520   3.445   4.104  0.2563  0.2001 -0.0647
 3773TIP3    H132734   6.494   3.403   4.186 -0.8451 -0.9554 -0.9709
 3773TIP3    H232735   6.541   3.373   4.045 -0.8358  0.9095 -1.3976
 3774TIP3   OH232736   3.800   3.900  13.692 -0.0161 -0.2352  0.2256
 3774TIP3    H132737   3.734   3.968  13.688 -0.0572 -0.3148 -0.6411
 3774TIP3    H232738   3.838   3.897  13.603  0.1077 -1.2085  0.2937
 3775TIP3   OH232739   6.303   1.067  11.266  0.3887 -0.1155 -0.3347
 3775TIP3    H132740   6.385   1.038  11.225  1.0978  0.0548  0.9140
 3775TIP3    H232741   6.250   0.988  11.272  0.7511 -0.3762 -0.4998
 3776TIP3   OH232742   3.118   5.875   1.163 -0.7677  0.2641  0.0156
 3776TIP3    H132743   3.199   5.825   1.165  0.4546  2.1024  2.8750
 3776TIP3    H232744   3.054   5.816   1.123  1.6634 -1.6560 -1.3286
 3777TIP3   OH232745   1.371   4.800   3.679  0.0077  0.5757 -0.8209
 3777TIP3    H132746   1.329   4.867   3.624  1.5275  2.7310  0.4912
 3777TIP3    H232747   1.386   4.844   3.763  1.0400 -1.4611  0.1186
 3778TIP3   OH232748   6.182   3.963  14.981  0.2402  0.1072 -0.0567
 3778TIP3    H132749   6.233   4.031  14.936  1.5915 -1.5052 -1.0863
 3778TIP3    H232750   6.248   3.912  15.029 -0.6231 -0.9674  0.0198
 3779TIP3   OH232751   4.623   2.854  15.789  0.0391  1.0850 -0.4783
 3779TIP3    H132752   4.610   2.936  15.741 -1.5018  1.0145 -0.2498
 3779TIP3    H232753   4.691   2.873  15.852 -0.8420  2.4531  0.0946
 3780TIP3   OH232754   5.325   2.250   3.491  0.2030  0.1425  0.6450
 3780TIP3    H132755   5.414   2.286   3.491 -0.1650  1.2190 -1.6943
 3780TIP3    H232756   5.329   2.177   3.429 -0.5220  0.1874  0.5403
 3781TIP3   OH232757   2.273   6.219  16.793  0.5222 -0.1761 -0.4434
 3781TIP3    H132758   2.232   6.245  16.710 -0.5738 -2.2657 -0.6188
 3781TIP3    H232759   2.201   6.183  16.845  1.6733 -1.5100  0.2767
 3782TIP3   OH232760   4.162   0.955  15.204 -0.0073  0.1833 -0.2876
 3782TIP3    H132761   4.072   0.984  15.220  0.6898  2.0229  0.5903
 3782TIP3    H232762   4.216   1.018  15.252  1.7417 -1.1320 -0.4454
 3783TIP3   OH232763   3.756   2.146   0.848  0.0771  0.4198  0.4706
 3783TIP3    H132764   3.742   2.065   0.798 -2.2749  0.3200  1.1678
 3783TIP3    H232765   3.730   2.216   0.788 -1.3876  0.3886  1.0359
 3784TIP3   OH232766   2.846   3.102  13.903 -1.3264  0.0110  0.7123
 3784TIP3    H132767   2.788   3.096  13.827 -0.4653  1.6266 -0.1359
 3784TIP3    H232768   2.908   3.030  13.892 -0.3525  1.0276 -0.9292
 3785TIP3   OH232769   5.656   2.511  15.133 -0.0018  0.0044  0.1264
 3785TIP3    H132770   5.567   2.474  15.132  0.1334 -0.3872  1.4788
 3785TIP3    H232771   5.642   2.606  15.134 -0.3626  0.0049 -1.3867
 3786TIP3   OH232772   6.104   2.668  14.193  0.1120  0.2405  0.9639
 3786TIP3    H132773   6.193   2.642  14.218 -0.6256 -0.6928  2.7811
 3786TIP3    H232774   6.115   2.755  14.154  1.7673  0.3568  1.6054
 3787TIP3   OH232775   2.743   5.546  12.756  0.4171 -0.2218 -0.2014
 3787TIP3    H132776   2.809   5.479  12.737  0.7553  0.2052 -0.5644
 3787TIP3    H232777   2.660   5.506  12.731  0.6244 -0.4796 -0.4816
 3788TIP3   OH232778   2.453   6.744  11.850  0.3764  0.4935 -0.4789
 3788TIP3    H132779   2.521   6.812  11.858 -0.4531  1.4350 -1.2542
 3788TIP3    H232780   2.371   6.793  11.846 -0.4309 -0.6492  1.0099
 3789TIP3   OH232781   5.006   6.122   4.971 -0.2838 -0.2489 -0.2279
 3789TIP3    H132782   5.055   6.042   4.988 -1.0677 -0.6435  0.2417
 3789TIP3    H232783   5.063   6.192   5.003 -1.2164 -0.8719  3.1800
 3790TIP3   OH232784   6.078   4.662  15.686  0.4015  0.0647  0.5145
 3790TIP3    H132785   6.108   4.622  15.605 -2.9059 -0.0253 -0.8037
 3790TIP3    H232786   6.021   4.597  15.726 -0.7961  1.4016  1.0833
 3791TIP3   OH232787   2.775   6.034   4.991  0.2924 -0.1935  0.4352
 3791TIP3    H132788   2.732   5.987   4.920 -0.4323 -1.3460  1.5992
 3791TIP3    H232789   2.705   6.079   5.036  0.8201  0.9685  0.1343
 3792TIP3   OH232790   2.886   5.538   4.888 -0.2397  0.5894  0.2263
 3792TIP3    H132791   2.861   5.464   4.944 -0.3576  2.0720  2.2238
 3792TIP3    H232792   2.974   5.515   4.857  0.2462  0.1367  1.8279
 3793TIP3   OH232793   1.193   1.759   3.483 -0.2161  0.0436 -0.2960
 3793TIP3    H132794   1.164   1.774   3.393 -2.2147 -0.2741  0.2442
 3793TIP3    H232795   1.126   1.701   3.521  1.0671 -0.5818  1.1313
 3794TIP3   OH232796   4.882   4.740  11.553  0.1788  0.0102  0.3314
 3794TIP3    H132797   4.900   4.646  11.563 -1.0857 -0.3156 -0.1602
 3794TIP3    H232798   4.861   4.770  11.641  1.2659  0.0010  0.6065
 3795TIP3   OH232799   3.343   3.264   6.214  0.6600 -0.3379 -0.4282
 3795TIP3    H132800   3.273   3.205   6.241 -0.4600  0.4347 -1.5536
 3795TIP3    H232801   3.304   3.351   6.215  2.8744  0.8277  3.3776
 3796TIP3   OH232802   2.264   3.552  13.057  0.3416  0.2380  0.6929
 3796TIP3    H132803   2.297   3.472  13.017  1.0119  0.6591  0.3815
 3796TIP3    H232804   2.258   3.615  12.985 -0.1945  0.4732  0.9284
 3797TIP3   OH232805   5.781   2.235   2.721 -0.3081  0.2123 -0.3910
 3797TIP3    H132806   5.786   2.234   2.816  0.0471  0.0267 -0.4075
 3797TIP3    H232807   5.846   2.300   2.694 -0.7477  0.6093 -0.4889
 3798TIP3   OH232808   2.093   4.569   4.825  0.1664 -0.2607  1.0736
 3798TIP3    H132809   2.160   4.577   4.757  0.2826  0.8228  1.3046
 3798TIP3    H232810   2.010   4.573   4.777  0.2498  0.2223  0.9689
 3799TIP3   OH232811   2.626   0.929   4.868  0.4344 -0.2295 -0.0690
 3799TIP3    H132812   2.678   0.988   4.813  1.3863 -0.7544  0.2388
 3799TIP3    H232813   2.537   0.938   4.836  0.5794  1.2552 -0.1345
 3800TIP3   OH232814   6.466   6.383  13.505 -0.8917  0.2065 -0.4886
 3800TIP3    H132815   6.531   6.452  13.520 -1.3693  0.8146 -1.1141
 3800TIP3    H232816   6.434   6.361  13.593 -0.5085  0.5630 -0.2570
 3801TIP3   OH232817   6.528   1.935  14.729 -0.6884  0.1803 -0.3231
 3801TIP3    H132818   6.536   1.912  14.637 -1.7496 -0.1125 -0.3525
 3801TIP3    H232819   6.603   1.893  14.771  0.1947  0.9022 -1.1462
 3802TIP3   OH232820   0.502   5.662   3.100  0.3998 -0.3187  0.7363
 3802TIP3    H132821   0.424   5.641   3.150  1.0520 -0.7515  1.6019
 3802TIP3    H232822   0.485   5.627   3.013 -2.2779  3.5733 -0.5497
 3803TIP3   OH232823   6.069   0.232   3.584 -0.2516  0.0261 -0.4777
 3803TIP3    H132824   6.120   0.169   3.532 -0.2968 -2.3248  2.1311
 3803TIP3    H232825   5.996   0.256   3.527  1.5136  0.3742 -2.7894
 3804TIP3   OH232826   2.386   5.263  14.723  0.1333 -0.4436  0.4242
 3804TIP3    H132827   2.355   5.172  14.728 -0.6201 -0.2806 -0.8092
 3804TIP3    H232828   2.479   5.255  14.702 -0.1016 -0.9429 -0.4874
 3805TIP3   OH232829   4.899   5.849  15.347  0.2438 -0.2783 -0.0719
 3805TIP3    H132830   4.907   5.865  15.441 -1.4016 -0.3647  0.1028
 3805TIP3    H232831   4.876   5.935  15.310 -0.5476 -0.5280 -0.1884
 3806TIP3   OH232832   6.662   5.165  15.802  0.4721 -0.6677 -0.6593
 3806TIP3    H132833   6.591   5.224  15.826  0.3587 -1.5916  1.5489
 3806TIP3    H232834   6.704   5.206  15.726 -1.1365  0.9243 -0.7413
 3807TIP3   OH232835   5.538   0.479   3.436 -0.1814  0.6048 -0.3972
 3807TIP3    H132836   5.560   0.493   3.344 -2.1028  1.4930 -0.7743
 3807TIP3    H232837   5.567   0.558   3.481 -1.6811  1.3789 -0.7389
 3808TIP3   OH232838   1.754   4.394  15.208  0.1850 -0.1943  0.3563
 3808TIP3    H132839   1.701   4.338  15.152 -0.7764  0.4471  0.6033
 3808TIP3    H232840   1.845   4.370  15.187 -0.1445  0.0098 -1.4567
 3809TIP3   OH232841   4.319   2.035   4.780  0.1204 -0.0280 -0.8621
 3809TIP3    H132842   4.309   2.109   4.721 -2.9467  0.2513 -0.1565
 3809TIP3    H232843   4.332   2.075   4.866 -1.4707 -0.2673 -0.4910
 3810TIP3   OH232844   0.808   6.086   5.695  0.1327 -0.7716  0.0883
 3810TIP3    H132845   0.714   6.091   5.710  0.3013  1.4487  0.7261
 3810TIP3    H232846   0.846   6.140   5.764  1.9452 -2.0793  0.1854
 3811TIP3   OH232847   4.825   4.153  17.005  0.0314  0.5535  0.1032
 3811TIP3    H132848   4.817   4.106  16.922  0.8434  1.5772 -0.5919
 3811TIP3    H232849   4.825   4.246  16.980  1.5292  0.8645  1.0928
 3812TIP3   OH232850   3.064   2.218   0.652 -0.0202 -0.8962 -0.3896
 3812TIP3    H132851   3.001   2.164   0.606 -1.5738  0.2099  0.3562
 3812TIP3    H232852   3.049   2.200   0.745 -1.1164  1.2806 -0.0683
 3813TIP3   OH232853   2.421   1.520  13.372  0.0171 -0.2917  0.5020
 3813TIP3    H132854   2.447   1.473  13.451 -2.6497  0.6174  2.0485
 3813TIP3    H232855   2.368   1.458  13.323 -0.4923 -0.0455  0.7368
 3814TIP3   OH232856   2.566   2.023   1.216 -0.0103 -0.5772  0.5052
 3814TIP3    H132857   2.601   2.071   1.290 -1.7166  0.8468  0.4392
 3814TIP3    H232858   2.490   1.976   1.251 -1.3220  0.7474 -0.4605
 3815TIP3   OH232859   2.081   5.143  15.969  0.4553 -0.7398  0.5853
 3815TIP3    H132860   2.120   5.210  15.913  1.9828 -0.4108  1.9932
 3815TIP3    H232861   2.093   5.061  15.920 -2.0756 -0.0184 -1.4834
 3816TIP3   OH232862   2.041   2.525  11.783 -0.0583 -0.5260 -0.0974
 3816TIP3    H132863   1.952   2.502  11.756  0.0227 -2.5645  1.1808
 3816TIP3    H232864   2.035   2.617  11.808 -1.6993 -0.4971 -0.4410
 3817TIP3   OH232865   3.171   4.311  14.294 -0.6446 -0.5295 -0.2177
 3817TIP3    H132866   3.225   4.298  14.217  1.8309  0.8501  1.1730
 3817TIP3    H232867   3.117   4.388  14.274 -0.3412 -0.4497 -0.7204
 3818TIP3   OH232868   3.740   4.806  11.728 -0.4379 -0.2736  0.4159
 3818TIP3    H132869   3.814   4.772  11.679 -1.1440  0.1149 -0.9998
 3818TIP3    H232870   3.664   4.788  11.673 -1.4191 -0.7069  1.8407
 3819TIP3   OH232871   4.688   3.147  14.955  0.0640 -0.4985  0.3213
 3819TIP3    H132872   4.719   3.214  14.895 -0.1526 -1.1724 -0.5587
 3819TIP3    H232873   4.753   3.147  15.026 -0.8213  1.7874  1.2329
 3820TIP3   OH232874   3.623   3.122  14.035  0.3604 -0.2600 -0.4585
 3820TIP3    H132875   3.555   3.187  14.019  0.9501  0.5736  0.2969
 3820TIP3    H232876   3.627   3.113  14.130  1.0043 -0.6093 -0.5072
 3821TIP3   OH232877   4.294   0.900   5.225  0.1094 -0.2147  0.1288
 3821TIP3    H132878   4.293   0.955   5.146 -0.2230 -1.4370 -0.7357
 3821TIP3    H232879   4.364   0.837   5.210  0.6383  0.0778  1.2170
 3822TIP3   OH232880   2.688   0.541   0.278  0.3227  0.0218  0.4825
 3822TIP3    H132881   2.595   0.555   0.297 -0.0971  0.2178 -1.5297
 3822TIP3    H232882   2.723   0.505   0.359 -1.8083 -1.4160  0.8551
 3823TIP3   OH232883   2.057   1.582   3.463 -0.4159 -0.2881  0.4463
 3823TIP3    H132884   2.106   1.531   3.399 -0.7309  0.8197 -0.7078
 3823TIP3    H232885   2.015   1.517   3.518  1.3185 -1.2703  0.7004
 3824TIP3   OH232886   1.474   2.510   3.472  0.1352  0.4778 -0.6216
 3824TIP3    H132887   1.547   2.570   3.491  1.6554 -1.7388  1.2405
 3824TIP3    H232888   1.517   2.426   3.455 -1.9842 -0.9213  0.5572
 3825TIP3   OH232889   4.055   4.683  11.304  0.4373 -0.0908 -0.1117
 3825TIP3    H132890   4.013   4.759  11.263 -0.5020 -0.3262  0.3893
 3825TIP3    H232891   4.134   4.668  11.251  1.5410  2.2322  0.7169
 3826TIP3   OH232892   5.164   1.081   1.262  0.4914  0.2991 -0.1805
 3826TIP3    H132893   5.192   1.082   1.353  0.1483  0.0393 -0.0666
 3826TIP3    H232894   5.083   1.132   1.261  0.1933 -0.1635 -0.2300
 3827TIP3   OH232895   3.533   0.882   5.005  0.4723  0.5175  0.2915
 3827TIP3    H132896   3.615   0.914   4.968  1.7791 -0.8330  1.8105
 3827TIP3    H232897   3.557   0.855   5.094 -1.5773 -0.1614  0.6827
 3828TIP3   OH232898   4.175   0.198  14.337  0.1225 -0.0301  0.6719
 3828TIP3    H132899   4.090   0.164  14.367 -0.5218  0.6526 -0.3209
 3828TIP3    H232900   4.183   0.167  14.247  0.6120  0.4867  0.5331
 3829TIP3   OH232901   0.151   6.109   6.167 -0.0850 -0.2769  0.2630
 3829TIP3    H132902   0.225   6.067   6.211 -0.1343 -1.7456 -0.9673
 3829TIP3    H232903   0.076   6.092   6.224  0.6352  2.4565  2.2743
 3830TIP3   OH232904   2.624   6.312  12.263  0.2349 -0.0435  0.4260
 3830TIP3    H132905   2.621   6.364  12.182  0.4926  1.1199  1.1557
 3830TIP3    H232906   2.708   6.266  12.258 -0.8099 -1.9698 -1.1453
 3831TIP3   OH232907   2.981   0.950   0.327 -0.5504  0.2986 -0.3342
 3831TIP3    H132908   3.072   0.938   0.301 -0.2924  1.5234 -0.0477
 3831TIP3    H232909   2.981   1.031   0.378 -1.5997 -0.2974  0.6627
 3832TIP3   OH232910   3.128   5.892   1.455 -0.0172  0.6590 -0.1681
 3832TIP3    H132911   3.042   5.917   1.487  0.1934 -0.9466  1.8206
 3832TIP3    H232912   3.113   5.866   1.364 -1.8289 -0.5106  0.4239
 3833TIP3   OH232913   4.163   3.500  17.352  0.1355 -0.5038 -0.6003
 3833TIP3    H132914   4.122   3.581  17.383  0.0792 -0.1185 -1.6346
 3833TIP3    H232915   4.241   3.530  17.305 -0.6228 -0.9334 -2.1919
 3834TIP3   OH232916   3.751   4.036   4.927 -0.8315 -0.0232 -0.6555
 3834TIP3    H132917   3.769   4.024   4.833 -1.1742 -0.1085 -0.7139
 3834TIP3    H232918   3.761   4.131   4.941  0.4844 -0.1651 -0.4947
 3835TIP3   OH232919   1.243   0.031   6.112  0.1190 -0.0522  0.3773
 3835TIP3    H132920   1.292   0.052   6.032  1.4407 -0.0420  1.1645
 3835TIP3    H232921   1.288   0.080   6.181 -0.7315 -0.4142  1.2042
 3836TIP3   OH232922   2.042   4.494   0.466 -0.0236  0.5226 -0.4315
 3836TIP3    H132923   2.078   4.425   0.410  1.4810  2.1826 -1.6446
 3836TIP3    H232924   2.082   4.480   0.551 -0.6747 -0.7788 -0.3204
 3837TIP3   OH232925   4.645   1.864  13.223 -0.0838  0.0867  0.1427
 3837TIP3    H132926   4.664   1.949  13.263  0.5094 -0.0547  0.1687
 3837TIP3    H232927   4.667   1.800  13.291 -0.5751 -0.0885  0.1404
 3838TIP3   OH232928   4.699   1.294  16.610 -0.4564  0.2214 -0.0017
 3838TIP3    H132929   4.627   1.356  16.599 -1.1617 -0.2320  1.6573
 3838TIP3    H232930   4.655   1.209  16.620  0.3251 -0.1199  0.5876
 3839TIP3   OH232931   4.063   4.582   3.366  0.3967 -0.0359 -0.2485
 3839TIP3    H132932   3.968   4.573   3.358  0.1863  1.5992 -0.0765
 3839TIP3    H232933   4.086   4.530   3.443 -1.2245  3.7340  3.1684
 3840TIP3   OH232934   2.398   1.306  16.045  0.3687 -0.3516 -0.1329
 3840TIP3    H132935   2.354   1.238  16.094  0.5438 -0.9874 -0.8343
 3840TIP3    H232936   2.335   1.333  15.978  0.4885 -0.2034 -0.1879
 3841TIP3   OH232937   3.749   6.017  13.483  0.1361 -0.0627 -0.1390
 3841TIP3    H132938   3.776   6.051  13.397  0.7591  1.7302  0.7104
 3841TIP3    H232939   3.775   5.925  13.481  3.5531  0.7393 -0.5853
 3842TIP3   OH232940   2.436   3.696   3.698  0.6189  0.0775  0.1392
 3842TIP3    H132941   2.389   3.639   3.758  1.3488 -2.5725 -1.6641
 3842TIP3    H232942   2.502   3.640   3.657 -1.1916  1.0150 -4.7224
 3843TIP3   OH232943   5.768   0.503  13.093  0.5347 -0.0030 -0.2622
 3843TIP3    H132944   5.823   0.472  13.165  0.4008 -2.4246 -1.1289
 3843TIP3    H232945   5.686   0.528  13.134  1.1366  0.5629  0.6402
 3844TIP3   OH232946   5.337   4.195   2.351 -0.0868  0.3019  0.4126
 3844TIP3    H132947   5.357   4.200   2.258 -2.8445 -1.1159 -0.3527
 3844TIP3    H232948   5.270   4.262   2.365 -2.5550 -2.0096  0.4236
 3845TIP3   OH232949   2.288   2.845  17.268 -0.5692 -0.0373  0.3192
 3845TIP3    H132950   2.325   2.803  17.345  1.1218  0.4073 -0.2200
 3845TIP3    H232951   2.317   2.792  17.194  0.4966  1.2959 -0.2564
 3846TIP3   OH232952   2.608   0.703   5.459  0.2723  0.1648 -0.2612
 3846TIP3    H132953   2.599   0.741   5.372  0.1666 -0.0411 -0.3404
 3846TIP3    H232954   2.521   0.667   5.478  0.0328  1.0106  0.3060
 3847TIP3   OH232955   5.014   5.409  16.128 -0.1035 -0.0658  0.4733
 3847TIP3    H132956   4.921   5.418  16.111  0.2693  1.1185 -1.1495
 3847TIP3    H232957   5.019   5.392  16.222 -1.8410  2.3895  1.1220
 3848TIP3   OH232958   4.715   1.951  15.419 -0.4847 -0.0660  0.9301
 3848TIP3    H132959   4.661   2.014  15.371 -0.5013  0.0035  1.0390
 3848TIP3    H232960   4.652   1.898  15.468 -0.4671 -0.1292  0.8843
 3849TIP3   OH232961   1.352   5.324  16.412  0.2212  0.5571  0.3141
 3849TIP3    H132962   1.414   5.295  16.479  1.1968 -1.2097 -1.2410
 3849TIP3    H232963   1.379   5.413  16.390  1.9489 -0.0043  0.0101
 3850TIP3   OH232964   5.735   5.781  12.804  0.0007  0.2129 -0.3257
 3850TIP3    H132965   5.653   5.783  12.854 -1.2477  0.3141 -2.2784
 3850TIP3    H232966   5.803   5.784  12.871 -1.5708  0.5311  1.3567
 3851TIP3   OH232967   5.979   0.639  17.117 -0.1175 -0.0681 -0.3422
 3851TIP3    H132968   6.060   0.662  17.163 -1.1686 -0.1330  1.6187
 3851TIP3    H232969   6.008   0.586  17.043  1.4891 -2.2048  1.6891
 3852TIP3   OH232970   0.702   0.797   6.180  0.2782  0.2882 -0.2197
 3852TIP3    H132971   0.705   0.886   6.214  1.4221  0.5259 -0.8844
 3852TIP3    H232972   0.623   0.759   6.218 -0.7178  1.8677 -0.6321
 3853TIP3   OH232973   6.743   5.457   6.437 -0.2112 -0.2697 -0.4180
 3853TIP3    H132974   6.657   5.437   6.401  1.4584 -1.1212 -4.4211
 3853TIP3    H232975   6.790   5.373   6.436  1.4313  0.6088 -0.7711
 3854TIP3   OH232976   2.014   0.905  12.712  0.3482  0.0973  0.4927
 3854TIP3    H132977   2.008   0.830  12.772  1.5194  1.1094  1.9517
 3854TIP3    H232978   1.989   0.869  12.627 -0.8018 -1.5417  1.4485
 3855TIP3   OH232979   6.746   1.353   0.339  0.2422  0.6552  0.4972
 3855TIP3    H132980   6.798   1.376   0.262 -0.5794  1.2529  0.1028
 3855TIP3    H232981   6.718   1.264   0.323 -0.0931  0.8456 -0.0015
 3856TIP3   OH232982   6.061   1.559   4.187 -0.7996 -0.3498 -0.0262
 3856TIP3    H132983   6.103   1.473   4.179  0.4305  0.0768  1.4061
 3856TIP3    H232984   5.967   1.539   4.181 -0.5443 -1.7975  0.2818
 3857TIP3   OH232985   2.322   4.160   0.819 -0.2470 -0.9171 -0.0416
 3857TIP3    H132986   2.303   4.158   0.913 -0.7162 -1.1939 -0.1344
 3857TIP3    H232987   2.356   4.073   0.800 -0.8442 -1.1059 -0.2603
 3858TIP3   OH232988   5.601   2.512  15.495 -0.0450 -0.1170 -0.1686
 3858TIP3    H132989   5.657   2.448  15.451  0.3820  0.1345  0.0025
 3858TIP3    H232990   5.661   2.561  15.551 -0.1919  1.0817 -1.0168
 3859TIP3   OH232991   5.723   4.856  11.743  0.0213  0.1561  0.0900
 3859TIP3    H132992   5.688   4.842  11.655  0.5173 -0.7657  0.0272
 3859TIP3    H232993   5.813   4.825  11.738  0.6846  1.8959  0.4210
 3860TIP3   OH232994   3.362   4.033   5.892 -0.6734 -0.3717  0.0821
 3860TIP3    H132995   3.278   4.010   5.930 -0.4858  0.3356  0.9551
 3860TIP3    H232996   3.408   4.080   5.961  0.4198 -0.6988 -0.3979
 3861TIP3   OH232997   4.970   5.829   3.642  0.1502 -0.3913  0.2413
 3861TIP3    H132998   5.024   5.899   3.678 -0.7606 -0.2857  1.4877
 3861TIP3    H232999   5.031   5.774   3.594  1.1685  0.3459  0.6518
 3862TIP3   OH233000   5.825   3.025  16.217 -0.2464  0.1574  0.3146
 3862TIP3    H133001   5.814   2.975  16.298  0.9016  0.1839  0.5050
 3862TIP3    H233002   5.759   3.093  16.222 -1.9011 -1.3590  0.0219
 3863TIP3   OH233003   3.103   0.989  16.954 -0.5331 -0.1966  0.3332
 3863TIP3    H133004   3.129   1.080  16.961  3.5322 -1.0496 -1.1785
 3863TIP3    H233005   3.157   0.943  17.017 -0.7586 -1.8234 -0.6025
 3864TIP3   OH233006   3.519   0.891   3.583  0.1678 -0.6954  0.0968
 3864TIP3    H133007   3.585   0.955   3.558  0.1125 -1.0212 -0.9487
 3864TIP3    H233008   3.569   0.819   3.622  0.6675 -1.7255 -2.2777
 3865TIP3   OH233009   5.807   5.311   1.583 -0.3780 -0.7556  0.1928
 3865TIP3    H133010   5.867   5.385   1.593 -1.3893 -0.0105  0.8740
 3865TIP3    H233011   5.865   5.236   1.566  0.7596 -0.0868  0.9592
 3866TIP3   OH233012   3.751   5.203   1.494 -0.0019 -0.6300 -0.3056
 3866TIP3    H133013   3.703   5.183   1.574  0.7091 -0.1903  0.2435
 3866TIP3    H233014   3.843   5.189   1.517  0.2777  0.3137 -0.7975
 3867TIP3   OH233015   5.286   1.472  16.792  0.0171  0.3429  0.1677
 3867TIP3    H133016   5.311   1.562  16.811 -0.5569  0.5304  0.0644
 3867TIP3    H233017   5.218   1.479  16.724  1.4111 -0.2726 -1.3639
 3868TIP3   OH233018   5.783   1.529   2.012 -0.0386 -0.1322  0.3034
 3868TIP3    H133019   5.747   1.610   2.049  2.3367  0.4758  1.5196
 3868TIP3    H233020   5.724   1.460   2.043 -3.5939  1.1755 -2.7730
 3869TIP3   OH233021   5.251   1.132   6.429 -0.5975 -0.2067 -0.3846
 3869TIP3    H133022   5.324   1.189   6.451 -0.5165 -0.8243  1.0603
 3869TIP3    H233023   5.292   1.050   6.402 -0.7094 -0.9257  1.4700
 3870TIP3   OH233024   2.781   1.204   0.854  0.4526  0.1157  0.5242
 3870TIP3    H133025   2.831   1.285   0.846  1.4629 -0.1998  2.7724
 3870TIP3    H233026   2.847   1.135   0.856 -0.0970 -0.4102  2.3532
 3871TIP3   OH233027   2.319   6.299  15.623  0.0926 -0.7231  0.1388
 3871TIP3    H133028   2.302   6.369  15.559  0.2603 -0.7471  0.0651
 3871TIP3    H233029   2.339   6.346  15.704 -1.0976 -0.7040  0.4382
 3872TIP3   OH233030   5.817   0.528   4.446 -0.7616  0.1693 -0.0998
 3872TIP3    H133031   5.782   0.612   4.419  0.2634  0.0599 -1.8957
 3872TIP3    H233032   5.821   0.476   4.366  0.3121 -0.9639  0.6492
 3873TIP3   OH233033   6.655   0.396  17.107  0.0179  0.0307  1.1804
 3873TIP3    H133034   6.689   0.433  17.026 -1.1615 -0.5585  0.3917
 3873TIP3    H233035   6.579   0.344  17.080 -1.5872  1.3606  2.8521
 3874TIP3   OH233036   6.162   0.282  12.396  0.5101  0.0263 -0.1470
 3874TIP3    H133037   6.167   0.234  12.314 -0.2470 -1.2262  0.5102
 3874TIP3    H233038   6.217   0.234  12.457 -0.2641 -0.0413  0.5271
 3875TIP3   OH233039   6.585   0.271   5.619  0.3945  1.4368  0.1601
 3875TIP3    H133040   6.674   0.275   5.583  0.5826  2.0011  0.6706
 3875TIP3    H233041   6.575   0.353   5.667 -0.0091  0.8965  1.0175
 3876TIP3   OH233042   3.602   6.342  14.141 -0.0017  0.0221  0.0497
 3876TIP3    H133043   3.512   6.375  14.140 -0.2945 -0.7592 -0.2115
 3876TIP3    H233044   3.600   6.267  14.200  0.4595 -0.0515 -0.0214
 3877TIP3   OH233045   1.279   4.783   2.607 -0.3434 -0.5877 -0.0989
 3877TIP3    H133046   1.203   4.779   2.550 -1.3750 -3.6941  1.2943
 3877TIP3    H233047   1.243   4.802   2.694  0.9980  2.2093 -0.0623
 3878TIP3   OH233048   0.828   4.466   4.824 -0.0941 -0.3201 -0.5209
 3878TIP3    H133049   0.847   4.559   4.837  0.2132 -0.4211 -0.2267
 3878TIP3    H233050   0.912   4.427   4.802  0.2509 -0.9108  1.5832
 3879TIP3   OH233051   0.349   0.538   2.503 -0.7327  0.6512 -0.2203
 3879TIP3    H133052   0.372   0.563   2.414 -0.5461  1.4194  0.0394
 3879TIP3    H233053   0.392   0.453   2.516 -0.0624  0.9354 -0.5717
 3880TIP3   OH233054   5.493   1.804   0.388 -0.1886  0.1134 -0.1082
 3880TIP3    H133055   5.402   1.833   0.389 -0.2067  0.0693 -0.5010
 3880TIP3    H233056   5.506   1.763   0.474 -0.6845 -0.3282 -0.2445
 3881TIP3   OH233057   0.335   0.759  11.797  0.0122 -0.1199  0.2007
 3881TIP3    H133058   0.276   0.684  11.811 -0.8517  0.6784  1.0117
 3881TIP3    H233059   0.376   0.772  11.883  0.4781  0.0746 -0.0513
 3882TIP3   OH233060   4.100   0.612   2.654 -0.6131  0.3660 -0.1512
 3882TIP3    H133061   4.045   0.618   2.576 -1.0700  0.6339  0.1883
 3882TIP3    H233062   4.082   0.524   2.690  0.6516 -0.3173 -1.1128
 3883TIP3   OH233063   5.422   5.377   0.788  0.2413 -0.1747 -0.3413
 3883TIP3    H133064   5.413   5.452   0.729  0.4766 -0.1249 -0.3153
 3883TIP3    H233065   5.455   5.307   0.733 -2.1605 -0.9583 -0.9029
 3884TIP3   OH233066   3.037   2.873  13.465 -0.0407 -0.0314 -0.6400
 3884TIP3    H133067   2.956   2.840  13.504 -0.3575  0.1639 -1.1324
 3884TIP3    H233068   3.037   2.967  13.486  1.0709 -0.3697  1.1369
 3885TIP3   OH233069   3.701   6.379  12.129 -0.0738  0.4133  0.5091
 3885TIP3    H133070   3.680   6.462  12.173 -4.1602  0.0593 -0.3635
 3885TIP3    H233071   3.656   6.313  12.182 -1.3489 -0.5427 -1.6683
 3886TIP3   OH233072   5.270   1.381  15.311  0.0541  0.4102 -1.4084
 3886TIP3    H133073   5.233   1.305  15.265 -0.7975  1.4914 -2.5793
 3886TIP3    H233074   5.219   1.455  15.279 -0.8739  1.2025  1.6050
 3887TIP3   OH233075   2.262   0.822   4.409 -0.6821  0.2967 -0.2285
 3887TIP3    H133076   2.280   0.897   4.465  1.3212 -0.5856  0.4241
 3887TIP3    H233077   2.346   0.802   4.367 -1.4461 -0.8394 -1.3363
 3888TIP3   OH233078   5.016   1.503  16.970  0.2807  0.1805 -0.0817
 3888TIP3    H133079   4.945   1.481  16.910 -2.7492 -0.1077  3.2725
 3888TIP3    H233080   5.041   1.419  17.009  0.5764  0.6151  0.6864
 3889TIP3   OH233081   3.018   1.195  13.986 -0.3244  0.7903  0.1113
 3889TIP3    H133082   2.959   1.246  14.042  0.1209  0.3856  0.9694
 3889TIP3    H233083   2.994   1.104  14.003  0.7681  0.6008  0.7541
 3890TIP3   OH233084   4.545   0.397   2.843 -0.5028  0.2295 -0.2935
 3890TIP3    H133085   4.626   0.434   2.879  0.3307 -1.2866 -0.5442
 3890TIP3    H233086   4.494   0.373   2.920 -0.9533  1.5890 -0.1270
 3891TIP3   OH233087   3.925   3.382  14.994 -0.1433  0.2191  0.2441
 3891TIP3    H133088   4.018   3.368  14.975 -0.3491 -0.9602  0.0628
 3891TIP3    H233089   3.880   3.317  14.941 -0.9402 -0.7983  2.0906
 3892TIP3   OH233090   1.057   5.287   3.963 -0.4969 -0.0500  0.3562
 3892TIP3    H133091   1.034   5.367   3.916 -0.6545  0.0816  0.6533
 3892TIP3    H233092   0.984   5.272   4.022 -0.7662 -0.7717 -0.1477
 3893TIP3   OH233093   0.496   1.423   1.342  0.1932  0.3466 -0.0807
 3893TIP3    H133094   0.432   1.404   1.410  0.6258  1.0318  0.5277
 3893TIP3    H233095   0.465   1.504   1.301  1.4680  1.5560  1.2517
 3894TIP3   OH233096   6.034   2.202  10.859 -0.1437 -0.0641 -0.1877
 3894TIP3    H133097   6.060   2.201  10.767 -0.7092 -1.8569 -0.3735
 3894TIP3    H233098   6.115   2.186  10.908 -0.0152 -0.2003 -0.4455
 3895TIP3   OH233099   1.297   5.014  12.664 -0.0949  0.2308 -0.3468
 3895TIP3    H133100   1.256   5.100  12.668  1.1897  0.8253  1.3249
 3895TIP3    H233101   1.227   4.954  12.637 -1.3480  1.5933 -0.2158
 3896TIP3   OH233102   2.835   2.708  17.184 -0.3382  0.4784  0.0689
 3896TIP3    H133103   2.881   2.693  17.266 -0.7511 -0.6379  0.1221
 3896TIP3    H233104   2.748   2.739  17.211  0.1073  1.8471 -0.0103
 3897TIP3   OH233105   2.713   4.066  10.803 -0.4402 -0.0543 -0.1575
 3897TIP3    H133106   2.801   4.103  10.793 -0.6815  0.3318 -0.8965
 3897TIP3    H233107   2.666   4.094  10.724 -2.0673  2.0615  1.4503
 3898TIP3   OH233108   4.331   1.539  16.023 -0.3323  0.6938  0.0292
 3898TIP3    H133109   4.297   1.592  16.094 -0.7707  0.8200 -0.2728
 3898TIP3    H233110   4.253   1.499  15.984 -0.0225 -0.0535  0.1613
 3899TIP3   OH233111   6.085   4.135   3.080  0.0357  0.1064 -0.3163
 3899TIP3    H133112   6.103   4.160   2.989 -1.1380 -2.1348 -1.2512
 3899TIP3    H233113   6.157   4.172   3.130 -0.0171  2.6069 -1.9330
 3900TIP3   OH233114   5.262   5.463   4.615  0.5299  0.0849 -0.2963
 3900TIP3    H133115   5.345   5.480   4.569 -0.2980  0.5845 -1.6832
 3900TIP3    H233116   5.196   5.463   4.545 -0.6274 -0.4284  0.7652
 3901TIP3   OH233117   1.554   2.558  14.870  0.2385  0.1699 -0.3492
 3901TIP3    H133118   1.618   2.517  14.927  0.7506  0.4270 -0.7328
 3901TIP3    H233119   1.579   2.530  14.782 -0.8647 -0.6661 -0.4173
 3902TIP3   OH233120   2.221   2.210   4.364 -0.1965 -0.4459 -0.1948
 3902TIP3    H133121   2.237   2.230   4.457 -1.0063 -0.0212 -0.1340
 3902TIP3    H233122   2.308   2.206   4.325  0.0882  1.1382  0.2287
 3903TIP3   OH233123   2.014   5.813   2.526  0.2581 -0.1599 -0.0775
 3903TIP3    H133124   1.926   5.787   2.499 -0.0823 -1.4519  2.0236
 3903TIP3    H233125   2.053   5.733   2.561  0.7725  1.1823  2.7027
 3904TIP3   OH233126   5.853   5.255  17.070  0.5901  0.2362 -0.1916
 3904TIP3    H133127   5.776   5.312  17.068  1.1201  0.9663 -1.4912
 3904TIP3    H233128   5.898   5.280  17.151  0.3155  0.9987 -0.2604
 3905TIP3   OH233129   2.107   4.926   0.066  0.3393  0.1696  0.2649
 3905TIP3    H133130   2.024   4.958   0.030  0.3857  2.1230  1.7365
 3905TIP3    H233131   2.144   4.872  -0.004 -1.7548 -0.0543 -0.7463
 3906TIP3   OH233132   3.620   0.337  11.908 -0.1769 -0.3457 -0.0117
 3906TIP3    H133133   3.636   0.351  12.002  1.1847  0.1334 -0.2820
 3906TIP3    H233134   3.536   0.291  11.904 -0.6902  0.3965  1.3957
 3907TIP3   OH233135   4.714   5.253  12.814  0.0966 -0.2307  0.4337
 3907TIP3    H133136   4.694   5.263  12.720  0.4524  0.2531  0.4023
 3907TIP3    H233137   4.702   5.160  12.831 -0.9552 -0.1725  0.1375
 3908TIP3   OH233138   5.735   3.517  12.051 -0.5144 -0.1723  0.6040
 3908TIP3    H133139   5.784   3.528  11.970 -1.3260  0.1331  0.1424
 3908TIP3    H233140   5.761   3.591  12.106 -1.4398  0.7659 -0.1621
 3909TIP3   OH233141   6.511   4.889   5.007  0.0580  0.1148  0.3318
 3909TIP3    H133142   6.440   4.863   5.066 -0.0925  0.0850  0.1401
 3909TIP3    H233143   6.475   4.964   4.959 -0.5277 -1.0071 -1.0654
 3910TIP3   OH233144   1.643   5.643  11.317  0.1333 -0.4154 -0.3292
 3910TIP3    H133145   1.604   5.602  11.240  0.2360 -0.3025 -0.4423
 3910TIP3    H233146   1.737   5.634  11.303  0.2239  1.3743 -1.2020
 3911TIP3   OH233147   3.632   2.231  11.234 -0.6973 -0.4320 -0.1773
 3911TIP3    H133148   3.562   2.289  11.264 -2.1192 -1.6532 -0.9987
 3911TIP3    H233149   3.587   2.161  11.188  0.9004 -2.5036  1.2295
 3912TIP3   OH233150   2.965   1.542   1.571  0.8187 -0.3901 -0.4555
 3912TIP3    H133151   2.871   1.530   1.560  0.3936  1.4340  0.7194
 3912TIP3    H233152   3.001   1.453   1.569 -0.7454 -1.0417 -2.2092
 3913TIP3   OH233153   2.348   3.428  11.757 -0.4781 -0.0274  0.4879
 3913TIP3    H133154   2.417   3.408  11.820 -0.8562 -0.8553  0.6507
 3913TIP3    H233155   2.318   3.343  11.727  0.1579  0.3439 -1.3358
 3914TIP3   OH233156   6.601   5.366   5.658  0.0931  0.5954 -0.0095
 3914TIP3    H133157   6.618   5.401   5.746 -0.8200  3.9144 -1.0013
 3914TIP3    H233158   6.636   5.432   5.599 -0.1137 -1.1337 -2.1832
 3915TIP3   OH233159   1.736   6.206   6.277 -0.4596  0.8827  0.0364
 3915TIP3    H133160   1.823   6.196   6.238 -0.7028 -1.6166 -0.0051
 3915TIP3    H233161   1.678   6.223   6.203 -0.8005 -3.0708 -0.7990
 3916TIP3   OH233162   3.439   1.020   6.560  0.0799  0.5859  0.0526
 3916TIP3    H133163   3.501   0.959   6.520  2.6718  4.1193 -1.8473
 3916TIP3    H233164   3.464   1.022   6.652  2.0167  0.9675 -0.4355
 3917TIP3   OH233165   0.048   5.977  12.735  0.4807 -0.7056 -0.2352
 3917TIP3    H133166   0.133   5.958  12.696  0.1516 -0.9591 -0.8440
 3917TIP3    H233167   0.040   6.072  12.733  0.2318 -0.7381 -1.3190
 3918TIP3   OH233168   4.356   4.376   3.491 -0.2021  0.2628  0.6379
 3918TIP3    H133169   4.351   4.338   3.403 -1.6064 -2.0857  1.6294
 3918TIP3    H233170   4.446   4.408   3.499  1.0010 -2.5601 -0.4979
 3919TIP3   OH233171   1.293   2.575  16.162  0.4994 -0.4595 -0.7143
 3919TIP3    H133172   1.312   2.636  16.092  1.5635 -0.1919 -0.2206
 3919TIP3    H233173   1.368   2.582  16.221 -0.8667  0.1401  1.0303
 3920TIP3   OH233174   2.906   3.015   1.239 -0.5388  0.6936 -0.2953
 3920TIP3    H133175   2.870   3.104   1.243 -3.7834 -0.4574 -0.1983
 3920TIP3    H233176   2.899   2.983   1.329  2.2447  0.8060  0.0425
 3921TIP3   OH233177   5.839   6.066  12.977 -0.5099 -0.6520 -0.0711
 3921TIP3    H133178   5.847   6.151  13.020 -0.0654  0.0470 -1.4422
 3921TIP3    H233179   5.751   6.066  12.939  0.0396 -0.0944 -1.4183
 3922TIP3   OH233180   5.197   4.308   5.480  0.2737  0.2553  0.8008
 3922TIP3    H133181   5.221   4.219   5.456 -3.8369 -0.6891 -0.6625
 3922TIP3    H233182   5.145   4.298   5.560 -0.7488  1.2366  0.2858
 3923TIP3   OH233183   1.415   0.300  14.809  0.0879  0.6098  1.0830
 3923TIP3    H133184   1.496   0.290  14.759 -0.3434  0.9894  0.2814
 3923TIP3    H233185   1.352   0.332  14.745 -1.1479 -1.2880  1.2886
 3924TIP3   OH233186   5.371   3.934  14.829  0.2872 -0.2269 -0.0276
 3924TIP3    H133187   5.381   4.007  14.768 -0.1314  0.3468  0.5814
 3924TIP3    H233188   5.278   3.934  14.851  0.2729 -0.9850 -0.0682
 3925TIP3   OH233189   1.406   5.605  14.993  0.3258 -0.2322  0.0727
 3925TIP3    H133190   1.360   5.689  15.001  1.4217  0.3146  0.9528
 3925TIP3    H233191   1.395   5.564  15.079 -0.3385 -1.0672 -0.4081
 3926TIP3   OH233192   5.682   6.330   4.318  0.3782  0.2252  0.4482
 3926TIP3    H133193   5.691   6.262   4.251  1.6454 -0.4951  1.3117
 3926TIP3    H233194   5.771   6.363   4.330 -0.1166  1.5783  0.5349
 3927TIP3   OH233195   2.531   1.212   1.459  0.1322 -0.1188  0.0128
 3927TIP3    H133196   2.564   1.150   1.524 -0.5962  0.8276  1.3360
 3927TIP3    H233197   2.471   1.268   1.508 -0.8247  0.3250 -1.5962
 3928TIP3   OH233198   0.484   1.519   6.510 -0.4693  0.0006 -0.2264
 3928TIP3    H133199   0.398   1.529   6.551 -0.7746 -0.4839 -0.7251
 3928TIP3    H233200   0.514   1.433   6.541  0.5012  0.7901  1.1226
 3929TIP3   OH233201   1.440   0.803   2.238  0.0995 -0.3548 -0.1042
 3929TIP3    H133202   1.410   0.807   2.147  1.2941 -0.4989 -0.5139
 3929TIP3    H233203   1.480   0.889   2.254  0.9346 -0.7348 -0.0978
 3930TIP3   OH233204   6.420   4.314   0.760  0.5362  0.6393 -0.4417
 3930TIP3    H133205   6.441   4.221   0.768 -1.2987  0.1012 -1.3371
 3930TIP3    H233206   6.419   4.346   0.850 -1.5737 -0.9066  0.1622
 3931TIP3   OH233207   5.420   1.530  11.973 -0.5089 -0.2520 -0.4483
 3931TIP3    H133208   5.340   1.581  11.961 -0.6371 -0.8303 -2.4758
 3931TIP3    H233209   5.444   1.504  11.884  2.3252  0.4758  0.0223
 3932TIP3   OH233210   0.533   3.049  16.041  0.8661 -0.2181 -0.2140
 3932TIP3    H133211   0.443   3.028  16.016  0.7855 -1.6798  1.1512
 3932TIP3    H233212   0.557   3.122  15.984 -0.6954 -0.6984 -1.5710
 3933TIP3   OH233213   5.630   3.990  13.316  0.5493 -0.5130  0.0299
 3933TIP3    H133214   5.564   3.922  13.302  1.7412 -1.7323  0.1086
 3933TIP3    H233215   5.591   4.049  13.380 -1.6726  0.5169 -2.1174
 3934TIP3   OH233216   3.504   4.901  14.156  0.9522 -0.1044 -0.3090
 3934TIP3    H133217   3.417   4.931  14.129  0.3159 -0.0090  1.7114
 3934TIP3    H233218   3.549   4.981  14.183  1.6419 -0.1779 -1.1804
 3935TIP3   OH233219   5.429   2.688   0.140 -0.0083  0.2555 -0.4313
 3935TIP3    H133220   5.509   2.650   0.176 -0.5107  0.3634  0.8617
 3935TIP3    H233221   5.397   2.746   0.210 -1.1510  0.2922 -0.9665
 3936TIP3   OH233222   4.450   3.714  16.248 -0.0220 -0.1278 -0.0657
 3936TIP3    H133223   4.491   3.658  16.183 -1.7802 -0.6424 -0.8061
 3936TIP3    H233224   4.506   3.706  16.325  1.1820 -0.8352 -0.9792
 3937TIP3   OH233225   3.026   3.688  12.914 -0.3458 -0.2748 -0.4144
 3937TIP3    H133226   2.941   3.643  12.905 -1.0043  0.6953  0.6939
 3937TIP3    H233227   3.025   3.722  13.003  1.8171 -1.3968  0.0937
 3938TIP3   OH233228   0.082   6.416  17.055  1.0392  0.0780 -0.3290
 3938TIP3    H133229   0.010   6.356  17.073  0.3257  0.3994 -1.9211
 3938TIP3    H233230   0.157   6.379  17.102  0.0580 -0.7247  0.6632
 3939TIP3   OH233231   2.699   4.016  14.101 -0.7212  0.0602 -0.2412
 3939TIP3    H133232   2.787   4.054  14.104 -0.4635 -0.5420 -0.0113
 3939TIP3    H233233   2.681   3.990  14.192 -0.9052 -0.3254 -0.3839
 3940TIP3   OH233234   0.679   3.787   4.402 -0.1123  0.5674  0.6283
 3940TIP3    H133235   0.742   3.748   4.462  1.9364  0.9628 -1.1313
 3940TIP3    H233236   0.623   3.715   4.374  0.9494 -0.2496  0.5921
 3941TIP3   OH233237   0.958   4.868   1.697 -0.6858 -0.4525 -0.0018
 3941TIP3    H133238   0.886   4.887   1.637 -1.0220 -0.9562  0.2340
 3941TIP3    H233239   1.001   4.953   1.710 -0.0955 -0.4797 -1.5704
 3942TIP3   OH233240   3.185   3.015   2.744 -0.3406 -0.1300 -0.5391
 3942TIP3    H133241   3.209   2.991   2.834  0.2493 -0.5803 -0.8115
 3942TIP3    H233242   3.225   3.102   2.732 -2.8543  1.3059  0.5992
 3943TIP3   OH233243   6.151   5.989  14.928 -0.1603 -0.2175 -0.0010
 3943TIP3    H133244   6.231   6.030  14.896 -0.0233 -0.0416  0.5551
 3943TIP3    H233245   6.124   5.930  14.857  0.3486 -0.1309 -0.2708
 3944TIP3   OH233246   0.329   5.720   1.023 -0.0820  0.3565 -0.0742
 3944TIP3    H133247   0.327   5.795   1.082  0.5141 -0.6613  1.2852
 3944TIP3    H233248   0.422   5.705   1.005 -0.2664  0.9794 -1.7559
 3945TIP3   OH233249   4.835   2.206  11.650  0.3919  0.0997 -0.2714
 3945TIP3    H133250   4.842   2.274  11.718  0.6415  0.3359 -0.5260
 3945TIP3    H233251   4.818   2.125  11.698  0.6966  0.2420  0.0819
 3946TIP3   OH233252   2.856   4.792  12.737  0.2388  0.0448  0.2538
 3946TIP3    H133253   2.885   4.703  12.719  0.5224  0.1598  0.1315
 3946TIP3    H233254   2.918   4.848  12.689  0.2428  0.3176  0.5723
 3947TIP3   OH233255   4.746   4.404   0.805 -0.1988 -0.0063 -0.3143
 3947TIP3    H133256   4.664   4.370   0.840  0.1150 -2.1906 -1.4743
 3947TIP3    H233257   4.738   4.499   0.811 -2.0660 -0.2033  1.1862
 3948TIP3   OH233258   2.598   3.298   2.995 -0.1784  0.2150  0.3014
 3948TIP3    H133259   2.678   3.298   3.049 -0.4035  1.6588  0.6725
 3948TIP3    H233260   2.586   3.206   2.971  1.5857 -0.0414  0.2406
 3949TIP3   OH233261   2.521   0.837   5.245 -0.0089  0.1095 -0.4698
 3949TIP3    H133262   2.483   0.889   5.316  1.5328  1.2867 -0.4540
 3949TIP3    H233263   2.450   0.828   5.181 -1.7942 -1.8661  1.5671
 3950TIP3   OH233264   0.112   1.518  14.529  0.5664  0.5731 -0.1728
 3950TIP3    H133265   0.146   1.431  14.510  0.8855  0.4089  1.0479
 3950TIP3    H233266   0.173   1.578  14.487  1.2731  0.2344  0.3566
 3951TIP3   OH233267   0.668   3.836   1.839 -0.0095  0.3104  0.7346
 3951TIP3    H133268   0.602   3.899   1.809  0.3769  0.2382 -0.2980
 3951TIP3    H233269   0.646   3.755   1.793  1.1544  0.4492 -0.1167
 3952TIP3   OH233270   0.888   1.470  14.610  0.3898  0.4814 -0.1187
 3952TIP3    H133271   0.959   1.482  14.673 -1.2578  2.3470  1.5497
 3952TIP3    H233272   0.905   1.536  14.542  0.5661  0.4974 -0.0607
 3953TIP3   OH233273   4.184   5.471   2.343 -0.6589  0.5269 -0.4540
 3953TIP3    H133274   4.157   5.516   2.263  0.8376  0.4844 -1.0114
 3953TIP3    H233275   4.249   5.528   2.382 -0.0728 -0.2970 -0.2109
 3954TIP3   OH233276   2.084   6.151  14.255  0.1159  0.8041  0.4833
 3954TIP3    H133277   2.056   6.176  14.343  0.1809  0.5656  0.5707
 3954TIP3    H233278   2.085   6.233  14.206 -0.5497  0.8440  0.5318
 3955TIP3   OH233279   2.682   2.609   1.084  0.4883 -0.2085  0.6152
 3955TIP3    H133280   2.652   2.565   1.004 -0.7190  1.3675  0.1520
 3955TIP3    H233281   2.716   2.538   1.139  0.6082 -1.4269 -0.9584
 3956TIP3   OH233282   2.237   0.796   0.017 -0.2817 -0.8143 -0.0872
 3956TIP3    H133283   2.206   0.854  -0.053 -0.8167  1.9122  2.1921
 3956TIP3    H233284   2.197   0.712  -0.001 -3.6874  0.8260 -0.9456
 3957TIP3   OH233285   4.597   3.280  12.313 -0.3047  0.1198  0.0190
 3957TIP3    H133286   4.559   3.351  12.261  1.3053  0.0530 -1.3520
 3957TIP3    H233287   4.671   3.320  12.359 -0.0021 -0.4409  0.0360
 3958TIP3   OH233288   6.364   0.310  15.072  0.1792 -0.3118 -0.0169
 3958TIP3    H133289   6.286   0.358  15.100  0.9578  1.3517 -0.5955
 3958TIP3    H233290   6.368   0.324  14.978  1.1577 -0.3985  0.0010
 3959TIP3   OH233291   4.041   5.762  15.415  0.3422  0.0887 -0.1227
 3959TIP3    H133292   4.074   5.798  15.498 -0.5313 -1.2205  0.8304
 3959TIP3    H233293   3.955   5.726  15.437 -0.4837  0.8468 -1.8996
 3960TIP3   OH233294   5.404   1.802  16.524 -0.1682 -0.8193  0.6438
 3960TIP3    H133295   5.473   1.837  16.580  0.7086 -1.0668 -0.2590
 3960TIP3    H233296   5.436   1.815  16.435 -1.8594  0.2060  0.1536
 3961TIP3   OH233297   0.628   0.791   5.896  0.9431  0.6172  0.4161
 3961TIP3    H133298   0.667   0.789   5.983  1.4032  0.0166  0.2025
 3961TIP3    H233299   0.548   0.738   5.905  1.0100  0.5238  0.4681
 3962TIP3   OH233300   4.103   0.355  16.412 -0.0787 -0.1243 -0.0326
 3962TIP3    H133301   4.049   0.297  16.359 -0.3481  0.1487 -0.0605
 3962TIP3    H233302   4.186   0.308  16.422 -0.1718 -0.3600 -0.3466
 3963TIP3   OH233303   2.179   6.347  13.549  0.1376  0.6346 -0.0508
 3963TIP3    H133304   2.259   6.400  13.553  0.4678  0.1946 -0.6219
 3963TIP3    H233305   2.209   6.259  13.526 -0.5750  0.6380 -1.0893
 3964TIP3   OH233306   2.423   6.253  13.816 -0.2487  0.0715  0.2615
 3964TIP3    H133307   2.387   6.334  13.851  1.0161  0.7309  0.0986
 3964TIP3    H233308   2.444   6.274  13.725  0.6967 -0.2215  0.3982
 3965TIP3   OH233309   2.775   1.727   4.016 -0.1353 -0.3078  0.1026
 3965TIP3    H133310   2.835   1.663   3.978 -0.9970 -1.2168  0.2216
 3965TIP3    H233311   2.824   1.766   4.088  0.7507 -0.1085 -0.5873
 3966TIP3   OH233312   6.308   5.471  12.487  0.0735 -0.2705 -0.5791
 3966TIP3    H133313   6.344   5.486  12.574  2.0319 -1.3464 -1.1417
 3966TIP3    H233314   6.241   5.404  12.500 -1.4979  1.4239  0.4301
 3967TIP3   OH233315   0.540   3.759   1.575  0.5827  0.0173  0.0057
 3967TIP3    H133316   0.466   3.718   1.619 -0.2383  2.1443  0.7510
 3967TIP3    H233317   0.502   3.797   1.495  1.4563 -1.1836 -1.0302
 3968TIP3   OH233318   6.404   4.729  12.503  0.4041 -0.3123 -0.0894
 3968TIP3    H133319   6.457   4.783  12.446  1.5876 -1.3956 -0.0670
 3968TIP3    H233320   6.453   4.647  12.511 -1.4700 -1.5334 -0.4043
 3969TIP3   OH233321   3.945   6.613   0.293  0.0773  0.2122 -0.2178
 3969TIP3    H133322   4.001   6.690   0.278  2.1759 -1.1122  0.3488
 3969TIP3    H233323   3.993   6.562   0.359 -0.8607 -1.9532 -1.1378
 3970TIP3   OH233324   0.737   3.120   4.071 -1.0586  0.4251  0.0186
 3970TIP3    H133325   0.649   3.142   4.041 -0.9635  0.2247 -0.4209
 3970TIP3    H233326   0.782   3.205   4.075 -0.4550  0.3077 -2.4413
 3971TIP3   OH233327   0.458   6.325  11.319  0.0826 -0.4167 -0.3282
 3971TIP3    H133328   0.440   6.392  11.252  0.1263 -1.1337 -1.0650
 3971TIP3    H233329   0.383   6.331  11.379  0.3927  0.7208 -0.0228
 3972TIP3   OH233330   5.373   5.741   0.975  0.4229  0.0334  0.1683
 3972TIP3    H133331   5.457   5.699   0.994  1.4900  0.5443 -2.9113
 3972TIP3    H233332   5.323   5.674   0.929 -0.0154  0.4167  0.0894
 3973TIP3   OH233333   1.695   4.950  12.121 -0.0877  0.4234  0.0459
 3973TIP3    H133334   1.710   4.901  12.202  0.0245  0.0901 -0.1761
 3973TIP3    H233335   1.693   5.042  12.149 -1.9908  0.2269  0.7469
 3974TIP3   OH233336   0.090   1.808   3.059 -0.1745 -0.1060 -0.9062
 3974TIP3    H133337   0.130   1.803   2.972 -0.9657 -0.2276 -1.2685
 3974TIP3    H233338   0.164   1.798   3.120  0.5835  1.2518 -1.5355
 3975TIP3   OH233339   5.340   2.960   2.692 -0.2914 -0.3528 -0.1941
 3975TIP3    H133340   5.407   3.002   2.745  1.5329 -0.3179 -2.3961
 3975TIP3    H233341   5.350   2.866   2.711 -0.5515 -0.2510  0.4764
 3976TIP3   OH233342   0.049   5.815  12.295 -0.3642 -0.1270 -0.2993
 3976TIP3    H133343   0.109   5.774  12.357 -0.7565  0.6522  0.6252
 3976TIP3    H233344  -0.034   5.769  12.307 -0.4285 -0.0094 -0.2956
 3977TIP3   OH233345   0.719   1.471   4.093  0.2516  0.0383  0.5907
 3977TIP3    H133346   0.759   1.525   4.025 -0.7140  0.1769  0.1249
 3977TIP3    H233347   0.705   1.386   4.052  0.9700 -0.3199  1.0606
 3978TIP3   OH233348   4.267   4.439  12.173  0.3042  0.7221  0.1189
 3978TIP3    H133349   4.349   4.486  12.189  0.6893  0.0700  0.0634
 3978TIP3    H233350   4.293   4.359  12.127 -0.3452  0.4285  0.2470
 3979TIP3   OH233351   1.720   3.559  14.645  0.2681  0.4915 -0.0976
 3979TIP3    H133352   1.770   3.490  14.691 -0.3884 -0.4950 -0.8256
 3979TIP3    H233353   1.779   3.589  14.576  0.1193 -0.1910 -0.5290
 3980TIP3   OH233354   6.368   6.114   5.723 -0.2692  0.3824 -0.0936
 3980TIP3    H133355   6.394   6.022   5.723 -0.5849  0.2737  1.1488
 3980TIP3    H233356   6.431   6.157   5.665  0.5855 -0.4263  0.2089
 3981TIP3   OH233357   3.138   5.139  11.342 -0.4962 -0.0543  0.1668
 3981TIP3    H133358   3.214   5.151  11.400 -0.0088 -0.2217 -0.4283
 3981TIP3    H233359   3.069   5.107  11.400 -0.3978  1.0069  0.8859
 3982TIP3   OH233360   0.672   6.579   0.344 -0.0229 -0.7377  0.1679
 3982TIP3    H133361   0.731   6.510   0.314  1.3309  0.1436  0.6924
 3982TIP3    H233362   0.672   6.570   0.440 -0.3597 -0.4269  0.1996
 3983TIP3   OH233363   0.640   3.557   3.901  0.5129 -0.1192 -0.5144
 3983TIP3    H133364   0.574   3.615   3.864  0.0866 -2.0406 -2.9545
 3983TIP3    H233365   0.592   3.479   3.929  1.2776  0.0041  1.3004
 3984TIP3   OH233366   6.567   4.285   0.076  0.0455 -0.0657  0.4715
 3984TIP3    H133367   6.507   4.313   0.006  0.3268  1.2109  0.7133
 3984TIP3    H233368   6.648   4.332   0.058  0.7112 -1.1460  0.6254
 3985TIP3   OH233369   1.984   2.762  14.236  0.1148  0.1709 -0.2534
 3985TIP3    H133370   1.896   2.789  14.262  0.4959  0.6345  0.6217
 3985TIP3    H233371   1.977   2.668  14.220 -0.5679  0.2277 -0.3155
 3986TIP3   OH233372   4.628   4.230   5.646  0.0090  0.1009 -0.8474
 3986TIP3    H133373   4.568   4.256   5.576 -0.4511  0.0464 -0.4784
 3986TIP3    H233374   4.601   4.140   5.667  1.1783 -0.4729 -1.6918
 3987TIP3   OH233375   2.805   3.003   4.746 -0.3754 -0.3474  0.2009
 3987TIP3    H133376   2.774   2.943   4.814 -0.2183  0.9289  1.4711
 3987TIP3    H233377   2.739   3.074   4.746  0.2110  0.2061 -0.1935
 3988TIP3   OH233378   5.317   1.714   0.916 -0.4871 -0.2562  0.2056
 3988TIP3    H133379   5.410   1.716   0.936 -0.6248 -1.3961  1.0368
 3988TIP3    H233380   5.274   1.747   0.995 -0.7978  0.5655 -0.2837
 3989TIP3   OH233381   6.691   3.551   0.815  0.8841 -0.2915  0.0337
 3989TIP3    H133382   6.630   3.485   0.849  0.3355 -0.6348 -1.5476
 3989TIP3    H233383   6.648   3.585   0.737  2.9870 -1.0399 -1.5417
 3990TIP3   OH233384   5.064   1.247  17.104  0.7541  0.4043  0.1492
 3990TIP3    H133385   5.111   1.198  17.172  1.8840 -0.0239 -0.8983
 3990TIP3    H233386   4.974   1.250  17.134  0.2441 -3.6723 -0.4213
 3991TIP3   OH233387   5.323   4.869   5.206 -0.2068 -0.8064  1.1399
 3991TIP3    H133388   5.302   4.826   5.290  0.4860  0.7193  2.1317
 3991TIP3    H233389   5.305   4.962   5.221 -3.3410 -0.8168 -1.4862
 3992TIP3   OH233390   0.059   0.712  14.654 -0.4266  0.3171 -0.2293
 3992TIP3    H133391   0.085   0.764  14.579 -1.6844  0.2350 -0.7436
 3992TIP3    H233392  -0.029   0.681  14.633 -0.5669 -0.2002  1.0170
 3993TIP3   OH233393   6.273   2.851   5.903 -0.5320 -0.4120  0.0005
 3993TIP3    H133394   6.183   2.881   5.888  0.2289  2.1008 -0.0815
 3993TIP3    H233395   6.303   2.822   5.816 -1.0444 -0.6145 -0.1110
 3994TIP3   OH233396   5.522   1.025  13.705  0.4000 -0.6046  0.1081
 3994TIP3    H133397   5.496   1.093  13.644  0.1942 -1.7906 -1.1633
 3994TIP3    H233398   5.474   1.046  13.786 -0.9491 -0.1817 -0.7704
 3995TIP3   OH233399   3.273   0.085   3.844  0.1073 -0.0192 -0.2844
 3995TIP3    H133400   3.261   0.014   3.907 -3.0879  1.1000  0.5582
 3995TIP3    H233401   3.209   0.067   3.775 -0.2302  1.5965 -0.4314
 3996TIP3   OH233402   2.199   4.226  10.628 -0.3319  0.0479 -0.0353
 3996TIP3    H133403   2.179   4.307  10.582 -0.2189  2.3113  3.5542
 3996TIP3    H233404   2.117   4.176  10.626 -0.8153  0.8458 -1.1116
 3997TIP3   OH233405   1.063   3.458  12.824 -0.4065  0.1934  0.0067
 3997TIP3    H133406   1.045   3.365  12.813  1.7334 -0.4664  1.6545
 3997TIP3    H233407   1.095   3.486  12.738 -0.9167 -0.6066 -0.4609
 3998TIP3   OH233408   2.171   1.188   6.594  0.2371  0.5078  0.2779
 3998TIP3    H133409   2.260   1.223   6.587  0.7291 -0.8078 -0.4005
 3998TIP3    H233410   2.182   1.093   6.589 -1.3479  0.3520 -1.7377
 3999TIP3   OH233411   2.668   4.493  11.996  0.1539 -0.0754 -0.0525
 3999TIP3    H133412   2.721   4.523  12.070  0.8915  0.8549 -0.9281
 3999TIP3    H233413   2.645   4.574  11.950 -2.3654 -0.3948  0.4856
 4000TIP3   OH233414   2.919   1.720   6.066 -0.6461  0.3835  0.4410
 4000TIP3    H133415   2.847   1.765   6.110 -0.3823  0.1267  1.1588
 4000TIP3    H233416   2.968   1.678   6.137  0.7229  1.2780  0.0545
 4001TIP3   OH233417   4.975   1.695   4.671 -0.3664 -0.1880  0.2592
 4001TIP3    H133418   4.961   1.740   4.588  0.3906  0.3975  0.4425
 4001TIP3    H233419   4.910   1.733   4.731 -0.2626  0.0893  0.1967
 4002TIP3   OH233420   3.329   0.212  12.572 -0.7204  0.4032  0.1675
 4002TIP3    H133421   3.253   0.164  12.540 -0.4519  1.8126 -2.8448
 4002TIP3    H233422   3.319   0.300  12.536  1.2861  1.2259  1.4619
 4003TIP3   OH233423   2.555   5.704   0.947  0.1164  0.0442  0.2322
 4003TIP3    H133424   2.583   5.782   0.899  0.5243 -1.3702 -1.9861
 4003TIP3    H233425   2.476   5.676   0.903 -0.2405 -0.6063  1.2459
 4004TIP3   OH233426   1.771   3.728   0.075  0.3018  0.5370 -0.0429
 4004TIP3    H133427   1.716   3.728  -0.003 -1.3755  2.3707  1.0698
 4004TIP3    H233428   1.775   3.636   0.101 -3.3821  0.4187  0.5740
 4005TIP3   OH233429   6.469   3.126   5.352  0.6965 -0.1433  0.0702
 4005TIP3    H133430   6.491   3.034   5.366  1.4130 -0.3593 -2.0851
 4005TIP3    H233431   6.540   3.160   5.299 -0.4626  1.1712 -0.7170
 4006TIP3   OH233432   3.034   4.421  11.041 -0.0222  0.3719  0.8327
 4006TIP3    H133433   3.058   4.396  10.952 -0.5178 -1.5175  1.1868
 4006TIP3    H233434   3.060   4.346  11.095 -2.4532  0.1658  1.8436
 4007TIP3   OH233435   4.517   2.570  11.932  0.0634 -0.2446  0.0978
 4007TIP3    H133436   4.554   2.645  11.979  0.1820  0.1735 -0.6513
 4007TIP3    H233437   4.440   2.545  11.983  0.1623  0.2306  0.4866
 4008TIP3   OH233438   0.958   0.115  17.357  0.1926  0.2584 -0.4224
 4008TIP3    H133439   1.000   0.147  17.277 -1.1226  0.8639 -0.9119
 4008TIP3    H233440   0.968   0.020  17.353  1.4309  0.3716 -0.5434
 4009TIP3   OH233441   4.867   6.316  11.936 -0.4294 -0.9073  0.3907
 4009TIP3    H133442   4.862   6.329  12.031  0.0759  0.2131  0.2736
 4009TIP3    H233443   4.896   6.400  11.901 -2.7917 -0.5940 -0.9937
 4010TIP3   OH233444   3.001   5.182  13.291 -0.4363 -0.0819  0.1081
 4010TIP3    H133445   2.926   5.154  13.240  0.2684 -1.2749 -0.3079
 4010TIP3    H233446   3.062   5.219  13.226 -1.7517  3.5566  0.7294
 4011TIP3   OH233447   4.312   5.871  15.185 -0.2408  0.3428  0.4935
 4011TIP3    H133448   4.370   5.916  15.247 -1.3680  0.6386  1.3612
 4011TIP3    H233449   4.365   5.799  15.151  0.5713  0.4784  1.4231
 4012TIP3   OH233450   4.890   2.714  12.564 -0.1052  0.7177 -0.3124
 4012TIP3    H133451   4.926   2.674  12.643  2.3742  0.3724 -1.5271
 4012TIP3    H233452   4.923   2.803  12.565 -0.6390  0.9211 -0.6161
 4013TIP3   OH233453   6.718   0.590  17.275 -0.2095  0.0451 -1.2550
 4013TIP3    H133454   6.670   0.530  17.218 -0.6660 -2.1473  1.2518
 4013TIP3    H233455   6.808   0.557  17.274 -0.4727 -0.8281  0.1728
 4014TIP3   OH233456   1.449   6.233  11.837  0.3200 -0.1206  0.0680
 4014TIP3    H133457   1.441   6.161  11.899 -0.9190 -1.1998 -1.2802
 4014TIP3    H233458   1.395   6.207  11.763 -0.1428  2.2033 -0.4754
 4015TIP3   OH233459   1.966   2.543  11.390 -0.5307 -0.3303  0.0050
 4015TIP3    H133460   2.040   2.587  11.431 -1.1022  0.8653 -0.2163
 4015TIP3    H233461   1.946   2.596  11.313 -2.1106 -0.1675  0.4910
 4016TIP3   OH233462   2.811   1.269  11.800 -0.2736 -0.1090 -0.0415
 4016TIP3    H133463   2.883   1.328  11.822  0.6744 -1.5481  0.8915
 4016TIP3    H233464   2.733   1.324  11.804  0.4137  0.8389  2.1043
 4017TIP3   OH233465   5.045   5.326  14.681  0.4047  0.3225  0.1933
 4017TIP3    H133466   5.133   5.335  14.644 -1.1724  1.9975 -3.8382
 4017TIP3    H233467   5.031   5.232  14.689  1.3742 -0.1733 -2.7213
 4018TIP3   OH233468   0.791   3.646  15.678 -0.3095 -0.1863  0.2981
 4018TIP3    H133469   0.729   3.719  15.684 -0.9822 -0.7654  0.5288
 4018TIP3    H233470   0.808   3.637  15.584  0.6961  1.0124  0.3457
 4019TIP3   OH233471   5.408   6.097  15.001  0.7760  0.3686 -0.0429
 4019TIP3    H133472   5.428   6.117  15.092  0.1372 -0.1697  0.2224
 4019TIP3    H233473   5.442   6.009  14.986 -0.4018 -0.1351  0.1131
 4020TIP3   OH233474   5.134   0.918   2.028 -0.6377  0.2092  0.1320
 4020TIP3    H133475   5.156   0.994   2.083  0.0224 -0.6297  1.0565
 4020TIP3    H233476   5.081   0.955   1.957 -1.0782  1.4047  1.0470
 4021TIP3   OH233477   3.664   2.156   1.158  0.0102 -0.9000  0.0441
 4021TIP3    H133478   3.668   2.247   1.131 -0.9084 -1.0073 -0.4633
 4021TIP3    H233479   3.729   2.112   1.104  1.3409 -0.3603  1.1388
 4022TIP3   OH233480   0.090   0.881  13.568  0.4422 -0.0772  0.1338
 4022TIP3    H133481   0.144   0.910  13.493  0.3289 -0.9365 -0.2920
 4022TIP3    H233482   0.109   0.787  13.576 -0.9056 -0.3707  0.0536
 4023TIP3   OH233483   2.802   4.672  10.717 -0.1203 -0.0859 -0.5772
 4023TIP3    H133484   2.820   4.625  10.635 -0.0554  0.0455 -0.6396
 4023TIP3    H233485   2.796   4.764  10.690  1.6541  0.1751 -0.1769
 4024TIP3   OH233486   1.008   6.499  15.155  0.3064 -0.3511  0.4863
 4024TIP3    H133487   0.937   6.476  15.095  0.3715  0.1069  0.2276
 4024TIP3    H233488   1.079   6.527  15.097  0.7824 -1.0173  0.7286
 4025TIP3   OH233489   5.385   1.118   6.816  0.1922 -0.4917 -0.3704
 4025TIP3    H133490   5.301   1.158   6.793  1.2554  2.1561  0.0540
 4025TIP3    H233491   5.370   1.080   6.903 -1.1967 -2.2157 -1.3150
 4026TIP3   OH233492   0.644   2.974  14.230 -0.3188  0.3425  0.3503
 4026TIP3    H133493   0.728   3.017  14.216 -0.2751  0.3139  0.5281
 4026TIP3    H233494   0.664   2.898  14.284 -0.7213  1.4196  2.1237
 4027TIP3   OH233495   6.159   0.067   1.978  0.2405  0.9336  0.6872
 4027TIP3    H133496   6.211  -0.006   2.012 -0.2735  0.9258  1.4704
 4027TIP3    H233497   6.069   0.034   1.978 -0.0751  1.7675  1.6104
 4028TIP3   OH233498   0.938   5.123   0.088 -0.0654  0.3128  0.4222
 4028TIP3    H133499   0.847   5.149   0.076 -0.1159  0.4651  1.0749
 4028TIP3    H233500   0.960   5.072   0.010 -1.2371 -1.1865  1.0169
 4029TIP3   OH233501   2.071   1.767   1.289 -0.3387  0.9193  0.5299
 4029TIP3    H133502   2.054   1.714   1.367 -1.7393  0.9038  0.2453
 4029TIP3    H233503   1.997   1.828   1.286 -0.2444  0.9876 -0.7237
 4030TIP3   OH233504   0.256   3.782  14.607  0.1491 -0.1822 -0.6542
 4030TIP3    H133505   0.276   3.869  14.573  1.4405 -0.4850 -0.7174
 4030TIP3    H233506   0.341   3.746  14.632 -0.2962 -1.6329 -1.1354
 4031TIP3   OH233507   5.964   4.229  12.393 -0.0712 -0.1750 -0.6095
 4031TIP3    H133508   5.976   4.136  12.378 -2.6947 -0.6133 -0.3222
 4031TIP3    H233509   5.882   4.251  12.350 -0.4559  1.5880  0.8624
 4032TIP3   OH233510   0.053   0.795   1.975  0.4139 -0.2683  0.4616
 4032TIP3    H133511   0.007   0.746   2.043  1.2012 -1.7330 -0.0084
 4032TIP3    H233512  -0.016   0.834   1.922 -0.2482 -0.9613  0.7972
 4033TIP3   OH233513   3.815   1.633   1.554  0.4936  0.2900  0.7935
 4033TIP3    H133514   3.831   1.693   1.480 -1.3705 -3.4173 -3.0524
 4033TIP3    H233515   3.747   1.676   1.605 -0.4153  1.7770 -1.4866
 4034TIP3   OH233516   1.058   3.257  13.826  0.0173 -0.0176 -0.9747
 4034TIP3    H133517   1.113   3.319  13.873  0.1901 -0.0833 -1.0913
 4034TIP3    H233518   0.979   3.307  13.805 -0.4257 -0.2296  0.1191
 4035TIP3   OH233519   0.362   6.509  11.131 -0.4180 -0.1645  0.4594
 4035TIP3    H133520   0.267   6.498  11.138 -0.5620  0.7959  0.2670
 4035TIP3    H233521   0.372   6.592  11.085  0.5216 -0.3053  0.3992
 4036TIP3   OH233522   3.926   1.051  16.515 -1.1573  0.1621 -0.2300
 4036TIP3    H133523   3.930   1.116  16.584 -2.1870  0.2069 -0.2044
 4036TIP3    H233524   3.910   1.101  16.435  0.5435  0.1624 -0.6081
 4037TIP3   OH233525   1.472   0.005  14.068 -0.6243  0.2502  0.1691
 4037TIP3    H133526   1.519  -0.005  13.985 -0.2790  1.0455  0.2611
 4037TIP3    H233527   1.405  -0.064  14.065 -1.1180  0.7354 -1.1218
 4038TIP3   OH233528   2.423   4.173  10.747  0.0068 -0.4221 -0.2276
 4038TIP3    H133529   2.338   4.189  10.705 -0.3267  0.7753  0.8718
 4038TIP3    H233530   2.476   4.248  10.723  1.0515 -1.5138 -1.5269
 4039TIP3   OH233531   1.603   5.575  12.994 -0.1296  0.0696 -0.0137
 4039TIP3    H133532   1.547   5.519  12.941 -0.0332  0.5900 -0.6652
 4039TIP3    H233533   1.594   5.662  12.957 -0.6559  0.6086  1.3010
 4040TIP3   OH233534   4.181   3.027  11.863  0.0920 -0.3791 -0.3729
 4040TIP3    H133535   4.095   3.023  11.904  0.3706  3.6861  1.0620
 4040TIP3    H233536   4.163   3.044  11.770 -0.6711  0.5740 -0.0571
 4041TIP3   OH233537   5.660   3.846  11.680  0.3622 -0.1627 -0.6791
 4041TIP3    H133538   5.576   3.807  11.655  0.3856 -1.0713  0.5491
 4041TIP3    H233539   5.679   3.807  11.765  0.2357  2.8070  0.8072
 4042TIP3   OH233540   3.545   6.139   0.719 -0.1134 -0.0449 -0.4268
 4042TIP3    H133541   3.506   6.097   0.642  1.7150 -1.5595 -0.6122
 4042TIP3    H233542   3.599   6.070   0.758  0.4569  1.2473  1.1637
 4043TIP3   OH233543   3.047   3.026   5.038  0.9182 -0.6422 -0.4217
 4043TIP3    H133544   3.004   3.104   5.002  1.3199 -0.4807 -0.5553
 4043TIP3    H233545   3.067   2.973   4.961  1.2080 -0.5893 -0.3824
 4044TIP3   OH233546   5.912   4.692   5.166 -0.0968  0.2268  0.2632
 4044TIP3    H133547   5.848   4.633   5.126 -1.2908  1.3956  0.3843
 4044TIP3    H233548   5.948   4.742   5.092  0.7609 -0.4759  0.1858
 4045TIP3   OH233549   0.836   4.997  15.347 -0.4382  0.1453 -0.1648
 4045TIP3    H133550   0.749   4.965  15.374 -0.2390 -1.4465 -1.2350
 4045TIP3    H233551   0.817   5.070  15.287 -1.0218  0.1911  0.0651
 4046TIP3   OH233552   4.241   1.227   0.565  0.0162 -0.0205 -0.4578
 4046TIP3    H133553   4.242   1.164   0.637  0.9619  1.0314  0.5124
 4046TIP3    H233554   4.308   1.196   0.504 -0.1392 -0.4292 -0.4174
 4047TIP3   OH233555   1.346   2.850  14.570 -0.0687  0.2196  0.1249
 4047TIP3    H133556   1.271   2.885  14.618  1.0868  1.4249  1.1182
 4047TIP3    H233557   1.423   2.884  14.616  1.1339 -2.0086 -0.0784
 4048TIP3   OH233558   1.751   1.328  12.597 -0.4235 -0.0605  0.1935
 4048TIP3    H133559   1.711   1.318  12.683  0.6183 -0.5060  0.6359
 4048TIP3    H233560   1.759   1.238  12.564 -2.5364  0.1955 -1.1953
 4049TIP3   OH233561   0.644   3.224   3.245  0.2585  0.5141  0.4059
 4049TIP3    H133562   0.682   3.279   3.313  0.0397  0.3928  0.6247
 4049TIP3    H233563   0.599   3.154   3.292 -0.7582  0.9897  0.1614
 4050TIP3   OH233564   2.289   0.600   3.476  0.3553 -0.5250  0.3314
 4050TIP3    H133565   2.321   0.682   3.439 -0.0197  1.3067  3.5997
 4050TIP3    H233566   2.369   0.552   3.499  0.6485  0.0658  0.5907
 4051TIP3   OH233567   2.218   5.903  14.787 -0.1598 -0.7948  0.0866
 4051TIP3    H133568   2.262   5.988  14.789  1.8721 -1.7055 -1.5489
 4051TIP3    H233569   2.147   5.911  14.850  1.8493  1.0714  2.2860
 4052TIP3   OH233570   4.587   0.952   6.219 -0.2750 -0.2530  0.2614
 4052TIP3    H133571   4.500   0.989   6.231 -0.3917 -0.4619  0.0630
 4052TIP3    H233572   4.646   1.014   6.262 -0.4625  0.1717 -0.0865
 4053TIP3   OH233573   6.111   1.251   0.710 -0.0289  0.1326  0.0035
 4053TIP3    H133574   6.141   1.183   0.649 -0.3874  1.0196 -1.2106
 4053TIP3    H233575   6.123   1.333   0.661 -2.7321  0.6806  0.1141
 4054TIP3   OH233576   5.508   2.536  16.693  0.4813  0.3928  0.2380
 4054TIP3    H133577   5.534   2.581  16.612  0.1633  0.3551  0.1144
 4054TIP3    H233578   5.415   2.558  16.704  0.0434 -1.0007 -0.3515
 4055TIP3   OH233579   1.976   6.091  11.564 -0.1177  0.0449 -0.2329
 4055TIP3    H133580   2.019   6.010  11.537  0.9039  0.8707 -1.1659
 4055TIP3    H233581   2.040   6.160  11.544 -0.8837  1.0669  0.7184
 4056TIP3   OH233582   5.810   3.858  15.106 -0.7543 -0.1215 -0.8154
 4056TIP3    H133583   5.742   3.905  15.057 -1.9633 -0.6687  0.2754
 4056TIP3    H233584   5.762   3.791  15.154  0.4136  0.2752  0.9734
 4057TIP3   OH233585   2.225   1.425  14.720 -0.0216 -0.2153  0.0813
 4057TIP3    H133586   2.200   1.337  14.689 -2.2120  0.4464 -0.2108
 4057TIP3    H233587   2.288   1.456  14.655  0.2131 -1.2853 -0.2217
 4058TIP3   OH233588   3.843   1.209  16.719 -0.2904 -0.5620 -0.3563
 4058TIP3    H133589   3.825   1.256  16.800  1.7478  0.5388 -0.4877
 4058TIP3    H233590   3.756   1.186  16.685 -1.2482  0.7291  1.0818
 4059TIP3   OH233591   3.179   5.585   3.304  0.5817 -0.3372 -0.3092
 4059TIP3    H133592   3.263   5.539   3.300  0.9153  0.2446 -0.1047
 4059TIP3    H233593   3.202   5.678   3.303 -0.0949 -0.1620 -0.9790
 4060TIP3   OH233594   4.138   2.799  13.193 -0.7430  0.0404 -0.0276
 4060TIP3    H133595   4.104   2.888  13.178  0.2822  0.4233 -0.2058
 4060TIP3    H233596   4.165   2.769  13.106  1.7226  0.7733  0.4070
 4061TIP3   OH233597   2.839   0.476  16.986 -0.2630  0.7953  0.3821
 4061TIP3    H133598   2.923   0.446  16.949  0.0987 -0.2472  1.9157
 4061TIP3    H233599   2.854   0.567  17.009  0.7451  0.4241  1.3120
 4062TIP3   OH233600   1.009   3.594  15.216 -0.2590 -0.7138  0.4355
 4062TIP3    H133601   0.981   3.686  15.217  0.5743 -0.4214  2.2625
 4062TIP3    H233602   1.034   3.577  15.125 -0.4336  0.8686  0.0603
 4063TIP3   OH233603   0.322   3.666   3.825  0.2767 -0.4963 -0.3454
 4063TIP3    H133604   0.306   3.737   3.886  1.9100 -0.0069 -0.4406
 4063TIP3    H233605   0.291   3.588   3.871  0.7961 -0.0451  0.8260
 4064TIP3   OH233606   0.297   2.554  14.473 -0.4189  0.2305  0.0190
 4064TIP3    H133607   0.350   2.505  14.411 -2.2909 -2.0410  0.0873
 4064TIP3    H233608   0.293   2.498  14.551 -2.0939  0.7798  0.3555
 4065TIP3   OH233609   0.080   5.632  16.113  0.0177 -0.1406 -0.4749
 4065TIP3    H133610   0.116   5.695  16.050 -0.1985 -0.6513 -1.1178
 4065TIP3    H233611   0.081   5.679  16.197  0.8279  0.3543 -0.7500
 4066TIP3   OH233612   6.731   2.619   2.329 -0.3267  0.0570  0.1440
 4066TIP3    H133613   6.738   2.708   2.295  0.5863  0.5583  1.5517
 4066TIP3    H233614   6.819   2.600   2.363 -1.4531  0.1985  3.5322
 4067TIP3   OH233615   6.301   3.758   2.997  0.2646 -0.4938  0.4915
 4067TIP3    H133616   6.344   3.673   2.996 -0.8772 -1.0876 -0.1010
 4067TIP3    H233617   6.209   3.738   2.982  0.0664  0.9009 -0.2670
 4068TIP3   OH233618   6.670   1.919  11.217 -0.1615  0.3465 -0.2135
 4068TIP3    H133619   6.682   1.977  11.141  0.2678 -2.3109 -2.3030
 4068TIP3    H233620   6.581   1.937  11.247  0.0422  2.2235 -0.6111
 4069TIP3   OH233621   4.824   5.670   1.611  0.0720  0.5514 -0.6113
 4069TIP3    H133622   4.757   5.606   1.590  0.4604 -0.7671  1.8038
 4069TIP3    H233623   4.804   5.746   1.556 -2.2493 -0.4878 -1.2943
 4070TIP3   OH233624   5.147   6.452   1.173 -0.4682  0.3428  0.1153
 4070TIP3    H133625   5.136   6.542   1.142 -0.2883  0.5324  0.5867
 4070TIP3    H233626   5.099   6.449   1.255 -0.8157 -0.1119 -0.0991
 4071TIP3   OH233627   3.458   6.457  10.958 -0.2585 -0.2651  0.5369
 4071TIP3    H133628   3.533   6.397  10.953 -0.5338 -0.7999  2.2894
 4071TIP3    H233629   3.446   6.486  10.868  1.5868 -0.7414  0.0828
 4072TIP3   OH233630   4.003   2.237  12.363  0.3802 -0.1405  0.1479
 4072TIP3    H133631   3.949   2.314  12.380 -1.0228 -1.3088  1.2121
 4072TIP3    H233632   4.008   2.192  12.447  1.3932 -1.0809 -0.3901
 4073TIP3   OH233633   2.863   5.549   0.209  0.1110  0.1011 -0.3870
 4073TIP3    H133634   2.779   5.593   0.193 -0.4281 -0.3040  1.1932
 4073TIP3    H233635   2.885   5.509   0.125 -1.4148 -0.0091 -0.7672
 4074TIP3   OH233636   6.417   5.272   1.789 -0.1812 -0.0589 -0.0554
 4074TIP3    H133637   6.440   5.294   1.698  2.0161 -0.2733  0.3952
 4074TIP3    H233638   6.498   5.237   1.826 -1.3511 -1.0750  1.6728
 4075TIP3   OH233639   4.406   2.812   0.092 -0.8398  0.2743  0.2945
 4075TIP3    H133640   4.381   2.721   0.074 -1.9881  0.4925  0.6907
 4075TIP3    H233641   4.498   2.807   0.115 -0.5662 -0.6297 -0.8931
 4076TIP3   OH233642   4.134   0.714  14.494 -1.3086  0.0493 -0.6396
 4076TIP3    H133643   4.177   0.634  14.464  0.3049  0.9802 -0.9639
 4076TIP3    H233644   4.096   0.752  14.415  0.0198  0.7896 -0.9563
 4077TIP3   OH233645   4.013   3.249   1.376 -0.4638 -0.5475 -0.6348
 4077TIP3    H133646   4.089   3.307   1.385 -0.1334 -0.9698 -0.7137
 4077TIP3    H233647   3.950   3.301   1.325 -1.6526  1.2024  2.3241
 4078TIP3   OH233648   3.126   1.622  12.381  0.6714  0.3762  0.6511
 4078TIP3    H133649   3.135   1.651  12.290  0.9137  0.2965  0.6489
 4078TIP3    H233650   3.032   1.614  12.394  0.5373  2.1552  0.9702
 4079TIP3   OH233651   0.658   1.584  16.967  0.3757  0.1906  0.1960
 4079TIP3    H133652   0.658   1.614  17.058 -0.2493  1.7165 -0.2783
 4079TIP3    H233653   0.728   1.634  16.925  0.7804 -0.6353 -0.1393
 4080TIP3   OH233654   3.696   0.202   4.738  0.2970 -0.6431 -0.2703
 4080TIP3    H133655   3.604   0.180   4.723 -0.2334  1.4230 -0.2664
 4080TIP3    H233656   3.737   0.189   4.652 -0.3487  0.0148 -0.6925
 4081TIP3   OH233657   0.484   3.029   3.354 -0.0031  0.2385  0.1569
 4081TIP3    H133658   0.517   3.001   3.439 -0.5130  0.4683  0.4300
 4081TIP3    H233659   0.445   2.950   3.316 -2.3917  0.7542  1.3687
 4082TIP3   OH233660   2.615   1.327   1.106 -0.1216  0.3063 -0.1952
 4082TIP3    H133661   2.690   1.306   1.051 -0.1019  0.5428 -0.2595
 4082TIP3    H233662   2.552   1.257   1.089  0.1841 -0.0319  0.0491
 4083TIP3   OH233663   2.184   5.362   1.825  0.3428  0.3036 -0.3179
 4083TIP3    H133664   2.209   5.309   1.901 -2.7399 -0.7381  0.1129
 4083TIP3    H233665   2.125   5.428   1.861 -0.2153  0.5462 -1.6461
 4084TIP3   OH233666   5.007   4.874   3.351  0.4273  0.1041  0.3886
 4084TIP3    H133667   5.066   4.949   3.341  0.9348 -0.3193  0.1863
 4084TIP3    H233668   5.008   4.854   3.445  1.6459 -0.7281  0.2182
 4085TIP3   OH233669   3.667   1.539   5.783  0.1946 -0.0047 -0.2861
 4085TIP3    H133670   3.658   1.542   5.879 -1.8085 -1.0150 -0.3909
 4085TIP3    H233671   3.712   1.621   5.761  1.7873 -0.3087  1.5980
 4086TIP3   OH233672   5.229   2.309  12.124 -0.0210  0.1346  0.2187
 4086TIP3    H133673   5.186   2.375  12.178 -0.4570  0.9348 -1.0655
 4086TIP3    H233674   5.266   2.247  12.187  1.1340  2.0330  1.5272
 4087TIP3   OH233675   1.710   6.145  13.457 -0.0599 -0.1194 -0.3039
 4087TIP3    H133676   1.664   6.083  13.513 -1.0511  0.1907 -0.7572
 4087TIP3    H233677   1.688   6.231  13.494 -1.9343  0.1983 -1.9750
 4088TIP3   OH233678   2.524   4.856  12.306 -0.2552 -0.0832 -0.6567
 4088TIP3    H133679   2.540   4.814  12.221 -1.4840  0.0270 -0.9685
 4088TIP3    H233680   2.580   4.809  12.367  1.2609  0.3353 -1.6398
 4089TIP3   OH233681   4.415   2.866  13.503  0.4138  0.2620  0.5620
 4089TIP3    H133682   4.450   2.865  13.592 -0.2758 -0.4011  0.8383
 4089TIP3    H233683   4.366   2.784  13.496 -0.9588  1.0796  0.1682
 4090TIP3   OH233684   4.204   0.944   3.338 -0.1745  1.0922 -0.3019
 4090TIP3    H133685   4.163   0.883   3.276  0.7394  0.1086  0.0299
 4090TIP3    H233686   4.182   1.031   3.304  0.5958  0.5879 -2.2283
 4091TIP3   OH233687   6.475   4.621   6.159 -0.2996  0.3171  0.1787
 4091TIP3    H133688   6.461   4.551   6.222  1.6358 -0.3101 -0.0047
 4091TIP3    H233689   6.551   4.668   6.193 -0.8566  1.6125 -0.3212
 4092TIP3   OH233690   3.451   0.654   5.565  0.1305 -0.2239  0.1381
 4092TIP3    H133691   3.469   0.721   5.500  0.9456 -1.7027 -1.2312
 4092TIP3    H233692   3.355   0.652   5.572  0.0727  0.6150 -0.2671
 4093TIP3   OH233693   5.333   4.579  13.606 -0.0053 -0.7064 -0.2270
 4093TIP3    H133694   5.277   4.567  13.683 -0.4858 -0.4477 -0.5337
 4093TIP3    H233695   5.314   4.503  13.551 -1.5641  0.3562 -1.2512
 4094TIP3   OH233696   4.618   6.272  14.322  0.4446  0.1996 -0.3464
 4094TIP3    H133697   4.583   6.184  14.312  0.9061 -0.2148  1.3813
 4094TIP3    H233698   4.662   6.290  14.240 -0.1314 -0.9576 -0.9331
 4095TIP3   OH233699   2.451   3.237   4.319  0.3789  0.1937 -0.2605
 4095TIP3    H133700   2.486   3.184   4.390 -0.1310  1.8663  1.3250
 4095TIP3    H233701   2.405   3.175   4.262  2.6406 -1.4918 -0.3558
 4096TIP3   OH233702   0.251   2.385   6.493 -0.3161  0.6522 -0.4348
 4096TIP3    H133703   0.197   2.307   6.504  1.4922 -0.8373 -1.5142
 4096TIP3    H233704   0.320   2.376   6.558  0.8218  0.4895 -1.6406
 4097TIP3   OH233705   0.745   3.669   0.838  0.2634  0.2063 -0.3052
 4097TIP3    H133706   0.672   3.624   0.794  1.6922 -2.8974  0.2372
 4097TIP3    H233707   0.740   3.639   0.929  0.5082  2.3452  0.4756
 4098TIP3   OH233708   1.502   4.557   3.192 -0.1220  0.1952 -0.3897
 4098TIP3    H133709   1.509   4.605   3.275 -1.4340 -1.8361  0.9947
 4098TIP3    H233710   1.591   4.524   3.177  0.1960  0.8136  0.0622
 4099TIP3   OH233711   1.850   0.488  10.686  0.1510 -0.1746  0.2231
 4099TIP3    H133712   1.865   0.570  10.639 -2.6220 -1.1965 -2.8685
 4099TIP3    H233713   1.883   0.420  10.628 -1.8077 -1.4358  0.4957
 4100TIP3   OH233714   1.707   6.377   1.362 -0.3481  0.3494  0.3714
 4100TIP3    H133715   1.648   6.316   1.406 -0.5856  0.5538  0.3377
 4100TIP3    H233716   1.730   6.440   1.430 -1.1130  0.9567  0.0781
 4101TIP3   OH233717   6.645   1.559   2.695  0.5246  0.0255 -0.9397
 4101TIP3    H133718   6.612   1.545   2.784  1.4488 -0.4260 -0.6527
 4101TIP3    H233719   6.740   1.562   2.706  0.5884  2.3159 -1.5778
 4102TIP3   OH233720   1.951   0.419  12.062 -0.4317 -0.4749 -0.5040
 4102TIP3    H133721   2.000   0.489  12.020  0.0426  1.6619  3.1642
 4102TIP3    H233722   1.864   0.456  12.077  0.0537 -0.2260  2.1721
 4103TIP3   OH233723   3.011   3.716  11.738  0.1114 -0.5450  0.1951
 4103TIP3    H133724   3.048   3.748  11.821  0.0072  0.2862 -0.0654
 4103TIP3    H233725   3.081   3.662  11.701  0.6126  0.0237  0.2830
 4104TIP3   OH233726   3.771   6.381   5.691 -0.3059  0.1917 -0.3482
 4104TIP3    H133727   3.783   6.350   5.601  0.6283 -1.3957  0.2786
 4104TIP3    H233728   3.823   6.461   5.696 -0.4376  0.3425 -1.2383
 4105TIP3   OH233729   0.505   3.489  14.613 -0.0872  0.1110  0.6499
 4105TIP3    H133730   0.485   3.413  14.558 -0.6938  0.6376  0.1304
 4105TIP3    H233731   0.440   3.485  14.683 -0.0085  0.0594  0.7208
 4106TIP3   OH233732   5.206   4.823  15.903  0.3171 -0.2460  0.2543
 4106TIP3    H133733   5.228   4.908  15.940  0.8241 -0.6787  0.9739
 4106TIP3    H233734   5.223   4.761  15.974 -3.3516 -0.6519  0.9467
 4107TIP3   OH233735   6.178   5.588  13.668  1.0066  0.1734  0.0100
 4107TIP3    H133736   6.104   5.633  13.627  0.2449  0.2982  1.4283
 4107TIP3    H233737   6.167   5.496  13.644  0.5304  0.2354 -0.0223
 4108TIP3   OH233738   0.568   3.483   6.196  0.6252  0.1192  0.1001
 4108TIP3    H133739   0.503   3.527   6.251  0.1522  0.4782 -0.7366
 4108TIP3    H233740   0.565   3.391   6.224 -0.0474  0.1839  0.2571
 4109TIP3   OH233741   1.314   4.438   2.029  0.9422 -0.2411 -0.1654
 4109TIP3    H133742   1.392   4.448   2.084  0.8688  3.0959 -0.4997
 4109TIP3    H233743   1.347   4.433   1.940  0.8466 -0.2052 -0.2037
 4110TIP3   OH233744   1.642   2.895   4.319 -0.0550  0.5655  0.4686
 4110TIP3    H133745   1.636   2.820   4.260 -1.0348 -0.3594  1.6798
 4110TIP3    H233746   1.685   2.860   4.398 -2.7235  0.5634  2.0415
 4111TIP3   OH233747   4.097   0.348   2.483  0.4520 -0.0771 -0.4098
 4111TIP3    H133748   4.017   0.342   2.431 -0.5322 -0.6407  1.1178
 4111TIP3    H233749   4.157   0.399   2.429 -0.5797 -0.4966 -2.0156
 4112TIP3   OH233750   3.626   3.152   2.552  0.2665  0.3572 -0.2389
 4112TIP3    H133751   3.546   3.170   2.502  0.6519  1.7432 -0.4119
 4112TIP3    H233752   3.604   3.176   2.642  0.2726  0.0578 -0.1574
 4113TIP3   OH233753   1.691   4.433   3.958  0.0387  0.3862  0.2356
 4113TIP3    H133754   1.753   4.394   3.897 -0.6541 -1.8153  0.8298
 4113TIP3    H233755   1.659   4.511   3.914 -0.3337 -1.0381 -2.1461
 4114TIP3   OH233756   1.351   0.624  13.686 -0.2950  0.4215  0.4477
 4114TIP3    H133757   1.407   0.549  13.667 -1.7708 -0.4578 -0.6824
 4114TIP3    H233758   1.376   0.690  13.621 -1.1335 -0.2971 -0.6335
 4115TIP3   OH233759   5.087   4.269   2.170  0.5827  0.5432 -0.3255
 4115TIP3    H133760   5.017   4.305   2.115 -0.1068 -1.2788 -0.7062
 4115TIP3    H233761   5.042   4.209   2.229  1.7494 -0.1329 -0.1002
 4116TIP3   OH233762   3.814   2.801   2.517 -0.7618 -0.4107  0.6390
 4116TIP3    H133763   3.752   2.786   2.588  0.6116 -1.0583  1.7414
 4116TIP3    H233764   3.877   2.729   2.524  0.2802  0.3744 -0.2561
 4117TIP3   OH233765   4.083   3.431  16.994  0.7734  0.9886  0.2393
 4117TIP3    H133766   4.085   3.340  16.963 -0.6756  0.7111  0.8557
 4117TIP3    H233767   4.130   3.480  16.927  0.0348  0.0305 -1.0387
 4118TIP3   OH233768   6.408   6.132   3.718  0.0397  0.6023 -0.2177
 4118TIP3    H133769   6.489   6.140   3.770 -0.1097  0.4833  0.0350
 4118TIP3    H233770   6.431   6.071   3.647  0.0245  0.1563  0.1542
 4119TIP3   OH233771   6.033   2.093  17.197 -0.2805 -0.1864  0.4791
 4119TIP3    H133772   6.096   2.146  17.245 -0.2614  2.7096 -2.4051
 4119TIP3    H233773   6.070   2.083  17.110 -3.2079  0.7401 -1.0260
 4120TIP3   OH233774   5.713   3.071   3.307  0.3562 -0.1048 -0.7027
 4120TIP3    H133775   5.717   3.159   3.270  2.2481  0.1035 -0.1323
 4120TIP3    H233776   5.750   3.015   3.239  0.4120 -0.2602 -0.5433
 4121TIP3   OH233777   2.603   6.301  11.144  0.7334 -0.5154  0.3005
 4121TIP3    H133778   2.601   6.322  11.237  0.9742 -0.9495  0.4075
 4121TIP3    H233779   2.674   6.355  11.109  0.7528 -0.4767  0.4001
 4122TIP3   OH233780   4.762   1.575   3.337  0.2297 -0.6097 -0.1626
 4122TIP3    H133781   4.724   1.490   3.315  0.9361 -0.6677 -1.2346
 4122TIP3    H233782   4.853   1.569   3.309  0.4766  0.2555  0.4174
 4123TIP3   OH233783   1.099   6.737   2.390 -0.0696 -0.0719  0.0238
 4123TIP3    H133784   1.153   6.761   2.315 -0.3705 -2.4657 -1.0440
 4123TIP3    H233785   1.146   6.664   2.431 -1.4786 -0.8842  0.2589
 4124TIP3   OH233786   0.711   6.307   2.251 -0.3697  0.2509 -0.7894
 4124TIP3    H133787   0.634   6.286   2.303  0.4214 -1.9805 -0.3984
 4124TIP3    H233788   0.785   6.285   2.307  0.5772  1.6202 -1.4330
 4125TIP3   OH233789   5.534   1.513  15.096  0.0883  0.7351  0.5419
 4125TIP3    H133790   5.528   1.606  15.116 -2.0340  0.7683  0.0642
 4125TIP3    H233791   5.486   1.503  15.013  2.0915 -0.5017 -0.5618
 4126TIP3   OH233792   5.794   3.385   3.943  0.2819  0.2418 -0.7050
 4126TIP3    H133793   5.810   3.322   3.872 -0.5462 -0.0279 -0.6597
 4126TIP3    H233794   5.734   3.449   3.906 -0.1305  0.1174 -0.2574
 4127TIP3   OH233795   4.963   1.388   0.654  0.2725 -0.1885 -0.0872
 4127TIP3    H133796   4.935   1.323   0.589  0.4107 -0.5508  0.2154
 4127TIP3    H233797   4.889   1.449   0.660  0.5625  0.3062 -1.1638
 4128TIP3   OH233798   2.199   4.050   3.628  0.1986 -0.5924  0.1763
 4128TIP3    H133799   2.276   4.001   3.599  0.4459 -0.1349  0.0602
 4128TIP3    H233800   2.138   3.982   3.658  0.7906 -0.9342  0.6294
 4129TIP3   OH233801   0.535   4.225  16.986  0.3509  0.3243 -0.0725
 4129TIP3    H133802   0.513   4.235  16.893  0.9483  1.0856 -0.1430
 4129TIP3    H233803   0.617   4.175  16.986 -1.5849 -3.2095  0.2127
 4130TIP3   OH233804   5.905   3.442   0.158 -0.6192  0.2223  0.4929
 4130TIP3    H133805   5.897   3.484   0.244  0.3484  1.6902 -0.0934
 4130TIP3    H233806   5.909   3.515   0.096  0.2067 -0.7666 -0.6538
 4131TIP3   OH233807   0.140   5.160  13.688  0.1701 -0.7685 -0.2767
 4131TIP3    H133808   0.100   5.199  13.610  2.2274 -0.6377 -1.3233
 4131TIP3    H233809   0.125   5.225  13.758  1.8985  1.1385 -1.5551
 4132TIP3   OH233810   2.618   1.195  11.237  0.1358 -0.2553  0.6945
 4132TIP3    H133811   2.589   1.164  11.151 -0.0228 -1.4153  1.1550
 4132TIP3    H233812   2.658   1.118  11.278 -1.2607 -0.1760  2.3105
 4133TIP3   OH233813   2.098   0.310   1.667  0.0437  0.6134 -0.5892
 4133TIP3    H133814   2.069   0.225   1.633  0.5601  0.2279 -0.1065
 4133TIP3    H233815   2.115   0.363   1.589  1.7974 -0.4487 -0.9839
 4134TIP3   OH233816   1.680   1.383   1.053 -0.2043  0.4682  0.0986
 4134TIP3    H133817   1.611   1.321   1.031 -1.2660  1.8091 -0.4776
 4134TIP3    H233818   1.710   1.357   1.140  1.0628 -2.2949 -1.0591
 4135TIP3   OH233819   4.864   5.634  13.970  0.2721 -0.3078 -0.0222
 4135TIP3    H133820   4.775   5.662  13.991  0.1843 -0.6269  0.0460
 4135TIP3    H233821   4.909   5.635  14.055  0.8477  1.6012 -0.3031
 4136TIP3   OH233822   4.339   5.858   2.067  0.0292 -0.3106  0.5204
 4136TIP3    H133823   4.360   5.933   2.011 -0.7831  0.1574  0.8217
 4136TIP3    H233824   4.266   5.814   2.024 -1.9717  1.2014  2.1220
 4137TIP3   OH233825   1.465   1.222  15.084 -0.5732  0.2357 -0.5861
 4137TIP3    H133826   1.508   1.137  15.075 -0.4010  0.2965 -0.3465
 4137TIP3    H233827   1.526   1.284  15.045 -0.9026  0.1940 -1.1750
 4138TIP3   OH233828   2.056   6.606   1.708  0.1882 -0.1604 -0.1840
 4138TIP3    H133829   2.020   6.615   1.796  1.4257 -1.9113  0.5555
 4138TIP3    H233830   2.052   6.694   1.671  1.4795  1.0828  2.3689
 4139TIP3   OH233831   4.804   3.314  10.956 -0.0366 -0.1317  0.3704
 4139TIP3    H133832   4.761   3.233  10.984 -0.1607 -0.3453 -0.4241
 4139TIP3    H233833   4.759   3.339  10.875 -0.1506  0.8560  0.7183
 4140TIP3   OH233834   0.693   2.287   2.730  0.1378  0.1905 -0.5440
 4140TIP3    H133835   0.719   2.203   2.691  0.8465  0.2680 -0.2631
 4140TIP3    H233836   0.774   2.338   2.730 -0.5374  1.3057 -1.7640
 4141TIP3   OH233837   2.158   6.316   1.755 -0.1458  0.0938  0.0533
 4141TIP3    H133838   2.157   6.393   1.698  0.2228  1.4461  1.7858
 4141TIP3    H233839   2.117   6.345   1.836  0.3002 -1.4506  0.8857
 4142TIP3   OH233840   0.134   1.120   1.846  0.3144  0.7492 -0.5082
 4142TIP3    H133841   0.185   1.111   1.766 -0.3479  1.2420 -1.0044
 4142TIP3    H233842   0.170   1.055   1.906  2.3942  1.9655 -0.3604
 4143TIP3   OH233843   5.908   0.924   4.165 -0.1160 -0.2018 -0.6926
 4143TIP3    H133844   5.939   1.002   4.119 -0.0784  1.0859  1.3792
 4143TIP3    H233845   5.983   0.864   4.165  0.4473  0.4986 -0.7686
 4144TIP3   OH233846   4.633   4.828  13.094 -0.0459 -0.0816 -0.2415
 4144TIP3    H133847   4.595   4.742  13.113  0.5442 -0.1341  0.7555
 4144TIP3    H233848   4.563   4.890  13.114  0.0039 -0.2515  0.5176
 4145TIP3   OH233849   5.956   1.817  11.029  0.3781 -0.0616  0.0366
 4145TIP3    H133850   5.925   1.760  11.100 -0.1050  1.0741  0.7836
 4145TIP3    H233851   6.016   1.878  11.072  1.7928 -0.7020 -0.9610
 4146TIP3   OH233852   0.531   3.251  14.986 -0.1039 -0.4631 -0.0976
 4146TIP3    H133853   0.467   3.215  14.924 -0.8385  1.4978 -0.5689
 4146TIP3    H233854   0.477   3.292  15.054  0.6998 -1.5542  1.2526
 4147TIP3   OH233855   6.569   3.323   3.854  0.0730  0.0652  0.1907
 4147TIP3    H133856   6.643   3.311   3.795 -0.4066  0.7691 -0.5946
 4147TIP3    H233857   6.509   3.379   3.804 -1.7794 -1.8885  0.0779
 4148TIP3   OH233858   5.571   6.156   5.236  0.6327 -0.3595  0.4201
 4148TIP3    H133859   5.645   6.113   5.194 -0.1896 -2.4183  0.9468
 4148TIP3    H233860   5.608   6.197   5.314  2.0292  2.8392 -1.7409
 4149TIP3   OH233861   1.318   3.697  11.779 -0.2652  0.0624 -0.0545
 4149TIP3    H133862   1.371   3.618  11.789  0.0752  0.2653 -0.2197
 4149TIP3    H233863   1.234   3.675  11.818 -0.2107 -0.4203 -0.2031
 4150TIP3   OH233864   6.239   0.475  10.725 -0.0787 -0.0655 -0.1005
 4150TIP3    H133865   6.189   0.499  10.647 -2.7538  0.3342  1.6169
 4150TIP3    H233866   6.176   0.479  10.797  2.4160  0.3519  2.2556
 4151TIP3   OH233867   3.167   1.914   1.216 -0.2367  0.1159 -0.1858
 4151TIP3    H133868   3.119   1.857   1.277 -1.7237 -0.4495 -1.8141
 4151TIP3    H233869   3.138   2.002   1.238 -0.6317 -0.0670  0.0309
 4152TIP3   OH233870   0.144   3.432  11.663  0.0573 -0.1634 -0.0736
 4152TIP3    H133871   0.148   3.527  11.656 -0.8749 -0.0675  0.5327
 4152TIP3    H233872   0.215   3.401  11.608  1.4920  0.9360  1.0768
 4153TIP3   OH233873   1.005   6.242  11.622 -0.1138 -0.0357 -0.1157
 4153TIP3    H133874   0.973   6.158  11.591  0.3947  0.3363 -1.7256
 4153TIP3    H233875   0.941   6.305  11.590 -0.9417  0.1549  1.7811
 4154TIP3   OH233876   5.019   4.710  16.458 -0.1707 -0.3886  0.3435
 4154TIP3    H133877   4.957   4.657  16.508  1.7973 -0.4637  2.9153
 4154TIP3    H233878   5.002   4.800  16.485 -1.1525 -0.0416 -1.3153
 4155TIP3   OH233879   4.859   2.980  12.810 -0.0750  0.8215 -0.3385
 4155TIP3    H133880   4.784   2.956  12.865  0.3983  1.5382  0.6479
 4155TIP3    H233881   4.876   3.071  12.832  0.8007  0.7970 -0.8911
 4156TIP3   OH233882   0.268   1.755  13.024  0.0773 -0.0382  0.2729
 4156TIP3    H133883   0.278   1.801  13.107  0.6870  0.8618 -0.2772
 4156TIP3    H233884   0.274   1.824  12.958 -2.3804 -0.4402 -0.4810
 4157TIP3   OH233885   4.613   5.034  11.581 -0.1998 -0.1820  0.0454
 4157TIP3    H133886   4.597   4.943  11.555 -0.1892 -0.4379  0.9131
 4157TIP3    H233887   4.527   5.076  11.576 -0.0668 -0.0043 -1.1852
 4158TIP3   OH233888   4.204   4.839  16.579 -0.2930  0.1291 -0.4491
 4158TIP3    H133889   4.278   4.850  16.638 -0.2427  0.9952 -0.6598
 4158TIP3    H233890   4.129   4.872  16.628 -0.3339  0.3849 -0.6778
 4159TIP3   OH233891   1.616   5.403   4.952  0.6188 -0.1538  0.3147
 4159TIP3    H133892   1.630   5.495   4.976 -2.4279 -0.0172  2.1538
 4159TIP3    H233893   1.634   5.355   5.033  1.4412 -1.1323 -0.4243
 4160TIP3   OH233894   2.398   0.448   6.526 -0.3772 -0.3204  0.1906
 4160TIP3    H133895   2.470   0.391   6.499 -0.9415 -0.2966 -1.4821
 4160TIP3    H233896   2.335   0.389   6.568  0.2092 -0.4788  0.8671
 4161TIP3   OH233897   0.796   3.838   0.310  0.3316 -0.0573 -0.2523
 4161TIP3    H133898   0.845   3.917   0.288 -1.8542  0.9830 -1.7189
 4161TIP3    H233899   0.787   3.791   0.227 -1.0599 -0.2642  0.0002
 4162TIP3   OH233900   2.155   4.893  12.125 -1.0995  0.7344  0.3702
 4162TIP3    H133901   2.075   4.938  12.153 -0.5402  1.2635  1.1488
 4162TIP3    H233902   2.213   4.897  12.201 -0.3588  0.2805 -0.1565
 4163TIP3   OH233903   6.055   2.779  11.902 -0.4660  0.1196  0.0186
 4163TIP3    H133904   6.075   2.815  11.988  0.0665 -1.8758  0.7820
 4163TIP3    H233905   6.120   2.711  11.889 -1.9191 -1.1486 -0.9538
 4164TIP3   OH233906   2.947   1.564   3.894  0.1283  0.0529  0.2733
 4164TIP3    H133907   2.996   1.532   3.818  1.0303  0.0261  0.8568
 4164TIP3    H233908   2.973   1.656   3.901  2.3853 -0.6447  2.2932
 4165TIP3   OH233909   4.472   2.863   1.098 -0.2664  0.4542  0.9973
 4165TIP3    H133910   4.421   2.827   1.026  0.7987  0.8789 -0.0197
 4165TIP3    H233911   4.447   2.956   1.102  0.1064  0.5666  0.7744
 4166TIP3   OH233912   6.751   6.460   3.489 -0.3378  0.1189  0.4353
 4166TIP3    H133913   6.715   6.480   3.575 -0.0864  0.5196  0.4535
 4166TIP3    H233914   6.814   6.531   3.473 -0.4385  0.0899 -0.1083
 4167TIP3   OH233915   2.342   3.058  12.350 -0.4759  0.0743  0.7263
 4167TIP3    H133916   2.371   3.083  12.262  0.2113 -0.7451  0.7136
 4167TIP3    H233917   2.248   3.074  12.349 -0.6183 -0.7355 -0.4477
 4168TIP3   OH233918   1.025   3.286  11.070 -0.1915  0.0023  0.7786
 4168TIP3    H133919   1.024   3.376  11.104  0.1252 -0.1923  1.3091
 4168TIP3    H233920   1.009   3.231  11.146 -2.0709 -0.3338  0.1956
 4169TIP3   OH233921   1.166   1.144  16.765 -0.2997  0.0596  0.3369
 4169TIP3    H133922   1.109   1.129  16.841 -2.1472 -1.9022 -1.2993
 4169TIP3    H233923   1.106   1.149  16.691  1.5877 -1.8361 -1.4739
 4170TIP3   OH233924   0.444   6.284   4.331  0.1303  0.9161  0.2548
 4170TIP3    H133925   0.435   6.357   4.392  1.2283  1.0075  0.3255
 4170TIP3    H233926   0.407   6.209   4.379 -0.4547  1.2991  0.4102
 4171TIP3   OH233927   1.635   4.220  15.033 -0.2959 -0.1157 -0.1766
 4171TIP3    H133928   1.685   4.153  14.985  1.0490  0.5145  0.3100
 4171TIP3    H233929   1.590   4.270  14.964 -0.2579 -0.6745 -0.6198
 4172TIP3   OH233930   4.471   1.312  13.113  0.2956  0.2449  0.0428
 4172TIP3    H133931   4.475   1.386  13.052 -0.8586  1.0336  0.8716
 4172TIP3    H233932   4.484   1.235  13.058 -1.6746  0.8655 -1.3970
 4173TIP3   OH233933   0.598   3.512  13.088  0.0206 -0.5853 -0.2687
 4173TIP3    H133934   0.693   3.505  13.094  0.1146  0.0314 -0.8931
 4173TIP3    H233935   0.565   3.432  13.128  0.7828 -0.4888  0.5960
 4174TIP3   OH233936   6.397   1.131  16.367 -0.1296 -0.1458 -0.7116
 4174TIP3    H133937   6.432   1.061  16.312  0.3796  0.5772 -1.3270
 4174TIP3    H233938   6.384   1.204  16.308 -1.3475  0.0695 -0.2136
 4175TIP3   OH233939   4.505   0.332  12.725 -0.1888  0.1349 -0.3009
 4175TIP3    H133940   4.507   0.238  12.707 -4.1987 -0.4426  1.1838
 4175TIP3    H233941   4.455   0.370  12.654 -2.2839  0.3565  1.1972
 4176TIP3   OH233942   3.534   5.887  14.423 -0.1677 -0.6142 -0.0388
 4176TIP3    H133943   3.622   5.882  14.461 -0.6562 -0.4906  1.1422
 4176TIP3    H233944   3.526   5.808  14.370  1.1439  0.0379 -1.2908
 4177TIP3   OH233945   5.544   3.566   4.444  0.1450  0.0368 -0.7371
 4177TIP3    H133946   5.570   3.491   4.390 -0.6665  0.5088 -1.8294
 4177TIP3    H233947   5.480   3.530   4.505  1.7608 -0.7048  0.6086
 4178TIP3   OH233948   3.181   2.543  12.567 -0.1542 -0.6475 -0.1888
 4178TIP3    H133949   3.233   2.505  12.638  1.1997  0.3284 -0.6078
 4178TIP3    H233950   3.167   2.471  12.506  0.8263 -0.9150 -0.1127
 4179TIP3   OH233951   1.188   2.653  16.992 -0.3366 -0.2564 -0.3059
 4179TIP3    H133952   1.161   2.703  17.068  0.3987 -0.1432 -0.1151
 4179TIP3    H233953   1.215   2.718  16.928  0.8440 -0.3991  0.0261
 4180TIP3   OH233954   5.557   1.251  16.850 -0.1031 -0.1687 -0.4464
 4180TIP3    H133955   5.498   1.324  16.869 -0.8849 -1.2689  1.6646
 4180TIP3    H233956   5.526   1.218  16.765  0.2352  1.8304 -1.4261
 4181TIP3   OH233957   0.909   3.992   3.964 -0.2346 -0.2383  0.0765
 4181TIP3    H133958   0.917   3.902   3.931 -0.9717 -0.1122 -0.4587
 4181TIP3    H233959   0.857   3.983   4.044  0.0727 -0.3372  0.2673
 4182TIP3   OH233960   3.511   6.214  15.852 -0.2942 -0.1256  0.1293
 4182TIP3    H133961   3.605   6.202  15.869 -0.1992 -2.4698 -1.6816
 4182TIP3    H233962   3.508   6.269  15.773 -0.4661 -0.0226  0.2064
 4183TIP3   OH233963   2.217   3.435   2.621 -0.3483 -0.0362 -0.2543
 4183TIP3    H133964   2.296   3.457   2.671 -0.2937 -0.2866 -0.2303
 4183TIP3    H233965   2.183   3.356   2.663 -0.5048 -0.0396 -0.3863
 4184TIP3   OH233966   1.051   3.828  11.859 -0.3867  0.2589 -0.2518
 4184TIP3    H133967   0.977   3.860  11.910  0.2935 -1.0220  1.6742
 4184TIP3    H233968   1.094   3.907  11.826 -1.5528  1.0762  0.1423
 4185TIP3   OH233969   5.284   4.064   5.405 -0.0960 -0.6525  0.0173
 4185TIP3    H133970   5.299   3.978   5.366  4.1509 -1.5496  2.8941
 4185TIP3    H233971   5.361   4.115   5.382 -0.8288  1.1762  1.3443
 4186TIP3   OH233972   6.583   4.387   2.297  0.1996  0.2501 -0.0476
 4186TIP3    H133973   6.525   4.314   2.320  2.0334 -0.7064  1.9432
 4186TIP3    H233974   6.608   4.370   2.206 -1.1839 -0.3044 -0.3581
 4187TIP3   OH233975   0.544   6.096  16.734 -0.3199 -0.0884 -0.3174
 4187TIP3    H133976   0.598   6.125  16.660  1.6195  1.9773  1.7525
 4187TIP3    H233977   0.512   6.010  16.707  1.6467 -0.1562 -2.8723
 4188TIP3   OH233978   5.889   0.429  12.859  0.0641  0.1528  0.2580
 4188TIP3    H133979   5.822   0.457  12.796  0.4681 -0.5326 -0.5008
 4188TIP3    H233980   5.840   0.409  12.939 -0.6043 -0.1041 -0.2068
 4189TIP3   OH233981   2.757   4.744   3.403 -0.4740 -0.2402  0.5438
 4189TIP3    H133982   2.823   4.721   3.337 -1.8591 -0.0248 -0.9727
 4189TIP3    H233983   2.752   4.666   3.460  1.2410 -0.1540  0.8663
 4190TIP3   OH233984   4.918   5.231   0.922 -0.2318 -0.3023  0.2948
 4190TIP3    H133985   4.895   5.311   0.876 -0.3788 -0.4440  0.1212
 4190TIP3    H233986   4.973   5.260   0.995  1.0568 -0.1966 -0.6918
 4191TIP3   OH233987   0.042   3.006  13.597  0.2667  0.6239  0.3196
 4191TIP3    H133988   0.039   3.079  13.535 -0.2593  1.3160  1.1349
 4191TIP3    H233989  -0.010   3.035  13.672 -1.1698 -1.1315  0.0829
 4192TIP3   OH233990   3.485   2.745  12.640 -0.1855 -0.0026  0.4050
 4192TIP3    H133991   3.578   2.749  12.661  0.1791 -1.2621 -0.8071
 4192TIP3    H233992   3.446   2.696  12.713 -0.0656  1.2488  1.3373
 4193TIP3   OH233993   1.966   1.533   4.526 -0.2494  0.0552  0.3426
 4193TIP3    H133994   1.995   1.597   4.461  2.1577 -1.0072  0.2765
 4193TIP3    H233995   1.908   1.583   4.584  2.9123  2.8706  1.3870
 4194TIP3   OH233996   4.997   4.307   4.416  0.1367 -0.9058  1.3105
 4194TIP3    H133997   5.013   4.226   4.368 -2.2058 -1.4093  1.2477
 4194TIP3    H233998   5.083   4.334   4.447  1.6086 -1.2173 -2.0678
 4195TIP3   OH233999   1.789   4.090   5.819  0.3791 -0.1009  0.0982
 4195TIP3    H134000   1.859   4.155   5.824  0.0087  0.3133 -0.0746
 4195TIP3    H234001   1.833   4.006   5.837  0.8637  0.1882  0.2731
 4196TIP3   OH234002   0.549   6.490  17.311  0.3063  0.3595 -0.2039
 4196TIP3    H134003   0.630   6.449  17.281  0.5422  0.7017 -0.0422
 4196TIP3    H234004   0.569   6.522  17.399  0.3639  1.4850 -0.6110
 4197TIP3   OH234005   2.284   3.676   6.442  0.2311 -0.3821  0.3267
 4197TIP3    H134006   2.354   3.611   6.440 -0.0924 -0.9910  3.3297
 4197TIP3    H234007   2.328   3.760   6.427  1.0056 -1.0524 -1.3269
 4198TIP3   OH234008   6.700   4.666   0.348  0.4696  0.3222 -0.2006
 4198TIP3    H134009   6.626   4.716   0.313  0.7977  2.1844  1.5834
 4198TIP3    H234010   6.660   4.602   0.406  0.1602 -0.3374 -1.1059
 4199TIP3   OH234011   1.958   3.290  16.661  0.0054  0.6861  0.3202
 4199TIP3    H134012   1.863   3.285  16.653 -0.1160  2.1470  0.5689
 4199TIP3    H234013   1.973   3.362  16.723  1.2646  0.3635  0.4098
 4200TIP3   OH234014   1.729   6.562   6.362  0.0795 -0.4567 -0.3372
 4200TIP3    H134015   1.723   6.654   6.388 -1.4480 -0.4803 -0.4698
 4200TIP3    H234016   1.690   6.560   6.274  2.4681 -0.8420 -1.4468
 4201TIP3   OH234017   5.495   3.290   4.406 -0.5821  0.5826 -0.0331
 4201TIP3    H134018   5.489   3.194   4.409  0.1177  0.4497  4.4841
 4201TIP3    H234019   5.406   3.319   4.388 -0.9489 -0.8932 -0.7525
 4202TIP3   OH234020   4.079   1.603  14.374 -0.3208  0.5301  0.2939
 4202TIP3    H134021   4.001   1.655  14.354 -1.0781 -0.7581 -0.2533
 4202TIP3    H234022   4.057   1.555  14.454 -0.1339  0.0881  0.0867
 4203TIP3   OH234023   4.257   2.262   4.620 -0.0871 -0.3147  0.0881
 4203TIP3    H134024   4.195   2.306   4.563  0.3437 -0.6278 -0.6417
 4203TIP3    H234025   4.342   2.301   4.598 -0.0418  0.2332  1.1969
 4204TIP3   OH234026   1.244   5.790  12.403 -0.3457  0.6226 -0.2571
 4204TIP3    H134027   1.232   5.720  12.467  1.3444  0.2805 -0.2849
 4204TIP3    H234028   1.198   5.865  12.441 -0.7734 -0.0277  0.5515
 4205TIP3   OH234029   2.977   5.561  17.306  0.9996 -0.4912 -0.4035
 4205TIP3    H134030   3.063   5.601  17.306  0.9305 -0.3438  0.0386
 4205TIP3    H234031   2.916   5.634  17.294  0.9006 -0.5201 -0.0738
 4206TIP3   OH234032   6.519   5.532   2.183 -0.1142  0.1681 -0.2165
 4206TIP3    H134033   6.482   5.573   2.105  2.3439  1.4067 -0.8624
 4206TIP3    H234034   6.576   5.463   2.149  0.5844  0.3837  0.4667
 4207TIP3   OH234035   6.744   1.705  15.172 -0.3975 -0.2506  0.1377
 4207TIP3    H134036   6.658   1.746  15.182 -0.6378 -1.1273  1.9425
 4207TIP3    H234037   6.805   1.765  15.216 -0.4332 -0.7567  0.8849
 4208TIP3   OH234038   4.187   1.128  17.031  0.2505 -0.2198  0.0282
 4208TIP3    H134039   4.272   1.146  17.071  0.0947 -1.5380  1.0546
 4208TIP3    H234040   4.177   1.194  16.963  0.8782  1.6916  1.6941
 4209TIP3   OH234041   3.516   6.123   1.317 -0.0622 -0.4908 -0.3602
 4209TIP3    H134042   3.437   6.106   1.369  2.3130 -1.7715  3.2076
 4209TIP3    H234043   3.533   6.039   1.273  0.0411 -0.6183 -0.0756
 4210TIP3   OH234044   0.373   3.516  11.413  0.0590  0.1949  0.1402
 4210TIP3    H134045   0.371   3.586  11.478  0.5447  1.8148 -1.4974
 4210TIP3    H234046   0.428   3.448  11.453 -0.0992  0.8924  1.6220
 4211TIP3   OH234047   4.920   1.787   2.570  0.0301 -0.0832  0.1390
 4211TIP3    H134048   4.857   1.722   2.536 -0.0407 -0.5145  1.0677
 4211TIP3    H234049   4.975   1.808   2.494  0.6860 -1.9792  0.0398
 4212TIP3   OH234050   6.600   1.163   2.177 -0.0566 -0.6235  0.3032
 4212TIP3    H134051   6.546   1.242   2.175  2.0016  0.8849 -2.0603
 4212TIP3    H234052   6.544   1.094   2.142 -1.0913  0.3767 -0.0668
 4213TIP3   OH234053   1.501   1.709  16.874 -0.5407  0.2844 -0.5359
 4213TIP3    H134054   1.517   1.726  16.966  0.8099 -1.8322 -0.3115
 4213TIP3    H234055   1.417   1.664  16.872 -0.6799  0.5337 -0.3822
 4214TIP3   OH234056   4.951   6.259   4.044  0.1668 -0.0764 -0.1422
 4214TIP3    H134057   4.943   6.354   4.038  0.9358 -0.0024 -0.1645
 4214TIP3    H234058   4.927   6.227   3.957 -1.4465 -0.0245  0.2497
 4215TIP3   OH234059   0.740   2.358  14.410  0.6039  0.3291  0.8003
 4215TIP3    H134060   0.735   2.314  14.325 -1.3633  0.9283  0.5677
 4215TIP3    H234061   0.811   2.422  14.399  2.4251 -1.6039  0.6360
 4216TIP3   OH234062   1.770   4.156   3.223 -0.7484 -0.3973 -0.1602
 4216TIP3    H134063   1.733   4.182   3.139  1.5478  0.3537 -1.0056
 4216TIP3    H234064   1.813   4.073   3.206  0.2004  0.0222  0.0935
 4217TIP3   OH234065   2.319   4.881   4.822 -0.4673 -0.6285 -0.8088
 4217TIP3    H134066   2.368   4.954   4.784 -1.3675 -0.3734 -1.5201
 4217TIP3    H234067   2.236   4.881   4.774 -0.6872 -1.7925 -0.4452
 4218TIP3   OH234068   6.563   1.005   5.719 -0.5168 -0.0203 -0.1070
 4218TIP3    H134069   6.630   1.067   5.747  0.4990 -0.9871 -0.3199
 4218TIP3    H234070   6.482   1.038   5.757  0.2567  0.5642  1.0830
 4219TIP3   OH234071   0.641   2.355   4.201 -0.5862 -0.0856 -0.0303
 4219TIP3    H134072   0.579   2.282   4.197 -1.7110  0.8785 -1.9545
 4219TIP3    H234073   0.605   2.413   4.268  1.5297 -2.2067  3.1947
 4220TIP3   OH234074   3.265   2.114  14.667 -0.1742 -0.3745  0.4098
 4220TIP3    H134075   3.202   2.052  14.703 -0.1696  0.4641  1.9175
 4220TIP3    H234076   3.350   2.073  14.681 -0.1836 -0.1239  1.2290
 4221TIP3   OH234077   2.598   1.097   0.651 -0.3644 -0.3924 -0.4382
 4221TIP3    H134078   2.620   1.078   0.743 -0.3162 -3.3199 -0.9647
 4221TIP3    H234079   2.638   1.026   0.602  2.3098  2.6992 -3.1837
 4222TIP3   OH234080   6.455   0.915  13.097 -0.1040  0.6200  0.1077
 4222TIP3    H134081   6.499   0.929  13.013  0.8912 -0.0864  0.4931
 4222TIP3    H234082   6.485   0.987  13.152  0.9951 -0.1209  0.5184
 4223TIP3   OH234083   5.415   2.733  14.241  0.3485 -0.0092 -0.1735
 4223TIP3    H134084   5.401   2.758  14.333 -0.9277 -0.5340 -0.1988
 4223TIP3    H234085   5.462   2.650  14.245 -0.4615 -0.4664  0.0347
 4224TIP3   OH234086   6.042   2.475   0.151 -0.1291 -0.3801  0.6266
 4224TIP3    H134087   6.001   2.530   0.084 -1.3835 -0.0533  1.6343
 4224TIP3    H234088   5.980   2.403   0.163 -1.2086  0.8689  3.2183
 4225TIP3   OH234089   0.566   3.775  15.979 -0.7593  0.3682  0.7865
 4225TIP3    H134090   0.498   3.833  16.014 -0.0224  0.9029  1.3614
 4225TIP3    H234091   0.630   3.833  15.940 -0.0199 -0.0484  1.3533
 4226TIP3   OH234092   3.594   3.569  15.638 -0.4149  0.1947  0.1372
 4226TIP3    H134093   3.599   3.660  15.607  0.0109 -0.3959 -1.6731
 4226TIP3    H234094   3.616   3.574  15.731 -0.1179  1.9173  0.0098
 4227TIP3   OH234095   1.011   0.072  13.666 -0.3845  0.5271  0.1677
 4227TIP3    H134096   0.946   0.019  13.621  0.0546 -0.6508  0.8733
 4227TIP3    H234097   1.050   0.126  13.598 -0.1633 -0.7693 -0.7603
 4228TIP3   OH234098   0.433   1.268  16.380  0.1208  0.4585 -0.1774
 4228TIP3    H134099   0.365   1.291  16.443  0.2347  1.8919 -0.5447
 4228TIP3    H234100   0.389   1.264  16.296  0.0332 -1.1313 -0.0888
 4229TIP3   OH234101   2.719   0.069  17.138  0.7769  0.0657 -0.6134
 4229TIP3    H134102   2.809   0.045  17.163  1.2208  1.2287 -1.0257
 4229TIP3    H234103   2.677  -0.014  17.117  1.0764 -0.7445  1.7045
 4230TIP3   OH234104   6.151   0.568   3.429  0.3007 -0.3287  0.6367
 4230TIP3    H134105   6.195   0.636   3.481  0.0647  2.5341 -2.5795
 4230TIP3    H234106   6.219   0.536   3.369 -0.7130  0.4534 -0.9669
 4231TIP3   OH234107   2.208   2.799   4.022  0.3899  0.3292 -0.1943
 4231TIP3    H134108   2.194   2.753   3.940  0.6888  0.9362 -0.5911
 4231TIP3    H234109   2.250   2.735   4.079 -0.6987 -0.4067 -0.1756
 4232TIP3   OH234110   0.084   2.173  12.459  0.0540  0.3922  0.1192
 4232TIP3    H134111   0.018   2.179  12.529 -0.5656 -1.1178 -0.3127
 4232TIP3    H234112   0.077   2.257  12.413 -0.1205  1.0719  1.3319
 4233TIP3   OH234113   0.854   2.061  14.498  0.1220  0.2902 -0.0061
 4233TIP3    H134114   0.871   2.154  14.479 -2.0598  1.0233  1.3293
 4233TIP3    H234115   0.802   2.062  14.578 -1.1123 -2.0349 -0.7030
 4234TIP3   OH234116   1.386   5.329  17.375 -0.1500 -0.0796  0.2244
 4234TIP3    H134117   1.308   5.368  17.334 -1.1935 -0.2657  1.9444
 4234TIP3    H234118   1.352   5.254  17.423  1.1373 -0.2622  0.8749
 4235TIP3   OH234119   0.321   5.679   0.470 -0.0105  0.2891  0.4204
 4235TIP3    H134120   0.316   5.753   0.531 -1.3642  0.3753  0.2401
 4235TIP3    H234121   0.267   5.705   0.396  0.3018 -0.4828 -0.0899
 4236TIP3   OH234122   5.737   1.787  17.324  1.0590 -0.6503  0.1099
 4236TIP3    H134123   5.686   1.745  17.393 -0.1863 -1.0280 -1.0092
 4236TIP3    H234124   5.781   1.860  17.368 -3.7298  2.4314  0.4421
 4237TIP3   OH234125   6.067   0.885   2.921  0.1723 -0.2229 -0.6726
 4237TIP3    H134126   6.109   0.800   2.913  0.4779 -0.2393  0.7790
 4237TIP3    H234127   6.139   0.948   2.923  0.1738 -0.2202  1.4352
 4238TIP3   OH234128   1.730   4.514  13.760  0.0292  0.4164  0.1346
 4238TIP3    H134129   1.719   4.491  13.668 -1.2097 -1.6291  0.7473
 4238TIP3    H234130   1.672   4.590  13.773 -0.5452  0.0977 -0.5364
 4239TIP3   OH234131   1.222   0.677   5.769 -0.3374 -0.5232  0.0992
 4239TIP3    H134132   1.273   0.674   5.688  0.0483  0.8928  0.2618
 4239TIP3    H234133   1.285   0.657   5.838  0.1406  1.4847  0.3265
 4240TIP3   OH234134   2.277   4.935  13.650  0.2161  0.1335 -0.1718
 4240TIP3    H134135   2.246   4.891  13.729  0.8313  0.6733  0.3836
 4240TIP3    H234136   2.197   4.952  13.599 -0.1941 -0.1633  0.3592
 4241TIP3   OH234137   1.619   1.346  16.427 -0.3200  0.2908  0.4058
 4241TIP3    H134138   1.697   1.350  16.482 -0.1414  2.6172  0.0815
 4241TIP3    H234139   1.652   1.353  16.337 -0.8781  0.7983  0.2380
 4242TIP3   OH234140   3.464   5.162  13.297  0.1225  0.2145  0.3093
 4242TIP3    H134141   3.387   5.159  13.241  1.3707  0.9595 -1.5411
 4242TIP3    H234142   3.429   5.166  13.386 -1.9380 -0.4949 -0.4107
 4243TIP3   OH234143   6.015   0.825  15.464  0.6679  0.1275 -0.0081
 4243TIP3    H134144   6.018   0.895  15.399 -1.8107 -0.1293 -0.4934
 4243TIP3    H234145   5.958   0.858  15.533  1.3644 -0.5331  0.9252
 4244TIP3   OH234146   4.203   2.882  12.682 -0.2406 -0.2327  0.0737
 4244TIP3    H134147   4.197   2.977  12.693 -0.6696 -0.2434 -0.0712
 4244TIP3    H234148   4.283   2.858  12.729 -0.5561  0.0964  0.8110
 4245TIP3   OH234149   4.097   1.339   1.905  0.2583 -0.2933  0.2482
 4245TIP3    H134150   4.026   1.404   1.905  0.2014 -0.3551  0.4858
 4245TIP3    H234151   4.105   1.312   1.997 -1.3816 -2.4408 -0.1679
 4246TIP3   OH234152   2.456   2.167   0.321  0.4305  0.1981 -0.1029
 4246TIP3    H134153   2.443   2.154   0.415  0.7196  0.4370 -0.0269
 4246TIP3    H234154   2.368   2.159   0.283  0.4085 -0.6085  0.0941
 4247TIP3   OH234155   1.960   6.158  11.844 -0.3570 -0.5651  0.5948
 4247TIP3    H134156   1.952   6.088  11.780  0.0219 -0.7158  0.7094
 4247TIP3    H234157   1.879   6.208  11.836  0.2603  0.2651 -0.9880
 4248TIP3   OH234158   1.824   0.578  11.704 -0.1283 -0.3815 -0.3022
 4248TIP3    H134159   1.744   0.557  11.752  0.7921  0.2672  1.5895
 4248TIP3    H234160   1.851   0.494  11.665 -1.8568 -0.5413 -1.2705
 4249TIP3   OH234161   1.254   1.262  15.844 -0.2741  0.4660  0.0602
 4249TIP3    H134162   1.182   1.202  15.863 -0.5522  0.6031 -0.5472
 4249TIP3    H234163   1.222   1.347  15.872 -0.7188  0.6831 -1.0825
 4250TIP3   OH234164   1.364   6.483  12.475 -0.4435 -0.1014  0.1983
 4250TIP3    H134165   1.304   6.542  12.430  0.4649  0.2539 -0.5697
 4250TIP3    H234166   1.354   6.399  12.431 -1.0066 -0.2692  0.6396
 4251TIP3   OH234167   6.284   2.487  10.588  0.4026  0.4264 -0.6802
 4251TIP3    H134168   6.271   2.564  10.643  1.3271  0.6713 -0.7832
 4251TIP3    H234169   6.238   2.508  10.506 -1.8945 -0.3791  0.3291
 4252TIP3   OH234170   4.634   2.756   5.492  0.4837  0.3616  0.3784
 4252TIP3    H134171   4.539   2.771   5.496  0.3272 -0.8202  1.7440
 4252TIP3    H234172   4.672   2.843   5.509 -0.2513  1.6221 -3.5162
 4253TIP3   OH234173   3.220   2.248  11.548  0.3127  0.0025  0.2776
 4253TIP3    H134174   3.243   2.158  11.570 -1.8635 -0.4344  1.0879
 4253TIP3    H234175   3.134   2.241  11.506 -0.5265  1.7573  1.5494
 4254TIP3   OH234176   6.493   1.201  11.678  0.2865  0.3953  0.0240
 4254TIP3    H134177   6.532   1.140  11.615  0.3702  0.8588 -0.3826
 4254TIP3    H234178   6.429   1.251  11.627 -1.0677 -0.5471  0.7490
 4255TIP3   OH234179   1.690   2.010  13.443 -0.1032 -0.1459  0.0710
 4255TIP3    H134180   1.777   2.001  13.482 -0.3808  0.5829  0.9120
 4255TIP3    H234181   1.631   2.017  13.518 -0.6754  1.2014 -0.4564
 4256TIP3   OH234182   6.006   3.743  14.906  0.0986 -0.5102 -0.1869
 4256TIP3    H134183   5.934   3.703  14.956  0.7228 -1.5222 -0.0597
 4256TIP3    H234184   6.044   3.807  14.967 -0.5463 -0.1256 -0.1791
 4257TIP3   OH234185   1.931   0.196   1.938  0.0192  0.2627 -0.2012
 4257TIP3    H134186   1.857   0.244   1.975 -1.0519 -0.4613 -1.3239
 4257TIP3    H234187   2.004   0.258   1.940 -0.1865  0.5448  2.2672
 4258TIP3   OH234188   2.009   2.814   2.422  0.1795  0.0842 -0.1470
 4258TIP3    H134189   1.937   2.753   2.437 -0.4738  1.0557  0.8457
 4258TIP3    H234190   2.015   2.821   2.326  0.5031 -1.7480 -0.2955
 4259TIP3   OH234191   0.132   6.689  13.430  0.1315 -0.4198 -0.1752
 4259TIP3    H134192   0.175   6.702  13.345  0.4745  3.8067  0.4101
 4259TIP3    H234193   0.165   6.761  13.484 -0.9990 -2.2508  3.2292
 4260TIP3   OH234194   6.072   0.034  17.110  0.4910  0.3664  0.0218
 4260TIP3    H134195   6.015   0.092  17.160  0.1866  0.2027 -0.1342
 4260TIP3    H234196   6.127   0.093  17.058  0.3224  0.5169  0.0146
 4261TIP3   OH234197   3.704   3.944   5.350 -0.0646  0.3787 -0.0934
 4261TIP3    H134198   3.650   4.017   5.320  0.3197  0.8800  0.4090
 4261TIP3    H234199   3.736   3.972   5.436  0.1460 -0.3509  0.0716
 4262TIP3   OH234200   2.713   6.037   0.481  0.2845  0.1370 -0.3376
 4262TIP3    H134201   2.719   5.982   0.403 -0.6085  0.0874 -0.3866
 4262TIP3    H234202   2.690   6.124   0.447 -1.6832 -0.2358 -0.0478
 4263TIP3   OH234203   0.955   5.448   3.172  0.3672 -0.1159  0.0530
 4263TIP3    H134204   1.047   5.433   3.151  0.1274  2.3221 -3.4936
 4263TIP3    H234205   0.908   5.380   3.123  0.1850 -0.2303  0.3838
 4264TIP3   OH234206   0.390   4.620  12.725  0.0159  0.3056 -0.0268
 4264TIP3    H134207   0.339   4.690  12.684 -0.4661 -0.2158 -0.3383
 4264TIP3    H234208   0.356   4.614  12.814  0.1333  0.5390  0.0344
 4265TIP3   OH234209   1.032   6.037  13.501 -0.3846 -0.2129 -0.2315
 4265TIP3    H134210   1.047   5.946  13.528 -2.5048 -0.8281 -0.9604
 4265TIP3    H234211   1.002   6.080  13.581  1.1690  0.0346  0.2556
 4266TIP3   OH234212   2.944   1.098   4.367 -0.5308 -0.2507 -0.1784
 4266TIP3    H134213   2.893   1.067   4.292 -0.0555 -2.1611  0.2344
 4266TIP3    H234214   2.925   1.035   4.437  0.6555  0.2921  0.6695
 4267TIP3   OH234215   3.321   6.286   6.085  0.5445 -0.3093 -0.8302
 4267TIP3    H134216   3.236   6.257   6.118  0.1580  1.9103  0.3139
 4267TIP3    H234217   3.360   6.207   6.047 -1.3500 -1.7396  0.0203
 4268TIP3   OH234218   3.122   2.932   3.540 -0.4564 -0.1485  0.6703
 4268TIP3    H134219   3.170   2.851   3.559 -0.1576  0.2689  1.8211
 4268TIP3    H234220   3.155   2.994   3.605 -2.1241  0.3234  1.1118
 4269TIP3   OH234221   2.983   0.668  13.836  0.0478 -0.4719  0.1113
 4269TIP3    H134222   2.927   0.736  13.798  1.0392  0.7110  0.6893
 4269TIP3    H234223   2.922   0.600  13.864 -0.8964 -0.2725 -1.3392
 4270TIP3   OH234224   2.437   3.349   6.099  0.1202 -0.0282 -0.0639
 4270TIP3    H134225   2.457   3.394   6.017  0.0865 -0.8211 -0.5201
 4270TIP3    H234226   2.380   3.277   6.074  0.7471 -0.7562  0.5348
 4271TIP3   OH234227   5.714   5.737  17.201  0.1449 -0.2419  0.4358
 4271TIP3    H134228   5.637   5.745  17.256  0.4255  0.8305  0.6835
 4271TIP3    H234229   5.700   5.656  17.152 -1.0697 -0.1277  0.5732
 4272TIP3   OH234230   2.216   4.453   6.275 -0.1855  0.5378 -0.3407
 4272TIP3    H134231   2.184   4.408   6.353 -2.6932  1.3251 -0.8150
 4272TIP3    H234232   2.148   4.518   6.256  1.0330  1.2922 -2.3875
 4273TIP3   OH234233   2.979   4.996  15.102  0.3749 -0.5528 -0.1328
 4273TIP3    H134234   2.948   5.058  15.036  0.0649 -0.3839  0.1679
 4273TIP3    H234235   2.901   4.947  15.126  0.2488  0.1127  0.8856
 4274TIP3   OH234236   1.446   2.128  13.042  0.3160 -0.4672 -0.1474
 4274TIP3    H134237   1.517   2.064  13.054 -2.0442 -3.4032 -0.6108
 4274TIP3    H234238   1.387   2.087  12.979 -1.4336  2.1842 -0.3818
 4275TIP3   OH234239   0.774   3.946   0.870  0.3976 -0.1512 -0.3404
 4275TIP3    H134240   0.774   3.851   0.856 -2.3292  0.0073 -2.2536
 4275TIP3    H234241   0.795   3.957   0.963 -3.5784 -2.9790  1.1749
 4276TIP3   OH234242   5.123   3.105   4.162  0.1974  0.6293 -0.2206
 4276TIP3    H134243   5.127   3.046   4.087  1.2746  1.2466 -0.6694
 4276TIP3    H234244   5.030   3.113   4.182 -0.0687  0.1293 -1.2247
 4277TIP3   OH234245   0.577   0.610  14.688  0.5478  0.5923 -0.2546
 4277TIP3    H134246   0.537   0.607  14.775 -1.1298 -0.0086 -1.0056
 4277TIP3    H234247   0.629   0.529  14.683 -1.0820 -0.4928 -0.5550
 4278TIP3   OH234248   6.530   5.805  11.974  0.1361  0.1053  0.4429
 4278TIP3    H134249   6.479   5.853  12.040  0.7800  1.4348  0.0210
 4278TIP3    H234250   6.562   5.727  12.020 -0.0685  0.6163  1.4764
 4279TIP3   OH234251   4.043   5.252   2.998 -0.5281 -0.3444 -0.1190
 4279TIP3    H134252   4.071   5.318   2.935  2.2310 -0.1915  1.1256
 4279TIP3    H234253   3.999   5.302   3.067 -0.6066 -0.1255 -0.3232
 4280TIP3   OH234254   6.275   2.219   0.162  0.2563  0.4000  0.5392
 4280TIP3    H134255   6.356   2.269   0.165  0.7027 -0.3420  1.3800
 4280TIP3    H234256   6.222   2.263   0.096  0.3955  2.3259  1.6219
 4281TIP3   OH234257   0.192   6.190   2.282  0.7766 -0.4729  0.7219
 4281TIP3    H134258   0.105   6.208   2.317 -0.0039  0.1099 -1.3673
 4281TIP3    H234259   0.252   6.210   2.354 -0.5557  2.7926  1.1023
 4282TIP3   OH234260   3.717   0.815  11.761  0.0715  0.2266  0.3939
 4282TIP3    H134261   3.763   0.860  11.690 -0.6672 -1.3810 -1.1898
 4282TIP3    H234262   3.732   0.722  11.744 -1.3215 -0.2390  1.5188
 4283TIP3   OH234263   5.348   1.181   3.187  0.2270 -0.8472 -0.1733
 4283TIP3    H134264   5.272   1.172   3.130  0.2156 -0.1463 -0.2875
 4283TIP3    H234265   5.412   1.119   3.154  0.1521 -0.5708 -0.8450
 4284TIP3   OH234266   1.711   2.005  17.180 -0.0254  0.0882 -0.3111
 4284TIP3    H134267   1.697   2.053  17.098 -1.4036 -0.3360 -0.3396
 4284TIP3    H234268   1.656   2.050  17.244 -0.0931 -0.4781  0.0337
 4285TIP3   OH234269   4.909   1.056  14.728  0.3147  0.6603 -0.5075
 4285TIP3    H134270   4.993   1.077  14.686 -0.2176  2.2145 -0.8677
 4285TIP3    H234271   4.852   1.033  14.655  0.5085 -0.7738 -0.2292
 4286TIP3   OH234272   6.520   0.076   0.542 -0.2141 -0.5622  0.5212
 4286TIP3    H134273   6.471   0.146   0.500 -0.5175 -1.8649 -1.3918
 4286TIP3    H234274   6.458   0.037   0.603 -0.1746  0.5175  1.2826
 4287TIP3   OH234275   3.930   2.651   1.168  0.5862 -0.5305  0.0759
 4287TIP3    H134276   3.938   2.638   1.263 -2.0422  1.6440  0.7142
 4287TIP3    H234277   3.986   2.583   1.130  2.4567 -0.9007  3.1504
 4288TIP3   OH234278   3.296   6.532   0.337 -0.3486 -0.3035  0.5480
 4288TIP3    H134279   3.354   6.599   0.300 -0.7613 -0.5335 -0.5476
 4288TIP3    H234280   3.209   6.554   0.303 -0.4724 -1.4496  0.1011
 4289TIP3   OH234281   4.901   3.725  13.478 -0.0315 -0.1009  0.0078
 4289TIP3    H134282   4.864   3.665  13.413  0.7746  0.3484 -0.8930
 4289TIP3    H234283   4.939   3.796  13.427  0.2991  0.4583  0.9923
 4290TIP3   OH234284   2.208   4.947  12.424 -0.2267 -0.5945 -0.0639
 4290TIP3    H134285   2.115   4.936  12.442 -0.3288  0.2729 -0.0350
 4290TIP3    H234286   2.248   4.962  12.510 -0.0249 -1.1740 -0.0517
 4291TIP3   OH234287   5.111   2.370  12.388  0.4214 -0.0876 -0.1566
 4291TIP3    H134288   5.018   2.348  12.398 -0.1052  2.2563  0.8416
 4291TIP3    H234289   5.137   2.403  12.474  1.3566  1.9689 -1.1556
 4292TIP3   OH234290   0.408   3.801   1.010 -0.0594  0.1199 -0.1240
 4292TIP3    H134291   0.402   3.706   1.025  0.3947  0.2590  1.1057
 4292TIP3    H234292   0.441   3.809   0.921  0.3562 -0.9014 -0.0780
 4293TIP3   OH234293   5.571   5.178  11.976 -0.3705  0.0687 -0.6609
 4293TIP3    H134294   5.514   5.143  11.907  2.2549 -1.6882 -2.1270
 4293TIP3    H234295   5.579   5.106  12.039 -1.1504  0.9434  0.4598
 4294TIP3   OH234296   0.709   1.956  16.416 -0.1547 -0.3905  0.3200
 4294TIP3    H134297   0.652   1.891  16.458 -0.7588 -0.4434 -0.5594
 4294TIP3    H234298   0.649   2.025  16.387  0.0809 -0.8764 -1.4347
 4295TIP3   OH234299   2.349   3.626   2.203  0.7080  0.2295  0.6841
 4295TIP3    H134300   2.329   3.691   2.135  3.6442  1.3787  0.7632
 4295TIP3    H234301   2.376   3.548   2.154  0.0881  0.0788  0.5728
 4296TIP3   OH234302   5.139   6.342  13.545  0.5764  0.2076  0.3860
 4296TIP3    H134303   5.112   6.432  13.527 -0.3682  0.0643  1.0063
 4296TIP3    H234304   5.106   6.324  13.633  0.6870 -0.7743  0.2383
 4297TIP3   OH234305   5.232   0.027  12.805  0.0239  0.8264  0.7728
 4297TIP3    H134306   5.236   0.047  12.898 -0.1731 -0.3025  1.0294
 4297TIP3    H234307   5.234  -0.068  12.800  0.9463  0.8802 -0.4282
 4298TIP3   OH234308   5.325   4.177   2.021  0.2275  0.0903  0.4470
 4298TIP3    H134309   5.323   4.254   1.964 -0.9284  1.4361  2.1914
 4298TIP3    H234310   5.233   4.164   2.046  0.3893 -1.9002  0.2132
 4299TIP3   OH234311   1.554   1.782  17.152  0.0374  0.3655 -0.0888
 4299TIP3    H134312   1.620   1.850  17.161  0.3483  0.3069 -1.7167
 4299TIP3    H234313   1.597   1.702  17.181 -0.3715  0.8365  1.9669
 4300TIP3   OH234314   0.104   1.869  16.829  0.1965 -0.7068 -0.7438
 4300TIP3    H134315   0.064   1.947  16.867  1.6984 -0.1719 -0.1943
 4300TIP3    H234316   0.038   1.800  16.840 -0.8104  0.2770 -0.4742
 4301TIP3   OH234317   4.986   6.374   0.558 -0.1877 -0.5219  0.3694
 4301TIP3    H134318   4.967   6.424   0.479  0.0043 -1.8210 -0.5349
 4301TIP3    H234319   4.925   6.300   0.555  0.5684 -1.1803  0.8404
 4302TIP3   OH234320   1.558   2.823  17.331  0.9570 -0.0797  0.0300
 4302TIP3    H134321   1.620   2.799  17.262 -0.3610 -0.1417 -1.1817
 4302TIP3    H234322   1.606   2.811  17.412  2.3690 -0.5901 -0.8531
 4303TIP3   OH234323   6.225   4.365  12.217  0.4615 -0.2925  0.1526
 4303TIP3    H134324   6.246   4.458  12.216 -0.5298  0.0268  2.6671
 4303TIP3    H234325   6.147   4.358  12.162 -1.1628  0.9109  2.1596
 4304TIP3   OH234326   2.162   0.024  17.256  0.0545 -0.8255 -0.5308
 4304TIP3    H134327   2.106  -0.016  17.322  1.6251 -0.8178  0.8729
 4304TIP3    H234328   2.198   0.101  17.299  0.8399 -0.6058 -1.5342
 4305TIP3   OH234329   5.410   4.706  16.835  0.2476 -0.4432  0.1422
 4305TIP3    H134330   5.471   4.779  16.847  0.2039 -0.1453 -1.2293
 4305TIP3    H234331   5.331   4.732  16.883  0.8013 -0.3416  1.0251
 4306TIP3   OH234332   4.629   0.002  13.839 -0.3618 -0.0815 -0.0003
 4306TIP3    H134333   4.714   0.014  13.882 -1.5737  0.6006  2.4155
 4306TIP3    H234334   4.630  -0.090  13.811  1.3701  0.0619 -0.5470
 4307TIP3   OH234335   4.364   6.490  15.989 -0.2437  0.4427 -0.5166
 4307TIP3    H134336   4.319   6.464  16.070  1.0197 -0.4098 -0.0596
 4307TIP3    H234337   4.355   6.586  15.987  1.1900  0.6992  1.5773
 4308TIP3   OH234338   5.501   4.627   4.449  0.1400  0.2446  0.2667
 4308TIP3    H134339   5.484   4.588   4.535 -0.0532 -0.8961 -0.2660
 4308TIP3    H234340   5.587   4.593   4.423 -0.7118 -1.1361 -0.8848
 4309TIP3   OH234341   4.029   3.944  14.859  0.2760  0.0435 -0.1863
 4309TIP3    H134342   4.056   3.906  14.943  1.2102  1.5304  0.2224
 4309TIP3    H234343   4.093   3.911  14.796  0.4858  0.1236 -0.0188
 4310TIP3   OH234344   4.172   3.886  15.142  0.4939  0.0132 -0.3865
 4310TIP3    H134345   4.234   3.815  15.160 -0.7690 -1.4715 -1.5777
 4310TIP3    H234346   4.225   3.965  15.145  1.7272 -0.7908  2.2982
 4311TIP3   OH234347   4.993   1.016   2.298 -0.6185  0.3331  0.5510
 4311TIP3    H134348   4.996   0.973   2.212 -2.3210  1.8801 -0.3722
 4311TIP3    H234349   4.928   0.967   2.347 -0.4078  0.0816  0.5821
 4312TIP3   OH234350   6.722   2.548   1.390  0.0241 -0.2612  0.1317
 4312TIP3    H134351   6.791   2.498   1.435  2.0917  1.3103 -1.0767
 4312TIP3    H234352   6.659   2.482   1.363  1.5224 -1.9497  0.5179
 4313TIP3   OH234353   1.943   2.766   4.942 -0.2630 -0.1321 -0.6267
 4313TIP3    H134354   1.963   2.684   4.898  1.2831  0.6475 -1.4641
 4313TIP3    H234355   1.944   2.832   4.872 -0.6569  0.7180  0.1396
 4314TIP3   OH234356   3.961   6.566   5.623  0.1941 -0.0089 -0.2731
 4314TIP3    H134357   3.998   6.517   5.549 -0.5261 -1.1122  0.0727
 4314TIP3    H234358   3.884   6.608   5.586  0.6293  0.6128 -0.4892
 4315TIP3   OH234359   4.292   3.137   1.454 -0.4021 -0.6042 -0.3224
 4315TIP3    H134360   4.369   3.143   1.510 -0.1966  0.2474 -0.6843
 4315TIP3    H234361   4.307   3.201   1.385 -1.9663  0.4391  0.2404
 4316TIP3   OH234362   0.782   0.973   0.698  0.1468 -0.3349  0.7940
 4316TIP3    H134363   0.757   0.921   0.774  0.2106 -0.3278  0.8204
 4316TIP3    H234364   0.830   1.048   0.735 -0.8706  0.3099  0.8436
 4317TIP3   OH234365   1.568   6.050  11.117  0.0449  0.3583  0.5385
 4317TIP3    H134366   1.530   5.966  11.092  0.7151  0.1383  0.2614
 4317TIP3    H234367   1.662   6.035  11.120  0.2214  1.2516 -0.1219
 4318TIP3   OH234368   0.786   3.047  13.012  0.7614 -0.2783 -0.3266
 4318TIP3    H134369   0.722   3.088  13.071  1.8494  1.6278 -0.4071
 4318TIP3    H234370   0.840   2.993  13.070  0.7805  0.2721  0.1799
 4319TIP3   OH234371   0.865   6.446   0.187  0.3838  1.0738 -0.1723
 4319TIP3    H134372   0.918   6.466   0.110  2.1918 -0.3266  0.6338
 4319TIP3    H234373   0.828   6.360   0.170 -1.1880  1.7542 -0.4364
 4320TIP3   OH234374   3.234   4.098  11.283 -0.6679 -0.0006  0.8227
 4320TIP3    H134375   3.293   4.120  11.355 -1.6451 -1.7205  2.2240
 4320TIP3    H234376   3.291   4.091  11.206  0.6388  0.3764  1.7290
 4321TIP3   OH234377   3.620   3.217   5.228 -0.3308  0.3886  0.0741
 4321TIP3    H134378   3.710   3.194   5.206 -0.6230  1.3160 -2.3872
 4321TIP3    H234379   3.626   3.262   5.312  1.2449 -1.1235  0.8158
 4322TIP3   OH234380   4.906   0.524  15.647 -0.4118 -0.0313  0.6494
 4322TIP3    H134381   4.924   0.431  15.664  1.9253  0.0252 -1.0137
 4322TIP3    H234382   4.874   0.527  15.557  0.1515  0.8266  0.4665
 4323TIP3   OH234383   4.184   1.516  14.760  0.7808  0.4432 -0.3280
 4323TIP3    H134384   4.207   1.425  14.745 -0.3124  0.2704 -1.1252
 4323TIP3    H234385   4.187   1.527  14.855  3.5101  0.3267 -0.3222
 4324TIP3   OH234386   6.216   3.278   2.142  0.0270 -0.0902 -0.8470
 4324TIP3    H134387   6.233   3.301   2.234 -0.2378 -1.1937 -0.5046
 4324TIP3    H234388   6.151   3.342   2.113 -1.3966 -0.9106  0.3571
 4325TIP3   OH234389   1.127   0.299   3.864  0.6893  0.3002  0.3908
 4325TIP3    H134390   1.101   0.386   3.836 -1.7181 -1.1320 -2.4361
 4325TIP3    H234391   1.204   0.278   3.812 -0.1360 -0.0559 -0.7390
 4326TIP3   OH234392   3.400   2.982   0.893  0.0426 -0.7646 -0.3127
 4326TIP3    H134393   3.487   2.975   0.932  0.2712 -2.4156 -1.0044
 4326TIP3    H234394   3.408   3.051   0.827  0.7194 -0.6410 -0.1078
 4327TIP3   OH234395   4.624   5.404  13.283 -0.3294 -0.2599 -0.4955
 4327TIP3    H134396   4.694   5.464  13.258  1.6885 -1.5911  1.5506
 4327TIP3    H234397   4.632   5.332  13.220  0.7319 -0.7675  0.1771
 4328TIP3   OH234398   3.215   5.070   2.298 -0.2900 -0.0792  0.1215
 4328TIP3    H134399   3.288   5.042   2.243  0.4083  0.5466  0.7165
 4328TIP3    H234400   3.164   5.129   2.242  0.5882  0.8008  0.2258
 4329TIP3   OH234401   5.476   0.880   5.318 -0.1433  0.0855 -0.2628
 4329TIP3    H134402   5.485   0.916   5.406  0.0427  0.1217 -0.2959
 4329TIP3    H234403   5.388   0.843   5.316 -0.0626 -0.1197  0.0134
 4330TIP3   OH234404   4.163   1.980  11.460  0.4638  0.3118  0.3360
 4330TIP3    H134405   4.096   2.039  11.494 -0.4224 -1.2721  1.4505
 4330TIP3    H234406   4.244   2.032  11.460 -0.7192  2.2898 -1.1377
 4331TIP3   OH234407   3.482   5.374  15.621  0.7730  0.4658  0.3148
 4331TIP3    H134408   3.500   5.347  15.711 -0.3563  0.8717  0.6738
 4331TIP3    H234409   3.433   5.456  15.630 -2.7929 -1.3793 -0.5156
 4332TIP3   OH234410   4.099   6.549  17.289  0.6361  0.5449  0.2222
 4332TIP3    H134411   4.060   6.532  17.204  0.1621 -0.8002  0.6821
 4332TIP3    H234412   4.155   6.473  17.306  0.1375  0.4126  1.4293
 4333TIP3   OH234413   2.310   4.435   4.635  0.4408  0.2153 -0.1361
 4333TIP3    H134414   2.373   4.459   4.703 -0.3080 -0.6455  0.8945
 4333TIP3    H234415   2.313   4.508   4.573  2.1016  0.4047  0.1210
 4334TIP3   OH234416   5.859   6.113   5.058  0.4203 -0.2750  0.4476
 4334TIP3    H134417   5.931   6.068   5.102 -0.2520 -1.5660  0.2823
 4334TIP3    H234418   5.890   6.204   5.048  1.1765 -0.3026  2.2118
 4335TIP3   OH234419   2.537   2.815  14.557  0.8063  0.1236 -0.5918
 4335TIP3    H134420   2.579   2.885  14.607  1.1487 -0.8490  0.5272
 4335TIP3    H234421   2.553   2.736  14.609 -1.1676 -0.5097 -0.8688
 4336TIP3   OH234422   1.807   5.903  13.958  0.2571  0.0812 -0.6932
 4336TIP3    H134423   1.874   5.898  14.026  0.4268  1.5845 -0.7216
 4336TIP3    H234424   1.730   5.938  14.003 -0.2533 -0.7966 -0.8587
 4337TIP3   OH234425   6.544   5.861   0.658  0.3416 -0.5929  0.2631
 4337TIP3    H134426   6.478   5.931   0.665  0.3584 -0.6869  1.9306
 4337TIP3    H234427   6.627   5.905   0.672  0.5131 -0.6814 -0.4784
 4338TIP3   OH234428   4.351   4.915  11.801  0.1590 -0.0695 -0.0885
 4338TIP3    H134429   4.418   4.859  11.763 -0.3995 -0.5824 -0.3380
 4338TIP3    H234430   4.298   4.944  11.725  0.5564  0.9582  0.0088
 4339TIP3   OH234431   2.245   4.201   1.072 -0.0430  0.0109 -0.1000
 4339TIP3    H134432   2.306   4.192   1.145  0.7438  0.0113 -0.7489
 4339TIP3    H234433   2.239   4.296   1.058  0.0609 -0.0072 -0.2581
 4340TIP3   OH234434   1.808   3.284   5.632  0.0131 -0.1013 -0.9043
 4340TIP3    H134435   1.807   3.379   5.621  0.1859 -0.1128 -1.0330
 4340TIP3    H234436   1.781   3.270   5.723  1.1105  0.1352 -0.5200
 4341TIP3   OH234437   6.089   3.550   4.071  0.1166 -0.0163  0.2189
 4341TIP3    H134438   6.126   3.536   4.158 -0.1499 -0.5459  0.2538
 4341TIP3    H234439   6.165   3.555   4.013  0.3319  1.0884  0.5711
 4342TIP3   OH234440   4.236   6.486   2.544  0.5954  0.0553 -0.4976
 4342TIP3    H134441   4.145   6.515   2.539  0.8840  1.1187 -0.0388
 4342TIP3    H234442   4.252   6.475   2.638  0.7813 -0.6875 -0.6114
 4343TIP3   OH234443   6.401   6.122   0.619 -0.4264 -0.2054 -0.1523
 4343TIP3    H134444   6.328   6.162   0.667 -0.6832 -0.3447 -0.4252
 4343TIP3    H234445   6.474   6.183   0.632 -0.5139 -0.2068  0.3540
 4344TIP3   OH234446   6.453   5.836   3.802 -0.3525  0.0936  0.3456
 4344TIP3    H134447   6.444   5.931   3.807 -0.4419  0.0369  1.6844
 4344TIP3    H234448   6.363   5.804   3.792 -0.4815  0.1101  1.2823
 4345TIP3   OH234449   6.265   4.894  15.453 -0.2985 -0.3042 -0.0532
 4345TIP3    H134450   6.298   4.970  15.405  1.4482  0.2803  1.9185
 4345TIP3    H234451   6.208   4.931  15.520  1.8247 -0.4649  1.9694
 4346TIP3   OH234452   1.111   6.159   2.156 -0.1706  0.8935 -0.5560
 4346TIP3    H134453   1.148   6.203   2.233 -2.0254  0.7836  0.4356
 4346TIP3    H234454   1.129   6.219   2.084  2.3025  0.6468 -0.2564
 4347TIP3   OH234455   3.439   5.573  15.917  0.2833  0.8381 -0.5823
 4347TIP3    H134456   3.386   5.497  15.944  0.6315  1.5028  2.3897
 4347TIP3    H234457   3.377   5.646  15.919  1.0120  1.5246  2.3724
 4348TIP3   OH234458   5.925   1.503   1.098 -0.6532  0.1244 -0.2570
 4348TIP3    H134459   6.019   1.517   1.087 -0.3178 -0.4622  1.5282
 4348TIP3    H234460   5.897   1.461   1.016  0.6408  0.2560 -0.7821
 4349TIP3   OH234461   4.999   3.987   0.396  0.0618 -0.1964  0.6180
 4349TIP3    H134462   4.929   4.048   0.416  0.7483  0.3339  1.4714
 4349TIP3    H234463   4.959   3.922   0.338 -0.8677  0.6388  0.2984
 4350TIP3   OH234464   6.091   2.964  15.703  0.4843 -0.2033  0.1308
 4350TIP3    H134465   6.182   2.993  15.700 -0.1833  2.0077 -0.5669
 4350TIP3    H234466   6.052   3.016  15.773 -0.8776  1.0071 -1.4588
 4351TIP3   OH234467   3.229   5.713  12.335 -0.6025  0.3916 -0.5680
 4351TIP3    H134468   3.168   5.777  12.297  0.9621  2.2345 -0.1349
 4351TIP3    H234469   3.314   5.735  12.296 -0.0145 -1.5044 -0.4471
 4352TIP3   OH234470   4.520   0.427   1.809  0.3612  0.3469 -0.3906
 4352TIP3    H134471   4.607   0.393   1.788  0.0446 -0.5981 -0.2296
 4352TIP3    H234472   4.474   0.352   1.848 -1.1332  0.2744 -2.1584
 4353TIP3   OH234473   5.735   1.159   4.160  0.4875 -0.5472  0.0678
 4353TIP3    H134474   5.788   1.114   4.225  0.6723 -1.2148 -0.5239
 4353TIP3    H234475   5.645   1.135   4.182  0.3919  0.7024  1.1584
 4354TIP3   OH234476   2.738   4.143  15.095 -0.8657 -0.1940 -0.4461
 4354TIP3    H134477   2.727   4.175  15.185 -1.4481  0.5505 -0.7750
 4354TIP3    H234478   2.754   4.049  15.105 -0.0641  0.0232  0.4835
 4355TIP3   OH234479   1.260   0.611  11.133 -0.2860  0.0611 -0.3861
 4355TIP3    H134480   1.305   0.576  11.056  0.5124 -1.0250  0.5431
 4355TIP3    H234481   1.284   0.552  11.204 -1.2092  0.8947  0.6596
 4356TIP3   OH234482   3.410   4.700   2.047  0.5320  0.1247 -0.1198
 4356TIP3    H134483   3.346   4.638   2.083 -0.2674  1.5788  1.0439
 4356TIP3    H234484   3.357   4.763   1.997  0.8793  1.9060  1.6497
 4357TIP3   OH234485   3.663   3.516   5.300  0.1101  0.1267 -0.3551
 4357TIP3    H134486   3.605   3.586   5.270 -2.1876 -1.0152  1.1327
 4357TIP3    H234487   3.707   3.486   5.221  0.4156  2.5259 -1.1924
 4358TIP3   OH234488   6.083   6.463   0.986  1.0695 -0.4385 -0.0295
 4358TIP3    H134489   6.058   6.512   0.908  0.6917 -3.0929 -1.7062
 4358TIP3    H234490   6.167   6.424   0.965  1.6520 -0.0704  1.4828
 4359TIP3   OH234491   2.319   4.015  16.592 -0.1993 -0.7145 -0.2311
 4359TIP3    H134492   2.274   4.097  16.611 -0.5963 -1.2360  1.1742
 4359TIP3    H234493   2.255   3.947  16.614  0.2253 -1.4237 -1.1083
 4360TIP3   OH234494   6.145   3.588   3.255  0.0239 -0.3046  0.3406
 4360TIP3    H134495   6.093   3.635   3.190  1.2641  2.4137  1.1690
 4360TIP3    H234496   6.218   3.550   3.205 -1.2599 -1.8916 -0.4160
 4361TIP3   OH234497   6.635   5.020  16.095  0.3728 -0.1894  0.0883
 4361TIP3    H134498   6.581   5.018  16.016 -0.6587 -0.2305  0.7706
 4361TIP3    H234499   6.725   5.011  16.063 -0.0867 -1.2328 -0.9974
 4362TIP3   OH234500   5.500   6.107  15.542  0.4783 -0.2698  0.1716
 4362TIP3    H134501   5.577   6.162  15.531  0.5961 -0.4837 -0.0944
 4362TIP3    H234502   5.524   6.045  15.610  0.1239  0.3921  0.9197
 4363TIP3   OH234503   4.281   4.478  16.062 -0.1365 -0.1671 -0.1468
 4363TIP3    H134504   4.245   4.471  15.973 -1.5209 -0.6912  0.4194
 4363TIP3    H234505   4.224   4.543  16.105  0.0395 -0.4874  0.5753
 4364TIP3   OH234506   1.859   0.907  11.511 -0.1855  0.5375  0.4368
 4364TIP3    H134507   1.773   0.885  11.547  0.2520 -0.7729  0.7087
 4364TIP3    H234508   1.919   0.899  11.585  0.0549  2.4273  0.4895
 4365TIP3   OH234509   4.963   3.710   1.883 -0.3056  0.3695 -0.0040
 4365TIP3    H134510   5.015   3.775   1.836 -1.9150  0.1218 -2.2670
 4365TIP3    H234511   4.897   3.680   1.820 -2.0256 -0.6928  2.1273
 4366TIP3   OH234512   5.828   4.954  12.433 -0.6196 -0.3348  0.2170
 4366TIP3    H134513   5.752   4.904  12.403  0.8744 -0.6945 -3.4438
 4366TIP3    H234514   5.872   4.895  12.495 -2.4544 -0.6836  1.2756
 4367TIP3   OH234515   3.731   3.955  16.614 -0.2279 -0.6840  0.5037
 4367TIP3    H134516   3.816   3.973  16.653  1.0173 -2.7231 -1.0651
 4367TIP3    H234517   3.668   3.990  16.677  1.6718  3.7885  0.3421
 4368TIP3   OH234518   6.576   2.772   5.054  0.0042 -0.2307 -0.1140
 4368TIP3    H134519   6.508   2.714   5.020  0.0960  0.4049 -1.4642
 4368TIP3    H234520   6.538   2.859   5.048  1.0992  0.1928 -1.3978
 4369TIP3   OH234521   1.891   0.448   3.701  0.0153  0.3651  0.0010
 4369TIP3    H134522   1.909   0.355   3.686 -1.4647  0.1156 -0.3881
 4369TIP3    H234523   1.905   0.460   3.794  0.1603 -0.2627  0.0699
 4370TIP3   OH234524   0.832   5.358   2.950  0.0732  0.1364 -0.0987
 4370TIP3    H134525   0.854   5.357   2.857 -0.9110 -1.7800 -0.3700
 4370TIP3    H234526   0.737   5.342   2.952 -0.5104  3.0642  1.1762
 4371TIP3   OH234527   2.447   4.110  11.635  0.2916 -0.7514  0.3213
 4371TIP3    H134528   2.371   4.063  11.671  0.4274  0.3965  2.2055
 4371TIP3    H234529   2.523   4.067  11.675  0.5070 -0.2051  0.5047
 4372TIP3   OH234530   4.080   0.778   1.457  0.0109 -0.2117  0.3243
 4372TIP3    H134531   4.016   0.707   1.464 -0.5060  0.1113 -0.8706
 4372TIP3    H234532   4.085   0.797   1.363  2.2960 -0.6085  0.3091
 4373TIP3   OH234533   5.512   2.121  16.316  0.7696  0.5282 -0.0288
 4373TIP3    H134534   5.452   2.047  16.310 -1.6887  2.4743 -0.6559
 4373TIP3    H234535   5.591   2.091  16.272 -0.5574 -1.3309 -1.2820
 4374TIP3   OH234536   6.269   3.288  17.176 -0.0604 -0.2186 -0.2714
 4374TIP3    H134537   6.207   3.260  17.243 -0.8670 -0.4684 -1.1089
 4374TIP3    H234538   6.235   3.372  17.146 -1.2402 -1.3453 -2.2541
 4375TIP3   OH234539   0.468   3.356   6.512 -0.2050 -0.0657  0.1961
 4375TIP3    H134540   0.399   3.419   6.492  0.5710  0.7800  0.1614
 4375TIP3    H234541   0.513   3.342   6.429 -0.4207 -0.7400  0.1844
 4376TIP3   OH234542   3.704   1.808  12.043 -0.2223 -0.2047  0.1303
 4376TIP3    H134543   3.783   1.848  12.079 -0.2303 -0.8985  0.9255
 4376TIP3    H234544   3.736   1.750  11.974 -0.0116 -0.7267  0.6671
 4377TIP3   OH234545   2.954   5.680  14.258  1.1053 -0.2957  0.0018
 4377TIP3    H134546   2.887   5.670  14.190 -1.8873  0.1503  2.6597
 4377TIP3    H234547   2.959   5.775  14.273  1.3465 -0.4143  0.7360
 4378TIP3   OH234548   5.478   4.918   1.427  0.4208 -0.4008  0.2676
 4378TIP3    H134549   5.534   4.911   1.350 -1.5855  1.9313 -1.5830
 4378TIP3    H234550   5.475   4.829   1.463  3.6087 -0.9992 -0.6686
 4379TIP3   OH234551   5.881   3.513  16.867  0.5888 -0.1939 -0.3244
 4379TIP3    H134552   5.939   3.438  16.861 -0.9135 -1.3213 -1.5200
 4379TIP3    H234553   5.807   3.491  16.810 -0.9251  1.2468  0.9874
 4380TIP3   OH234554   3.706   1.870   3.812  0.1897 -0.2552 -0.1035
 4380TIP3    H134555   3.717   1.958   3.849  0.3571  0.7268 -2.3145
 4380TIP3    H234556   3.785   1.857   3.759 -1.1682 -0.4465 -2.2031
 4381TIP3   OH234557   5.675   1.798   1.117 -0.0010 -0.4276 -0.1076
 4381TIP3    H134558   5.624   1.879   1.119  1.0818  0.2596  0.5348
 4381TIP3    H234559   5.757   1.822   1.074 -0.5112 -1.7187 -1.9268
 4382TIP3   OH234560   2.737   1.610  11.292  0.0474  0.1316  0.1294
 4382TIP3    H134561   2.732   1.570  11.379 -0.2378  1.4418  0.7437
 4382TIP3    H234562   2.645   1.623  11.268  0.0707 -1.6336 -1.0768
 4383TIP3   OH234563   1.014   2.207   5.148  0.5511 -0.0377 -0.7541
 4383TIP3    H134564   1.078   2.152   5.101  0.1054 -1.8598  0.6594
 4383TIP3    H234565   1.059   2.234   5.228  0.3832  0.7732 -0.9256
 4384TIP3   OH234566   6.378   0.522  13.447 -0.0726  0.5535 -0.5241
 4384TIP3    H134567   6.372   0.514  13.542  1.0506  1.3423 -0.3686
 4384TIP3    H234568   6.290   0.550  13.420 -0.1504  1.2154  0.3814
 4385TIP3   OH234569   0.306   2.068  10.675 -0.2046  0.3411 -0.0655
 4385TIP3    H134570   0.373   2.089  10.610  0.1783  1.7282  0.7298
 4385TIP3    H234571   0.291   2.151  10.721 -0.9810 -0.4402  1.1430
 4386TIP3   OH234572   6.360   3.747  15.389  0.1604  0.0628 -0.2753
 4386TIP3    H134573   6.448   3.754  15.427 -0.5301  1.3230  1.2185
 4386TIP3    H234574   6.351   3.655  15.366  1.5714 -0.2536  0.3125
 4387TIP3   OH234575   4.368   6.492   5.539 -0.9245  0.5917  0.0517
 4387TIP3    H134576   4.421   6.434   5.592 -0.4123 -0.8177 -1.8914
 4387TIP3    H234577   4.282   6.450   5.534 -0.6020  0.0259 -1.2208
 4388TIP3   OH234578   2.995   3.416  16.285  0.1474  0.4510  0.0424
 4388TIP3    H134579   3.013   3.499  16.330  0.2785  1.5179 -1.8879
 4388TIP3    H234580   3.081   3.377  16.272  0.1766  0.5105  0.0543
 4389TIP3   OH234581   1.857   1.946   2.539  0.0365  0.0725  0.2844
 4389TIP3    H134582   1.778   1.958   2.486 -0.0173 -1.4568 -0.0533
 4389TIP3    H234583   1.825   1.920   2.625  0.1586  0.6357  0.5034
 4390TIP3   OH234584   3.721   5.490  16.903  0.7703 -0.1997  0.1063
 4390TIP3    H134585   3.687   5.560  16.849  0.2264  0.6120  1.4493
 4390TIP3    H234586   3.802   5.463  16.860  1.2575  1.6081 -0.1706
 4391TIP3   OH234587   0.880   0.975  14.439  0.5340 -0.1899  0.1765
 4391TIP3    H134588   0.831   1.036  14.383  1.8439  0.6121 -0.1301
 4391TIP3    H234589   0.858   0.888  14.404  0.2638  0.2251 -0.7231
 4392TIP3   OH234590   2.820   5.140  16.936 -0.4983 -0.1655 -0.1443
 4392TIP3    H134591   2.822   5.063  16.878 -1.4417  1.1137 -1.9543
 4392TIP3    H234592   2.908   5.178  16.928  0.1395 -1.2729  1.1482
 4393TIP3   OH234593   1.897   1.977  15.323  0.0895  0.5226 -0.4309
 4393TIP3    H134594   1.867   1.948  15.237  2.1404  0.5432 -1.2149
 4393TIP3    H234595   1.911   2.071  15.314 -1.7008  0.9369  0.6062
 4394TIP3   OH234596   4.777   3.127  12.066  0.1860  0.1178 -0.2421
 4394TIP3    H134597   4.851   3.167  12.112 -0.2352 -1.2929  1.7682
 4394TIP3    H234598   4.699   3.159  12.112 -0.2997 -0.6273 -0.5160
 4395TIP3   OH234599   6.599   5.565  13.775  0.2162 -0.0908  0.9477
 4395TIP3    H134600   6.583   5.646  13.726 -0.3594 -0.1846  0.9688
 4395TIP3    H234601   6.613   5.593  13.865  0.6787  0.0347  0.8385
 4396TIP3   OH234602   5.222   2.690  13.705 -0.4588  0.3384  0.3191
 4396TIP3    H134603   5.246   2.676  13.797  0.4247 -0.8833 -0.0657
 4396TIP3    H234604   5.127   2.689  13.705 -0.4696  0.2216  1.2132
 4397TIP3   OH234605   1.537   2.519  14.593  0.3153  0.2049  0.0035
 4397TIP3    H134606   1.497   2.436  14.568  1.8747 -0.0788 -1.8554
 4397TIP3    H234607   1.468   2.584  14.579 -0.3312 -0.5626 -0.4564
 4398TIP3   OH234608   3.626   2.059   1.564  0.6057 -0.0754  0.1533
 4398TIP3    H134609   3.652   2.066   1.472 -0.0701 -1.5544 -0.1645
 4398TIP3    H234610   3.685   2.120   1.610  0.4329  1.2575 -1.3344
 4399TIP3   OH234611   4.264   4.628  11.120  0.3635 -0.4147 -0.2152
 4399TIP3    H134612   4.233   4.566  11.054  0.5028 -0.0923 -0.5896
 4399TIP3    H234613   4.353   4.650  11.092  0.1365  0.3293 -0.3684
 4400TIP3   OH234614   4.085   4.492  15.850  0.4614 -0.1798 -0.1987
 4400TIP3    H134615   3.990   4.501  15.853  0.4474 -0.4339  0.2003
 4400TIP3    H234616   4.115   4.566  15.798 -0.0159 -0.5384 -1.0089
 4401TIP3   OH234617   6.304   5.507   2.533 -0.8214  0.3400 -0.5049
 4401TIP3    H134618   6.288   5.428   2.481 -2.1671  0.0204  0.3211
 4401TIP3    H234619   6.219   5.527   2.572 -0.3085  1.7291 -0.0341
 4402TIP3   OH234620   1.244   0.115  12.007  0.7005 -0.4098 -0.1772
 4402TIP3    H134621   1.240   0.102  11.913  1.8471 -2.5903 -0.0014
 4402TIP3    H234622   1.323   0.067  12.034  0.1938 -0.1549  1.9343
 4403TIP3   OH234623   0.203   5.781  11.758  0.5210 -0.3187 -0.1381
 4403TIP3    H134624   0.290   5.744  11.749  1.5698  2.3242 -2.2747
 4403TIP3    H234625   0.204   5.827  11.842  0.8383 -1.1043  0.2918
 4404TIP3   OH234626   5.393   2.687   0.901  0.2600  0.0744  0.5765
 4404TIP3    H134627   5.454   2.719   0.834  1.2822 -0.6575  1.1271
 4404TIP3    H234628   5.318   2.746   0.894  0.5931  0.3929 -0.7931
 4405TIP3   OH234629   3.877   4.340  16.068  0.1852  0.3015 -0.1817
 4405TIP3    H134630   3.955   4.396  16.068  0.2398  0.2217  0.2442
 4405TIP3    H234631   3.840   4.350  16.155  0.3039 -0.4884 -0.0403
 4406TIP3   OH234632   0.379   5.093  14.068  0.6781  0.2551 -0.0174
 4406TIP3    H134633   0.426   5.059  14.144  0.1739  0.2242  0.2829
 4406TIP3    H234634   0.434   5.164  14.035  0.5035  0.8130  0.8703
 4407TIP3   OH234635   1.073   1.775  13.315  0.2370  0.7677 -0.2348
 4407TIP3    H134636   0.979   1.792  13.320  0.2439  0.5448  1.3693
 4407TIP3    H234637   1.111   1.859  13.290 -0.4301  0.6678 -1.6781
 4408TIP3   OH234638   2.493   0.126   2.927  0.5557  0.8749  0.4731
 4408TIP3    H134639   2.464   0.132   2.836  1.2353 -0.1048  0.1817
 4408TIP3    H234640   2.575   0.174   2.929  1.2905 -0.3222  0.2163
 4409TIP3   OH234641   1.348   3.753  16.100  0.0050 -0.3953 -0.4378
 4409TIP3    H134642   1.366   3.710  16.017 -0.7992 -2.0055  0.1641
 4409TIP3    H234643   1.434   3.770  16.138  0.3558 -0.4669 -1.2001
 4410TIP3   OH234644   3.084   2.959   0.634 -0.2920  0.2543 -0.0940
 4410TIP3    H134645   3.099   2.913   0.716  0.9929  1.3624  0.3341
 4410TIP3    H234646   2.988   2.965   0.627 -0.4506 -1.1326  0.5559
 4411TIP3   OH234647   1.810   4.974  15.676 -0.1173 -0.2338  0.1451
 4411TIP3    H134648   1.862   4.899  15.648  1.4401  0.2321  1.6157
 4411TIP3    H234649   1.785   4.954  15.766  1.1035  1.3660  0.8860
 4412TIP3   OH234650   2.728   0.653  15.580 -0.8303 -0.3841 -0.1223
 4412TIP3    H134651   2.680   0.735  15.596 -0.4719  0.0392 -1.1134
 4412TIP3    H234652   2.810   0.664  15.627 -0.8371 -0.2250 -0.1453
 4413TIP3   OH234653   5.730   0.311  16.832 -0.2701  0.2181  0.2474
 4413TIP3    H134654   5.704   0.389  16.783 -1.1470 -0.7556 -0.9263
 4413TIP3    H234655   5.779   0.344  16.907 -0.2835  1.8600 -0.4296
 4414TIP3   OH234656   4.843   1.628   2.329 -0.2028  0.4873  0.0781
 4414TIP3    H134657   4.908   1.568   2.367  0.9990  0.3502 -2.0171
 4414TIP3    H234658   4.771   1.628   2.392  1.1850 -0.5232  1.7836
 4415TIP3   OH234659   0.488   5.568   4.084 -0.1811 -0.2258  0.0157
 4415TIP3    H134660   0.427   5.497   4.064 -0.4250  0.3690 -1.5269
 4415TIP3    H234661   0.566   5.524   4.117 -1.1738 -1.0442  1.4206
 4416TIP3   OH234662   5.312   3.079  13.663  0.7354 -0.2587  0.3399
 4416TIP3    H134663   5.380   3.140  13.691  0.3058  0.4787 -0.1973
 4416TIP3    H234664   5.344   3.044  13.580 -0.2576  1.3221 -0.7532
 4417TIP3   OH234665   3.876   1.606  13.927  0.4967  0.4808  0.1550
 4417TIP3    H134666   3.942   1.568  13.869  0.6366 -1.5718  1.5739
 4417TIP3    H234667   3.921   1.617  14.010 -1.3082 -2.7663  1.7348
 4418TIP3   OH234668   5.202   2.439   3.890  0.3541 -0.5333 -0.3785
 4418TIP3    H134669   5.220   2.359   3.840 -0.8815 -1.3677  0.4541
 4418TIP3    H234670   5.164   2.408   3.972 -0.9973  0.9342 -0.4038
 4419TIP3   OH234671   2.079   0.419  14.039 -0.5914  0.5037  0.0827
 4419TIP3    H134672   2.086   0.508  14.075  0.6964 -0.5896  2.7648
 4419TIP3    H234673   2.121   0.425  13.953  0.8245  2.1952  0.8309
 4420TIP3   OH234674   6.246   3.805  17.243 -0.5554 -0.2284 -0.2283
 4420TIP3    H134675   6.331   3.810  17.287 -0.8891  1.3238  0.3270
 4420TIP3    H234676   6.265   3.829  17.152 -0.5988  1.9668  0.2715
 4421TIP3   OH234677   4.793   2.745   1.986 -0.5962  0.4229  0.6191
 4421TIP3    H134678   4.816   2.652   1.983 -0.4505  0.4692 -0.3806
 4421TIP3    H234679   4.724   2.751   2.051 -1.0794 -0.5035  0.2225
 4422TIP3   OH234680   5.803   5.026  16.439 -0.2331  0.3664 -0.2715
 4422TIP3    H134681   5.769   4.938  16.422 -1.2794  0.7393 -0.1762
 4422TIP3    H234682   5.730   5.084  16.420  0.2043  1.1659  0.4334
 4423TIP3   OH234683   2.345   1.435   2.516  0.1539 -0.0025 -0.1371
 4423TIP3    H134684   2.254   1.458   2.533  0.3711 -0.8951  2.9636
 4423TIP3    H234685   2.350   1.341   2.533  1.8725  0.2657  1.1522
 4424TIP3   OH234686   2.406   5.920  15.842 -0.3250 -0.2737  0.2432
 4424TIP3    H134687   2.437   5.852  15.902  0.9468 -0.3357 -0.4561
 4424TIP3    H234688   2.451   5.999  15.871 -0.2734 -0.1510 -0.1809
 4425TIP3   OH234689   4.435   2.319   6.365 -0.1632  0.4140 -0.4315
 4425TIP3    H134690   4.343   2.307   6.343  0.2553  1.1434 -2.9385
 4425TIP3    H234691   4.479   2.242   6.329  0.2930  0.4038  0.1315
 4426TIP3   OH234692   2.741   1.631  16.272  0.1871 -0.0726  0.1308
 4426TIP3    H134693   2.818   1.687  16.264 -1.7657  2.7543 -0.1639
 4426TIP3    H234694   2.716   1.637  16.364 -1.1400  1.1933 -0.2778
 4427TIP3   OH234695   5.979   3.404   6.243  0.0327 -0.9454 -1.0307
 4427TIP3    H134696   6.059   3.457   6.249 -1.4226  1.2238  1.8273
 4427TIP3    H234697   5.912   3.465   6.213 -0.5991 -2.8151 -3.7578
 4428TIP3   OH234698   5.011   5.938  13.482 -0.0211 -0.8310  0.4272
 4428TIP3    H134699   4.981   5.847  13.474 -1.2427 -0.4742  0.7443
 4428TIP3    H234700   5.091   5.941  13.430 -1.3992 -1.4372 -1.9243
 4429TIP3   OH234701   5.299   4.766  16.429 -0.5870  0.2531 -0.4545
 4429TIP3    H134702   5.210   4.732  16.439  0.0086 -1.1510  0.3642
 4429TIP3    H234703   5.348   4.727  16.501  1.0279 -0.1962 -1.7311
 4430TIP3   OH234704   3.482   1.474   5.420  0.7941  0.4606  0.2136
 4430TIP3    H134705   3.513   1.542   5.360 -3.0635  1.9165 -0.4332
 4430TIP3    H234706   3.389   1.493   5.431 -0.3154 -4.1640  0.8302
 4431TIP3   OH234707   3.572   4.328  13.333 -0.3396  0.2864 -0.2480
 4431TIP3    H134708   3.597   4.237  13.350 -1.3132  0.3405  1.7524
 4431TIP3    H234709   3.487   4.322  13.290 -0.1315  0.2533 -0.6611
 4432TIP3   OH234710   5.719   0.905   2.894  0.1479 -0.7218  0.2804
 4432TIP3    H134711   5.749   0.822   2.930  1.4907  1.0941  3.8204
 4432TIP3    H234712   5.791   0.966   2.911 -0.4891  1.0964 -2.8361
 4433TIP3   OH234713   2.993   3.686  15.489  0.5145 -0.5111  0.6798
 4433TIP3    H134714   3.072   3.640  15.459  1.9644  0.7117  2.4275
 4433TIP3    H234715   3.003   3.692  15.584 -2.0810 -0.9628  1.0611
 4434TIP3   OH234716   5.371   6.006  12.227 -0.2725  0.1700  0.2467
 4434TIP3    H134717   5.328   5.981  12.308 -0.6793 -0.0875 -0.0431
 4434TIP3    H234718   5.461   5.973  12.235 -0.6566 -0.9572  0.0801
 4435TIP3   OH234719   0.902   1.074   3.931  0.1709  0.2201 -0.1637
 4435TIP3    H134720   0.955   1.136   3.982  0.6471 -0.3502  0.0433
 4435TIP3    H234721   0.856   1.022   3.997  0.0329  0.1272 -0.3320
 4436TIP3   OH234722   5.164   6.006   2.788 -0.5234  0.4079 -0.3727
 4436TIP3    H134723   5.165   6.091   2.743 -3.4197 -0.2310 -1.9111
 4436TIP3    H234724   5.122   6.024   2.872  0.2715  0.7260 -0.0325
 4437TIP3   OH234725   5.735   5.845  14.187  0.3656  0.1646 -0.3479
 4437TIP3    H134726   5.767   5.757  14.205 -1.5101 -0.2472  1.2630
 4437TIP3    H234727   5.756   5.895  14.266  0.2461  0.8121 -0.7218
 4438TIP3   OH234728   3.428   4.587  16.271  0.3887 -0.4037 -0.2590
 4438TIP3    H134729   3.372   4.534  16.329  0.5471  0.9511  1.2031
 4438TIP3    H234730   3.366   4.641  16.221  0.3236  0.7700  1.0349
 4439TIP3   OH234731   6.171   2.784   3.621 -0.1355 -0.3631  0.1295
 4439TIP3    H134732   6.192   2.877   3.627 -0.6879 -0.0542 -1.9500
 4439TIP3    H234733   6.140   2.772   3.532  1.3802 -2.8622 -0.1590
 4440TIP3   OH234734   4.385   6.009  16.727  0.0249 -0.0703 -0.4129
 4440TIP3    H134735   4.384   6.066  16.650  0.1424  0.8024  0.2069
 4440TIP3    H234736   4.476   6.014  16.759 -0.3057  0.6240  0.5039
 4441TIP3   OH234737   0.488   3.571  16.708  0.6756 -0.1582  0.0853
 4441TIP3    H134738   0.533   3.551  16.790 -1.5553 -0.8455  1.2180
 4441TIP3    H234739   0.495   3.666  16.700  2.0074 -0.2049  0.3727
 4442TIP3   OH234740   2.062   1.391   2.800  0.7075 -0.8111 -0.2215
 4442TIP3    H134741   2.081   1.300   2.822  0.4861 -1.4545 -2.4811
 4442TIP3    H234742   2.021   1.426   2.879  0.8202 -2.6599  0.7179
 4443TIP3   OH234743   5.469   3.592  16.093  0.0842  0.1672 -0.2155
 4443TIP3    H134744   5.532   3.614  16.161  0.5043  1.3341 -0.9430
 4443TIP3    H234745   5.418   3.672  16.081 -0.7203 -0.3756 -0.4989
 4444TIP3   OH234746   5.223   6.455   0.903  0.3348 -0.3876 -0.1251
 4444TIP3    H134747   5.130   6.475   0.893 -0.1641 -2.5014 -0.2274
 4444TIP3    H234748   5.227   6.404   0.984  0.9763 -2.4917 -1.4171
 4445TIP3   OH234749   2.526   4.574   5.087  0.1152 -0.0240  0.5314
 4445TIP3    H134750   2.596   4.563   5.152 -0.0272  0.3724  0.7569
 4445TIP3    H234751   2.446   4.554   5.135  0.2438 -3.4441 -0.4581
 4446TIP3   OH234752   3.630   1.444   3.111  0.0920  0.1161 -0.3295
 4446TIP3    H134753   3.535   1.459   3.117  0.0018 -0.8615  1.3146
 4446TIP3    H234754   3.667   1.531   3.102 -1.0310  0.4182 -3.0332
 4447TIP3   OH234755   3.755   3.695   4.518 -0.2201  0.4103  0.3788
 4447TIP3    H134756   3.748   3.614   4.569  0.5312 -1.2380 -1.9970
 4447TIP3    H234757   3.829   3.742   4.557  0.6551 -1.0333  0.5154
 4448TIP3   OH234758   0.941   6.601   0.411  0.0456 -0.6277 -0.3125
 4448TIP3    H134759   0.869   6.605   0.349  1.2908 -0.8807 -1.8556
 4448TIP3    H234760   0.994   6.526   0.381  1.4555  0.1404  0.1455
 4449TIP3   OH234761   0.299   5.946   5.778 -0.0462 -0.0473 -0.3219
 4449TIP3    H134762   0.295   5.851   5.776 -0.0183 -0.0970  1.1969
 4449TIP3    H234763   0.226   5.973   5.833  0.2991  0.7816 -0.2420
 4450TIP3   OH234764   4.748   2.200  16.192 -0.1784  0.7714 -0.0397
 4450TIP3    H134765   4.815   2.176  16.128  2.6708  1.3080  2.5182
 4450TIP3    H234766   4.746   2.126  16.253 -2.0299  0.7531 -0.0638
 4451TIP3   OH234767   3.297   2.344  17.155  0.2528 -0.0881 -0.2834
 4451TIP3    H134768   3.303   2.331  17.061  1.5164 -0.0627 -0.2191
 4451TIP3    H234769   3.369   2.403  17.176 -0.3488  0.3478  0.6282
 4452TIP3   OH234770   2.972   5.285  14.656  0.3365 -0.0369  0.3111
 4452TIP3    H134771   3.052   5.236  14.637  0.3845 -0.2471  1.0563
 4452TIP3    H234772   2.975   5.359  14.595  0.5431 -0.6434 -0.4312
 4453TIP3   OH234773   2.437   1.825  12.938 -0.1489  0.8285 -0.4533
 4453TIP3    H134774   2.400   1.813  13.026  0.9708 -0.4435 -0.1043
 4453TIP3    H234775   2.369   1.870  12.889 -1.1075  0.8806  0.8540
 4454TIP3   OH234776   1.674   0.105   2.992 -0.0194 -0.0280  0.1531
 4454TIP3    H134777   1.699   0.013   2.997  2.4639  0.5551 -0.4777
 4454TIP3    H234778   1.713   0.137   2.911 -1.2574  1.4765  0.1024
 4455TIP3   OH234779   2.936   4.244  14.922 -0.5526  0.4290 -0.2082
 4455TIP3    H134780   2.863   4.231  14.982  1.6759 -2.0851  2.2168
 4455TIP3    H234781   2.958   4.156  14.892  0.4072  1.3133 -2.3364
 4456TIP3   OH234782   0.522   1.889   5.871  0.0901 -0.5616  0.3698
 4456TIP3    H134783   0.499   1.982   5.875 -0.8899 -0.8199  1.1068
 4456TIP3    H234784   0.521   1.868   5.778  3.5487  0.9000 -0.1585
 4457TIP3   OH234785   2.370   1.691   2.623 -0.0446 -0.2641  0.3908
 4457TIP3    H134786   2.307   1.623   2.600 -0.5766  0.2502  0.2943
 4457TIP3    H234787   2.397   1.670   2.712 -0.3004 -0.5343  0.4043
 4458TIP3   OH234788   2.579   2.313  13.885 -0.9420  0.5343 -0.6103
 4458TIP3    H134789   2.551   2.401  13.860 -0.3117  1.0133  0.2971
 4458TIP3    H234790   2.670   2.324  13.913 -0.3139 -0.7034 -2.0142
 4459TIP3   OH234791   3.889   0.540   6.298 -0.1884  0.1413  0.4217
 4459TIP3    H134792   3.955   0.506   6.359  0.1196  2.6340  1.5717
 4459TIP3    H234793   3.936   0.604   6.244 -0.6237 -1.4798 -2.0792
 4460TIP3   OH234794   5.301   5.882   1.204  0.3453  0.7721  0.1614
 4460TIP3    H134795   5.325   5.844   1.120  1.5965  0.2236  0.7253
 4460TIP3    H234796   5.274   5.807   1.258 -0.0394  1.0602  0.3751
 4461TIP3   OH234797   0.029   4.436  14.476 -0.4705 -0.3255 -0.3203
 4461TIP3    H134798  -0.041   4.492  14.509 -0.0657 -0.5467  0.9679
 4461TIP3    H234799   0.073   4.403  14.555  0.0651 -1.4806 -1.0759
 4462TIP3   OH234800   2.240   2.019   6.024  0.0173 -0.1181 -0.3692
 4462TIP3    H134801   2.185   2.065   5.961  1.6256 -1.6998 -3.1224
 4462TIP3    H234802   2.299   2.086   6.058 -0.4357  0.6430 -1.0467
 4463TIP3   OH234803   4.567   6.709  16.328  0.0244 -0.2886 -0.3052
 4463TIP3    H134804   4.656   6.704  16.361 -0.1741  2.5976  0.9629
 4463TIP3    H234805   4.520   6.640  16.374  1.2990 -0.9644  0.0246
 4464TIP3   OH234806   1.525   1.955   4.146  0.6900 -0.0110  0.1494
 4464TIP3    H134807   1.525   2.004   4.228 -1.6123 -1.8865  1.3819
 4464TIP3    H234808   1.450   1.990   4.097  0.6571 -0.4623 -0.1318
 4465TIP3   OH234809   6.199   3.035  15.412 -0.7660 -0.5652  0.1324
 4465TIP3    H134810   6.245   3.014  15.331 -1.3182 -0.1830 -0.2868
 4465TIP3    H234811   6.254   2.998  15.481 -0.0254 -0.4524 -0.3838
 4466TIP3   OH234812   3.109   4.942   0.808 -0.1112  0.1918 -0.4484
 4466TIP3    H134813   3.115   5.035   0.783  3.0184 -0.1798 -1.5461
 4466TIP3    H234814   3.084   4.944   0.900 -1.8668  2.0157 -0.8800
 4467TIP3   OH234815   4.773   6.703   5.294  0.3460  0.6445  0.7257
 4467TIP3    H134816   4.741   6.673   5.209 -1.0462  0.1107  1.4143
 4467TIP3    H234817   4.748   6.634   5.356  1.7948  0.7654  1.5138
 4468TIP3   OH234818   4.524   3.961  13.125  0.0978  0.7210 -0.0949
 4468TIP3    H134819   4.512   3.871  13.094  1.2294  0.9124 -1.1838
 4468TIP3    H234820   4.483   3.963  13.212 -0.5209 -0.6585 -0.3410
 4469TIP3   OH234821   3.972   0.534   0.434  0.1934 -0.1208 -0.0431
 4469TIP3    H134822   3.919   0.593   0.488  0.0788 -1.1438  1.0023
 4469TIP3    H234823   3.929   0.449   0.442  1.8771 -0.9683  0.7424
 4470TIP3   OH234824   6.560   2.597  12.010  0.1258  0.4170  0.1337
 4470TIP3    H134825   6.520   2.682  11.995 -1.2945 -0.2753 -0.1246
 4470TIP3    H234826   6.526   2.542  11.940  1.6205 -0.1874 -0.1468
 4471TIP3   OH234827   6.728   0.168   4.546  0.2035  0.3221 -0.1977
 4471TIP3    H134828   6.722   0.074   4.529  1.0114  0.1577  0.4035
 4471TIP3    H234829   6.687   0.179   4.632 -1.7160  0.8239 -1.1110
 4472TIP3   OH234830   0.590   2.383   2.995  0.2545 -0.1881  0.4789
 4472TIP3    H134831   0.567   2.476   2.990  1.7974  0.2466  0.9244
 4472TIP3    H234832   0.595   2.355   2.903 -2.9188 -0.6010  0.3329
 4473TIP3   OH234833   6.481   3.583  17.322  0.2675  0.3121  0.6065
 4473TIP3    H134834   6.490   3.673  17.353 -1.6213  0.8256 -0.1843
 4473TIP3    H234835   6.398   3.553  17.359 -0.5744 -0.0645 -1.4753
 4474TIP3   OH234836   6.457   3.575  14.285 -0.0332  0.4225 -0.0940
 4474TIP3    H134837   6.521   3.644  14.299 -0.4331  0.5851  1.0358
 4474TIP3    H234838   6.503   3.494  14.309  0.4564  0.2483 -1.4803
 4475TIP3   OH234839   5.601   0.528   0.111  0.1312 -0.1103 -0.2786
 4475TIP3    H134840   5.677   0.577   0.082 -0.5165  0.7939 -0.4909
 4475TIP3    H234841   5.617   0.511   0.204  0.8979 -0.5318 -0.4793
 4476TIP3   OH234842   1.356   4.375   4.071 -0.3336 -0.5987 -0.1539
 4476TIP3    H134843   1.395   4.333   4.148 -1.5850  0.0085  0.8644
 4476TIP3    H234844   1.390   4.326   3.997  2.6752  0.1499  0.5870
 4477TIP3   OH234845   0.466   1.188   4.773 -0.1127 -0.2933  0.3160
 4477TIP3    H134846   0.479   1.145   4.688  1.8263 -2.1061  1.4375
 4477TIP3    H234847   0.546   1.240   4.786 -1.7882  2.6845 -0.3477
 4478TIP3   OH234848   0.668   0.656  16.858 -0.6918 -0.0869  0.0646
 4478TIP3    H134849   0.667   0.720  16.787 -0.6801 -0.4472 -0.2665
 4478TIP3    H234850   0.627   0.701  16.932 -1.3602  0.0511 -0.3831
 4479TIP3   OH234851   2.936   1.967  15.068 -0.6254 -0.0719  0.0647
 4479TIP3    H134852   2.859   1.914  15.046 -0.2859  0.3392 -2.3807
 4479TIP3    H234853   2.989   1.910  15.125 -1.7432 -1.1386  0.0824
 4480TIP3   OH234854   0.388   1.180  13.887 -0.1248 -0.0562  0.1932
 4480TIP3    H134855   0.313   1.122  13.872 -0.7969  1.0243 -0.8689
 4480TIP3    H234856   0.363   1.231  13.964 -0.7378  0.6378 -0.4398
 4481TIP3   OH234857   0.950   2.466   3.632  0.0810  0.4640 -0.3635
 4481TIP3    H134858   0.966   2.533   3.565 -0.2004  1.2180  0.3087
 4481TIP3    H234859   1.030   2.413   3.633  1.0885  1.9284  0.3930
 4482TIP3   OH234860   5.134   4.242   3.997  0.2659 -0.2622  0.0764
 4482TIP3    H134861   5.195   4.234   4.070 -0.6570  1.3002  1.0633
 4482TIP3    H234862   5.070   4.306   4.025  0.2499  0.9367 -2.3775
 4483TIP3   OH234863   2.195   6.267   2.124  0.2878 -0.0239  0.0642
 4483TIP3    H134864   2.121   6.274   2.065  0.2110  0.5875  0.2197
 4483TIP3    H234865   2.199   6.175   2.148 -0.0777 -0.1572 -0.3825
 4484TIP3   OH234866   4.429   4.737   6.187 -0.0003 -0.5136 -0.2207
 4484TIP3    H134867   4.475   4.818   6.210  0.1823 -0.3052 -1.2745
 4484TIP3    H234868   4.487   4.667   6.218 -0.2854 -0.2592  0.9380
 4485TIP3   OH234869   0.290   4.502   0.081 -0.1729 -0.6373 -0.2956
 4485TIP3    H134870   0.364   4.547   0.040  0.4908  1.8656  3.1438
 4485TIP3    H234871   0.329   4.452   0.153 -1.6945  1.0658  1.8598
 4486TIP3   OH234872   2.629   0.396  13.592 -0.1169 -0.1498  0.5224
 4486TIP3    H134873   2.626   0.301  13.582 -3.4726 -0.0159 -0.7857
 4486TIP3    H234874   2.539   0.426  13.579  0.8543  3.2777  0.4970
 4487TIP3   OH234875   3.474   2.820   3.516 -0.5419  0.2910  0.0859
 4487TIP3    H134876   3.486   2.746   3.574  0.6473  0.0003 -0.5010
 4487TIP3    H234877   3.543   2.881   3.539 -0.6380  0.5901 -0.3887
 4488TIP3   OH234878   4.223   5.473  14.756  0.2523 -0.1986 -0.0588
 4488TIP3    H134879   4.178   5.504  14.835  0.3550  2.1697 -0.8262
 4488TIP3    H234880   4.169   5.401  14.724 -1.8714  1.1960  0.1921
 4489TIP3   OH234881   1.921   1.539   1.414  0.3315  0.0014  0.2153
 4489TIP3    H134882   1.979   1.463   1.414  0.0704 -0.2797  2.8971
 4489TIP3    H234883   1.835   1.503   1.392  0.2174 -0.5038  1.4290
 4490TIP3   OH234884   6.490   3.418   6.761 -0.0238  0.2530  0.3146
 4490TIP3    H134885   6.567   3.377   6.800 -0.8136  1.8677  3.9321
 4490TIP3    H234886   6.518   3.506   6.737 -0.2121  0.1046 -0.4940
 4491TIP3   OH234887   5.599   3.577   6.847 -0.7010  0.1315 -0.5979
 4491TIP3    H134888   5.626   3.506   6.904  0.6595 -0.3133 -1.7340
 4491TIP3    H234889   5.573   3.647   6.906  1.4030 -0.0244  0.6067
 4492TIP3   OH234890   0.289   4.110   0.825 -0.0583  0.1290  0.1293
 4492TIP3    H134891   0.328   4.034   0.781  0.0891 -1.2892  2.5720
 4492TIP3    H234892   0.319   4.185   0.774  0.7701 -1.3439 -1.6698
 4493TIP3   OH234893   4.225   3.487   2.899  0.0218 -0.1058 -0.1733
 4493TIP3    H134894   4.291   3.460   2.835 -0.5150 -0.6258 -0.5147
 4493TIP3    H234895   4.147   3.437   2.876 -0.3544  0.1454  0.5244
 4494TIP3   OH234896   2.426   1.226  17.272  0.3382  0.0030 -0.2331
 4494TIP3    H134897   2.479   1.295  17.311  1.3049 -1.0995  0.4607
 4494TIP3    H234898   2.409   1.165  17.344 -1.8375  0.2657 -0.4460
 4495TIP3   OH234899   0.777   6.412   4.162 -0.3427  0.3021 -0.4157
 4495TIP3    H134900   0.791   6.366   4.079 -3.4383 -0.1735 -0.7901
 4495TIP3    H234901   0.752   6.342   4.224  1.3298  0.7271  0.7942
 4496TIP3   OH234902   3.114   5.312  15.012  0.3567  0.7208 -0.4811
 4496TIP3    H134903   3.071   5.227  15.000  0.5876  0.5709 -0.2664
 4496TIP3    H234904   3.126   5.320  15.107 -0.6887  1.5063 -0.4010
 4497TIP3   OH234905   4.210   3.395  12.055  0.1700  0.0510 -0.3121
 4497TIP3    H134906   4.202   3.326  12.120 -0.5538 -0.1642 -0.6148
 4497TIP3    H234907   4.152   3.368  11.984 -0.5789  1.2388 -0.1886
 4498TIP3   OH234908   0.019   1.372   5.506 -0.4778  0.3495 -0.6384
 4498TIP3    H134909   0.010   1.297   5.565 -1.7829  0.0154 -1.2403
 4498TIP3    H234910  -0.070   1.396   5.484 -0.0956  2.3783 -0.1109
 4499TIP3   OH234911   0.905   0.112   0.437 -0.6421 -0.3965  0.3292
 4499TIP3    H134912   0.971   0.163   0.389 -1.1273  0.5585  0.6420
 4499TIP3    H234913   0.939   0.023   0.438  1.9077  0.4592  2.5772
 4500TIP3   OH234914   3.930   3.789   5.267 -0.9226 -0.0510  0.1955
 4500TIP3    H134915   3.851   3.834   5.298 -0.5929  0.8379 -0.2316
 4500TIP3    H234916   4.001   3.852   5.280 -0.5914 -0.0982 -1.2804
 4501TIP3   OH234917   6.621   0.926  12.488 -0.0092 -0.6259  0.0967
 4501TIP3    H134918   6.551   0.871  12.453  0.3914  0.0035 -1.8023
 4501TIP3    H234919   6.576   0.992  12.540 -0.7677 -0.7078 -0.4401
 4502TIP3   OH234920   0.109   5.260   6.000  0.1657  0.1211 -0.5827
 4502TIP3    H134921   0.073   5.244   6.087  0.4335 -1.3433 -0.7063
 4502TIP3    H234922   0.126   5.354   5.997 -2.9509  0.7940 -0.2651
 4503TIP3   OH234923   2.614   3.446   1.340  0.6282 -0.0379  0.1899
 4503TIP3    H134924   2.648   3.358   1.353  0.6250 -0.1407 -0.4587
 4503TIP3    H234925   2.659   3.500   1.405  0.7857 -0.4789  0.4474
 4504TIP3   OH234926   5.741   2.821  16.395 -0.1249 -0.0829 -0.0797
 4504TIP3    H134927   5.650   2.802  16.416 -0.0904 -1.2046 -0.8794
 4504TIP3    H234928   5.781   2.840  16.480 -0.8754 -0.5994  0.4003
 4505TIP3   OH234929   1.193   0.818   1.541 -0.1936 -0.7762  0.0428
 4505TIP3    H134930   1.223   0.750   1.481  1.6191 -0.7125  0.7930
 4505TIP3    H234931   1.166   0.890   1.484 -0.6086 -1.5295 -0.7285
 4506TIP3   OH234932   4.973   3.727   1.215  0.1953  0.3115  0.3770
 4506TIP3    H134933   4.991   3.669   1.141 -1.0241  0.0068  0.2930
 4506TIP3    H234934   4.950   3.668   1.286 -0.8401  0.6708  0.3530
 4507TIP3   OH234935   2.270   5.774  15.234 -0.4889 -0.6197 -0.1184
 4507TIP3    H134936   2.176   5.763  15.222 -0.2163 -1.5471 -1.6358
 4507TIP3    H234937   2.306   5.771  15.146  0.7692  2.1581  0.1864
 4508TIP3   OH234938   1.220   1.076   3.020 -0.1064  0.1328 -0.5727
 4508TIP3    H134939   1.198   0.983   3.021 -0.6673  0.2577 -0.6389
 4508TIP3    H234940   1.135   1.120   3.032 -0.0347  0.6674 -1.8560
 4509TIP3   OH234941   5.411   0.822  16.339 -0.1750  0.3530  0.2576
 4509TIP3    H134942   5.399   0.742  16.288  4.1796 -0.3946  0.0077
 4509TIP3    H234943   5.408   0.892  16.274  0.1926 -0.0711 -0.2262
 4510TIP3   OH234944   5.215   1.843  11.225  0.1091 -0.3161  0.1274
 4510TIP3    H134945   5.270   1.909  11.183 -1.3950  1.4195  0.7726
 4510TIP3    H234946   5.132   1.847  11.178 -0.2576 -1.2416  0.6601
 4511TIP3   OH234947   0.828   3.420   3.733 -0.1983 -0.3482 -0.6363
 4511TIP3    H134948   0.767   3.370   3.789 -1.2832  0.9487 -0.6013
 4511TIP3    H234949   0.897   3.448   3.793 -1.7587  1.7144  0.3428
 4512TIP3   OH234950   1.253   4.931   3.443 -0.1574  0.1368  0.2383
 4512TIP3    H134951   1.248   4.839   3.420  2.9842 -0.1115  0.0264
 4512TIP3    H234952   1.273   4.976   3.361 -1.7800  1.0813  0.3103
 4513TIP3   OH234953   2.476   1.428   0.058  0.1282  0.4865 -0.0424
 4513TIP3    H134954   2.381   1.423   0.063  0.2128 -2.6582  0.5117
 4513TIP3    H234955   2.494   1.516   0.025 -2.9789  0.8187 -1.1385
 4514TIP3   OH234956   5.372   4.377   3.370  0.3643  0.2298 -0.2213
 4514TIP3    H134957   5.318   4.300   3.350  0.2315  0.3076 -0.1636
 4514TIP3    H234958   5.437   4.379   3.301  0.2470  0.1789 -0.3338
 4515TIP3   OH234959   5.533   6.735  16.272 -0.5231 -0.5715  0.1123
 4515TIP3    H134960   5.445   6.723  16.306 -1.3334  2.2708 -0.6780
 4515TIP3    H234961   5.526   6.718  16.178  0.2423 -2.1074  0.2955
 4516TIP3   OH234962   2.416   4.835  11.399 -0.0692 -0.1600 -0.3790
 4516TIP3    H134963   2.447   4.905  11.456  0.5270 -0.5262 -0.2486
 4516TIP3    H234964   2.424   4.871  11.310 -1.3667  0.5580 -0.2338
 4517TIP3   OH234965   4.177   2.044  12.215  0.2507  0.5518  0.1510
 4517TIP3    H134966   4.141   2.110  12.274 -0.9272  0.8581 -0.8780
 4517TIP3    H234967   4.192   1.968  12.272  0.1703  1.1917  1.0528
 4518TIP3   OH234968   0.394   5.835  17.280 -0.1367 -0.1122  0.3010
 4518TIP3    H134969   0.349   5.916  17.257  0.3504  0.2850  0.7287
 4518TIP3    H234970   0.485   5.851  17.256  0.2781  0.0955  1.8977
 4519TIP3   OH234971   2.619   3.189  16.144  0.1272  0.2195  0.9358
 4519TIP3    H134972   2.570   3.189  16.061  0.6381 -0.6486  0.6227
 4519TIP3    H234973   2.553   3.170  16.210 -0.0793 -0.3049  0.5866
 4520TIP3   OH234974   2.215   3.228  13.275  0.7351 -0.3248  0.0036
 4520TIP3    H134975   2.210   3.159  13.340  0.8780 -1.4343 -1.1292
 4520TIP3    H234976   2.150   3.204  13.209 -0.3371  1.4641  0.3479
 4521TIP3   OH234977   2.611   3.220  16.680 -0.1591 -0.1559  0.1895
 4521TIP3    H134978   2.526   3.200  16.718  0.4082 -1.1862  0.9696
 4521TIP3    H234979   2.668   3.149  16.709  1.3386  1.2697  0.9409
 4522TIP3   OH234980   4.655   0.654   0.471 -0.1496  0.4516 -0.7698
 4522TIP3    H134981   4.669   0.641   0.565  1.8189 -0.1299 -1.1145
 4522TIP3    H234982   4.560   0.664   0.463 -0.4395 -0.2661  1.1817
 4523TIP3   OH234983   5.305   5.077   3.044 -0.2293 -0.0669 -0.0580
 4523TIP3    H134984   5.358   5.156   3.053  0.9232 -0.9553  1.4570
 4523TIP3    H234985   5.255   5.091   2.963  0.4105  1.9083 -0.1698
 4524TIP3   OH234986   1.613   3.205  17.132  0.5466 -0.3909  0.2054
 4524TIP3    H134987   1.688   3.153  17.161  0.9358 -0.6548 -1.1898
 4524TIP3    H234988   1.539   3.145  17.141  0.2197  0.2994  2.8792
 4525TIP3   OH234989   1.914   1.401   3.616 -0.1986  0.8552  0.3235
 4525TIP3    H134990   1.837   1.456   3.631  0.5126  1.5965  1.4181
 4525TIP3    H234991   1.882   1.330   3.560 -2.6825 -1.0704  3.7888
 4526TIP3   OH234992   0.322   0.254   1.964 -0.9260  0.5393  0.5106
 4526TIP3    H134993   0.249   0.259   2.026 -1.4059 -1.8212  0.2272
 4526TIP3    H234994   0.315   0.166   1.926 -0.1670  1.6069 -2.3061
 4527TIP3   OH234995   0.781   1.829   2.518  0.1258 -0.2027 -0.1334
 4527TIP3    H134996   0.695   1.791   2.498  0.9019 -1.1412 -1.9413
 4527TIP3    H234997   0.809   1.783   2.597  0.1623 -2.0473 -1.1444
 4528TIP3   OH234998   0.192   1.412   1.174 -0.5718  0.0150  0.6124
 4528TIP3    H134999   0.128   1.385   1.107 -0.4324  0.0929  0.4473
 4528TIP3    H235000   0.257   1.463   1.126 -1.5105  1.7760  1.1094
 4529TIP3   OH235001   4.974   4.935  15.227 -0.1906  0.3465 -0.1279
 4529TIP3    H135002   5.057   4.979  15.243 -0.3060  1.1052 -1.4691
 4529TIP3    H235003   4.908   5.004  15.230 -0.7222 -0.1646  0.3959
 4530TIP3   OH235004   4.668   5.303  16.787 -0.2342  0.4016 -0.0368
 4530TIP3    H135005   4.679   5.310  16.882 -0.9499 -1.5669  0.2488
 4530TIP3    H235006   4.619   5.381  16.763 -1.9186 -0.0678  1.5843
 4531TIP3   OH235007   0.010   2.194  13.906  0.1620 -0.0354  0.1158
 4531TIP3    H135008   0.048   2.125  13.852  0.3303  0.6390 -0.6561
 4531TIP3    H235009   0.033   2.275  13.861 -2.2193  0.4125 -0.4327
 4532TIP3   OH235010   4.721   0.720   1.197 -0.2433  0.2975 -0.4099
 4532TIP3    H135011   4.799   0.676   1.164  0.1294  0.3939  0.3074
 4532TIP3    H235012   4.708   0.682   1.284 -0.3958  1.0053 -0.1169
 4533TIP3   OH235013   4.376   1.482  12.871  0.3829 -0.4020  0.1426
 4533TIP3    H135014   4.414   1.570  12.880  1.0346 -0.7462  0.8244
 4533TIP3    H235015   4.421   1.446  12.794 -1.2850  0.5443 -1.3676
 4534TIP3   OH235016   3.803   2.899   5.828  0.4670 -0.2587 -0.0506
 4534TIP3    H135017   3.830   2.936   5.744  0.6170 -0.5703 -0.1442
 4534TIP3    H235018   3.793   2.805   5.810  1.1073 -0.4300  0.4250
 4535TIP3   OH235019   4.416   5.249  16.544  0.4016 -0.0956  0.4960
 4535TIP3    H135020   4.480   5.267  16.475 -0.3996  0.4732 -0.1228
 4535TIP3    H235021   4.454   5.288  16.623  1.9765 -1.9595  0.7214
 4536TIP3   OH235022   5.243   4.470   2.010  0.1369  0.4459  0.2872
 4536TIP3    H135023   5.221   4.432   2.095 -1.1248  2.8364  1.1447
 4536TIP3    H235024   5.182   4.429   1.949  1.5595 -1.8619  0.3200
 4537TIP3   OH235025   1.359   5.239   5.137 -0.4851  0.6644 -0.1372
 4537TIP3    H135026   1.283   5.202   5.182  0.6789  0.6085  1.8833
 4537TIP3    H235027   1.332   5.327   5.111 -1.2019  0.6812  0.6593
 4538TIP3   OH235028   4.537   2.361  14.045 -0.3865 -0.7767 -0.7877
 4538TIP3    H135029   4.456   2.334  14.087 -0.6259 -0.4336 -1.0192
 4538TIP3    H235030   4.545   2.303  13.969 -0.3902 -0.8395 -0.7409
 4539TIP3   OH235031   2.407   6.373  15.079 -0.4158 -0.1180  0.3302
 4539TIP3    H135032   2.376   6.443  15.137  3.0997  1.5262  0.4511
 4539TIP3    H235033   2.379   6.292  15.122 -0.7971  1.1116  2.5409
 4540TIP3   OH235034   5.456   3.209  11.849  0.4468  0.1496 -0.1587
 4540TIP3    H135035   5.408   3.292  11.852 -0.7822 -0.5366 -0.2478
 4540TIP3    H235036   5.455   3.184  11.756  0.4482 -0.1648 -0.0754
 4541TIP3   OH235037   4.609   5.944  11.617 -0.0980  0.5276 -0.2556
 4541TIP3    H135038   4.567   6.008  11.675  0.8164  1.9368 -1.0728
 4541TIP3    H235039   4.692   5.985  11.594  2.2197 -2.4922  1.9819
 4542TIP3   OH235040   3.061   3.327   1.371 -0.2285  0.2018  0.5455
 4542TIP3    H135041   2.968   3.321   1.349 -0.5093  1.1254  1.4112
 4542TIP3    H235042   3.097   3.390   1.309 -0.7480  1.8257  1.8475
 4543TIP3   OH235043   6.746   1.230   1.329  0.0564 -0.0617 -0.1835
 4543TIP3    H135044   6.665   1.218   1.281  2.1725 -1.7789 -3.7141
 4543TIP3    H235045   6.779   1.316   1.301 -0.4248  0.6154  1.2075
 4544TIP3   OH235046   3.973   1.932  10.648 -0.1067 -0.3157 -0.1207
 4544TIP3    H135047   3.972   1.893  10.561 -2.3071  2.3389 -1.4133
 4544TIP3    H235048   3.901   1.887  10.695  0.6017 -1.2217  0.1354
 4545TIP3   OH235049   0.077   5.180  16.665 -0.8141  0.4269  0.0193
 4545TIP3    H135050   0.047   5.152  16.579  0.6525 -0.5993 -0.1823
 4545TIP3    H235051   0.169   5.201  16.654 -0.6550  0.5112  1.2849
 4546TIP3   OH235052   5.618   3.690   1.996 -0.0991 -0.1787 -0.2801
 4546TIP3    H135053   5.677   3.763   1.974  1.3239 -1.1813  0.1215
 4546TIP3    H235054   5.658   3.614   1.953 -0.4247 -1.1049  1.0305
 4547TIP3   OH235055   1.103   1.196   4.147  0.2118 -0.2770 -0.3241
 4547TIP3    H135056   1.101   1.154   4.233 -1.0427 -1.1099 -0.7336
 4547TIP3    H235057   1.197   1.206   4.127  0.5195 -0.8468  0.7661
 4548TIP3   OH235058   2.980   2.523  14.202 -0.8761  0.0481  0.1836
 4548TIP3    H135059   2.899   2.523  14.252 -0.5342  1.5016  0.7947
 4548TIP3    H235060   3.044   2.564  14.260  0.7312 -2.4311  0.3299
 4549TIP3   OH235061   6.148   2.323   1.401  0.2928  0.1167 -0.0674
 4549TIP3    H135062   6.068   2.345   1.355  1.1981  0.0878 -1.7248
 4549TIP3    H235063   6.119   2.271   1.477 -1.2023 -0.3375 -0.9113
 4550TIP3   OH235064   3.701   2.506  15.336  0.0734  0.0854  0.1740
 4550TIP3    H135065   3.714   2.591  15.377 -0.3719  0.3491 -0.2227
 4550TIP3    H235066   3.674   2.449  15.407  1.8368 -0.1115  0.7332
 4551TIP3   OH235067   0.963   5.808   1.870  0.5824  0.1419 -0.3616
 4551TIP3    H135068   0.950   5.715   1.856 -0.2667  0.3535 -1.0761
 4551TIP3    H235069   1.044   5.814   1.920  1.1738 -0.9253 -1.1532
 4552TIP3   OH235070   4.265   6.628  11.951  0.0582 -0.3489 -0.6173
 4552TIP3    H135071   4.225   6.542  11.937 -0.5780 -0.3434  0.9041
 4552TIP3    H235072   4.192   6.690  11.944  0.2068 -0.1055 -0.0580
 4553TIP3   OH235073   3.235   1.937   3.672  0.2599 -0.2868 -0.6582
 4553TIP3    H135074   3.226   1.886   3.591  0.3151 -0.8554 -0.3160
 4553TIP3    H235075   3.166   1.903   3.729  0.8184 -0.5485 -0.1326
 4554TIP3   OH235076   4.548   4.242  14.684 -0.2346  0.2447  0.7360
 4554TIP3    H135077   4.640   4.267  14.673 -0.4739  1.0585  0.5536
 4554TIP3    H235078   4.499   4.323  14.668 -0.8932  0.2407  2.6048
 4555TIP3   OH235079   6.215   4.120  11.795  0.4065  0.1810 -0.2093
 4555TIP3    H135080   6.251   4.192  11.846  1.1472  0.4844 -1.1310
 4555TIP3    H235081   6.139   4.157  11.751 -0.3434 -0.1308  0.7926
 4556TIP3   OH235082   2.410   2.101   1.756  0.1503  0.2468  0.2701
 4556TIP3    H135083   2.427   2.068   1.844  0.9497 -0.7636 -0.2436
 4556TIP3    H235084   2.321   2.071   1.736  0.6422 -1.1422  0.0411
 4557TIP3   OH235085   0.412   6.468  13.510  0.0941  0.0048  0.0966
 4557TIP3    H135086   0.389   6.496  13.422 -1.1776  0.3441  0.5135
 4557TIP3    H235087   0.460   6.386  13.498  0.6753  0.4784 -0.9387
 4558TIP3   OH235088   3.350   4.170  13.900 -0.1513  0.5380  0.0477
 4558TIP3    H135089   3.324   4.205  13.985 -1.2842  0.9475 -0.4556
 4558TIP3    H235090   3.351   4.075  13.912 -1.4210  0.5338  0.2238
 4559TIP3   OH235091   1.074   1.057   4.414 -0.8211  0.4844 -0.2263
 4559TIP3    H135092   1.017   0.981   4.417  0.4888 -0.5108  0.9546
 4559TIP3    H235093   1.156   1.027   4.452 -0.3278  2.5518  0.4932
 4560TIP3   OH235094   4.447   6.572  12.493 -0.0604 -0.0026  0.0946
 4560TIP3    H135095   4.463   6.483  12.524  1.2731  0.2023  0.0805
 4560TIP3    H235096   4.529   6.597  12.449 -0.0854  1.5277  0.8342
 4561TIP3   OH235097   4.142   4.567  11.766 -0.1958 -0.6949  0.0486
 4561TIP3    H135098   4.061   4.574  11.817  0.5108 -0.0500  1.1103
 4561TIP3    H235099   4.134   4.484  11.719 -1.0550 -1.0844  0.8702
 4562TIP3   OH235100   3.772   1.522   3.466  0.2203 -0.3168  0.3252
 4562TIP3    H135101   3.756   1.524   3.372  1.9072 -1.1525 -0.0176
 4562TIP3    H235102   3.867   1.530   3.475  0.1474 -0.8433  1.9268
 4563TIP3   OH235103   3.107   3.874   5.342  0.1908  0.5277  0.0582
 4563TIP3    H135104   3.098   3.785   5.306  2.3662  0.5177 -0.5947
 4563TIP3    H235105   3.024   3.890   5.387 -0.7958 -1.2920 -0.9910
 4564TIP3   OH235106   1.758   6.697   3.375  0.1043 -0.0619  0.5170
 4564TIP3    H135107   1.769   6.630   3.308 -1.3741  1.5638 -1.4878
 4564TIP3    H235108   1.847   6.719   3.402  0.8519  0.2074 -1.9584
 4565TIP3   OH235109   0.156   5.333   3.343  0.4453 -0.2273  0.4934
 4565TIP3    H135110   0.130   5.318   3.251  0.9849 -2.9733  0.6885
 4565TIP3    H235111   0.073   5.337   3.390  0.1957 -0.3664  0.0763
 4566TIP3   OH235112   3.186   3.466  13.412 -0.2890  0.3541 -0.1151
 4566TIP3    H135113   3.192   3.440  13.320 -2.2944  0.4859 -0.3348
 4566TIP3    H235114   3.093   3.457  13.434 -0.2238  2.2850  1.2920
 4567TIP3   OH235115   6.051   3.438  16.333  0.2950  0.2159  0.0766
 4567TIP3    H135116   6.090   3.422  16.419 -0.0105  1.2410  0.4198
 4567TIP3    H235117   5.956   3.437  16.349  0.2482  1.0709 -0.1177
 4568TIP3   OH235118   1.849   0.356  11.547 -0.6788 -0.5172  0.6223
 4568TIP3    H135119   1.762   0.368  11.583 -0.3352  1.0256  0.9973
 4568TIP3    H235120   1.837   0.362  11.452 -1.2096 -2.0687  0.5643
 4569TIP3   OH235121   6.698   4.465   0.942  0.1604 -0.3790  0.1205
 4569TIP3    H135122   6.713   4.376   0.908 -0.0809 -0.7744  1.0212
 4569TIP3    H235123   6.605   4.467   0.963  0.1475  0.1280  0.0149
 4570TIP3   OH235124   4.296   2.578  15.677 -0.0118  0.8464  0.4687
 4570TIP3    H135125   4.306   2.668  15.646 -0.3233  0.3857 -1.0620
 4570TIP3    H235126   4.374   2.533  15.645 -0.1947  0.4046  0.6359
 4571TIP3   OH235127   4.282   0.857  15.538 -0.3811  1.0846 -0.6189
 4571TIP3    H135128   4.301   0.946  15.565 -0.2952  0.2221  2.4603
 4571TIP3    H235129   4.198   0.836  15.579  0.5831 -0.8841  0.5046
 4572TIP3   OH235130   0.678   5.450   2.032  0.1812 -0.3494  0.0779
 4572TIP3    H135131   0.666   5.357   2.050  0.1189 -0.7022 -1.6849
 4572TIP3    H235132   0.739   5.453   1.959  0.1011  1.0076  0.0384
 4573TIP3   OH235133   3.492   1.053   2.086 -0.4919  0.2780 -0.1522
 4573TIP3    H135134   3.517   1.125   2.144 -0.0239  0.1929 -0.2478
 4573TIP3    H235135   3.396   1.053   2.089 -0.5613 -1.6437  3.0709
 4574TIP3   OH235136   5.596   1.921   5.323  0.6817  0.1834 -0.2502
 4574TIP3    H135137   5.633   1.958   5.404 -0.8636  1.0530  0.0815
 4574TIP3    H235138   5.664   1.860   5.292  2.0461  1.1375  0.7476
 4575TIP3   OH235139   1.213   3.979   3.893 -0.9034 -0.4533  0.3599
 4575TIP3    H135140   1.230   3.892   3.856  0.4101 -1.0567  2.2364
 4575TIP3    H235141   1.158   3.962   3.970  0.9033  0.1258  1.8431
 4576TIP3   OH235142   0.083   3.521  14.576 -0.3827  0.0484  0.1049
 4576TIP3    H135143   0.128   3.603  14.597  0.4926 -0.5176  0.4895
 4576TIP3    H235144   0.150   3.453  14.586 -1.2155 -0.7739  0.2744
 4577TIP3   OH235145   1.148   3.585  17.037 -0.0054  0.0317  0.5906
 4577TIP3    H135146   1.162   3.649  16.968 -2.7494  0.6092  0.4604
 4577TIP3    H235147   1.185   3.626  17.115 -0.3455  1.1352  0.1944
 4578TIP3   OH235148   5.028   2.438  11.076 -0.1884 -0.3534 -0.1170
 4578TIP3    H135149   5.085   2.460  11.003 -0.6064  0.7098 -0.1366
 4578TIP3    H235150   4.942   2.424  11.037 -0.9651  2.4426  0.3279
 4579TIP3   OH235151   1.536   6.450   2.897 -0.2494 -0.0763 -0.3294
 4579TIP3    H135152   1.610   6.473   2.840  1.4037  0.4114  1.8790
 4579TIP3    H235153   1.482   6.529   2.901  0.6768  0.5404  0.2893
 4580TIP3   OH235154   5.795   1.758  15.800 -0.2906 -0.0507  0.0912
 4580TIP3    H135155   5.719   1.798  15.841  0.0886 -0.0239  0.7836
 4580TIP3    H235156   5.841   1.714  15.871  0.1416 -0.3898 -0.3835
 4581TIP3   OH235157   3.409   6.323  17.151 -0.3927 -0.5045 -0.2209
 4581TIP3    H135158   3.476   6.371  17.104 -0.3386 -2.1233 -1.8898
 4581TIP3    H235159   3.380   6.383  17.220  0.5144  1.4132 -1.4404
 4582TIP3   OH235160   1.878   5.767   3.740  0.0992 -0.1359 -0.3045
 4582TIP3    H135161   1.808   5.708   3.711 -0.3458  0.4484 -0.4366
 4582TIP3    H235162   1.937   5.773   3.665 -0.0236 -0.1684 -0.4034
 4583TIP3   OH235163   1.920   4.872   4.271 -0.1113  0.1583  0.0164
 4583TIP3    H135164   1.926   4.949   4.328 -1.8919 -0.0593  0.5605
 4583TIP3    H235165   2.010   4.854   4.246  0.8984 -0.1327  3.3026
 4584TIP3   OH235166   3.829   5.669   0.837 -0.3921 -0.1146  0.0518
 4584TIP3    H135167   3.902   5.628   0.883 -0.0777  1.8214  1.3688
 4584TIP3    H235168   3.751   5.627   0.873 -0.0309 -1.8053 -0.9770
 4585TIP3   OH235169   3.346   3.024  12.855 -0.3609 -0.4827  0.2405
 4585TIP3    H135170   3.287   2.950  12.837 -1.0588  0.1455 -0.0816
 4585TIP3    H235171   3.358   3.066  12.770 -0.4293  0.1215  0.5289
 4586TIP3   OH235172   0.964   0.931  15.719  0.0404  0.6852  0.4081
 4586TIP3    H135173   1.008   1.010  15.750  0.2821  0.4445  0.6715
 4586TIP3    H235174   1.033   0.878  15.678  0.0301  0.2371  0.9637
 4587TIP3   OH235175   4.661   6.750   2.303 -0.1530  0.4828  0.4068
 4587TIP3    H135176   4.587   6.717   2.355 -0.7500  2.3525  0.8341
 4587TIP3    H235177   4.649   6.712   2.216 -0.6006 -0.6321  0.9342
 4588TIP3   OH235178   3.852   5.712  13.391  0.5888 -0.4150 -0.4350
 4588TIP3    H135179   3.779   5.714  13.329  0.4742  1.1168 -0.2980
 4588TIP3    H235180   3.927   5.686  13.338  0.5264  1.0277 -1.3033
 4589TIP3   OH235181   0.842   0.927  13.395  0.0218  0.2047 -0.0251
 4589TIP3    H135182   0.811   0.945  13.483 -0.0052  2.4033 -0.4428
 4589TIP3    H235183   0.781   0.861  13.361 -0.8531  0.4289  1.0675
 4590TIP3   OH235184   5.164   0.613   4.155  1.1956 -0.1159  0.2688
 4590TIP3    H135185   5.119   0.595   4.072  1.2181  0.3849  0.1401
 4590TIP3    H235186   5.251   0.577   4.144  0.8550 -1.0224  0.4862
 4591TIP3   OH235187   4.357   0.415   5.907 -0.8412  0.1966  0.1805
 4591TIP3    H135188   4.444   0.441   5.875 -0.9995 -0.1600 -0.5636
 4591TIP3    H235189   4.370   0.328   5.944 -1.0243 -0.1929 -0.6440
 4592TIP3   OH235190   5.028   6.065  16.829 -0.8688  0.1750  0.0243
 4592TIP3    H135191   5.102   6.067  16.889 -0.5506  3.3441 -0.3264
 4592TIP3    H235192   5.062   6.018  16.752  0.8905  1.6044 -0.1572
 4593TIP3   OH235193   4.779   0.342   0.641  0.1930  0.0781  0.0737
 4593TIP3    H135194   4.765   0.378   0.729  1.0173 -0.1703  0.3166
 4593TIP3    H235195   4.824   0.259   0.656  1.5938  0.6647 -0.6114
 4594TIP3   OH235196   4.416   4.696   3.897  0.2692 -0.0920 -0.1523
 4594TIP3    H135197   4.383   4.612   3.866 -4.1253  0.9441  1.0528
 4594TIP3    H235198   4.448   4.678   3.986 -0.6495 -0.5502  0.1006
 4595TIP3   OH235199   1.204   4.865   4.494  0.4275  0.1344 -0.1567
 4595TIP3    H135200   1.150   4.793   4.525 -0.0664  0.4039 -0.3862
 4595TIP3    H235201   1.281   4.822   4.455  1.0253 -0.2126  1.3220
 4596TIP3   OH235202   0.519   0.623   3.883  0.1892 -0.1819  0.4199
 4596TIP3    H135203   0.570   0.542   3.889 -0.2301 -0.5278 -0.5142
 4596TIP3    H235204   0.497   0.631   3.790 -1.3043  0.0537  0.7729
 4597TIP3   OH235205   3.103   3.601   3.948 -0.1009 -0.1491  0.2922
 4597TIP3    H135206   3.064   3.659   3.882  1.3110 -0.4106 -0.8220
 4597TIP3    H235207   3.159   3.659   4.000 -1.4015  0.1010  1.4432
 4598TIP3   OH235208   2.572   4.714   0.748  0.5829  0.1716 -0.3685
 4598TIP3    H135209   2.664   4.723   0.771  1.7826 -0.4979 -4.1668
 4598TIP3    H235210   2.555   4.786   0.686 -0.5694 -1.2595 -1.8184
 4599TIP3   OH235211   1.823   6.344   6.539  0.3938 -0.0757  0.3234
 4599TIP3    H135212   1.794   6.410   6.476  0.2106  0.1491  0.6392
 4599TIP3    H235213   1.841   6.266   6.487  1.4902  0.4931 -0.1766
 4600TIP3   OH235214   1.190   6.647  12.377 -0.1581 -0.4257  0.3431
 4600TIP3    H135215   1.175   6.704  12.453  1.5861 -0.5192  0.8094
 4600TIP3    H235216   1.142   6.689  12.305  0.4765  1.2368  0.8465
 4601TIP3   OH235217   6.278   6.357  11.830 -0.0410  0.0345  0.5042
 4601TIP3    H135218   6.334   6.354  11.752 -0.6685  1.1461 -0.0130
 4601TIP3    H235219   6.337   6.379  11.901  0.5710 -1.1540  0.3875
 4602TIP3   OH235220   5.601   4.519   0.543 -0.2993  0.1931 -0.2114
 4602TIP3    H135221   5.577   4.576   0.616  1.6818  0.0446  0.6180
 4602TIP3    H235222   5.539   4.446   0.548 -0.6893  0.5720  0.8451
 4603TIP3   OH235223   2.503   1.187  15.398 -0.8276 -0.4034 -0.3731
 4603TIP3    H135224   2.526   1.115  15.340 -1.2567 -1.0415  0.2373
 4603TIP3    H235225   2.461   1.145  15.474 -0.9130  0.4658  0.0757
 4604TIP3   OH235226   3.582   5.151   5.936 -0.3322 -0.1816  0.5677
 4604TIP3    H135227   3.653   5.204   5.971 -0.2846 -0.7165  1.3119
 4604TIP3    H235228   3.506   5.209   5.936  0.1698  0.5058 -0.5673
 4605TIP3   OH235229   4.425   0.305  12.136  0.2002 -0.2549 -0.3354
 4605TIP3    H135230   4.360   0.266  12.194  0.0101 -0.4304 -0.6689
 4605TIP3    H235231   4.501   0.318  12.193 -0.5326  1.1207  0.3763
 4606TIP3   OH235232   3.574   6.043   2.313 -0.2688 -0.3610 -0.0789
 4606TIP3    H135233   3.489   6.066   2.275 -0.2862 -1.5964 -0.8319
 4606TIP3    H235234   3.554   6.027   2.406 -0.2671  2.4073  0.5026
 4607TIP3   OH235235   4.075   4.135   0.182 -0.0524  0.3476 -0.1311
 4607TIP3    H135236   4.004   4.112   0.122  1.5015  0.0562 -1.9431
 4607TIP3    H235237   4.057   4.083   0.261 -1.7210  0.1333 -0.6208
 4608TIP3   OH235238   1.555   6.435   0.380 -0.2382 -0.2147  0.1340
 4608TIP3    H135239   1.480   6.491   0.359  0.0891  0.2317  0.1357
 4608TIP3    H235240   1.533   6.350   0.342 -1.0140 -0.2594  0.6681
 4609TIP3   OH235241   4.938   3.476  10.338  0.1798  0.3117 -0.3764
 4609TIP3    H135242   4.998   3.403  10.320  1.1400  1.1953 -0.8578
 4609TIP3    H235243   4.889   3.447  10.415  1.0851 -0.5282 -0.0811
 4610TIP3   OH235244   6.256   1.960   3.102 -0.6253  0.0574  0.1384
 4610TIP3    H135245   6.268   2.051   3.131 -0.6043 -0.0444  0.4561
 4610TIP3    H235246   6.186   1.965   3.037 -0.3790  0.3504 -0.1052
 4611TIP3   OH235247   5.354   3.379   2.104  0.3149 -0.0810 -0.3580
 4611TIP3    H135248   5.323   3.461   2.067  1.5004 -0.5208 -2.4811
 4611TIP3    H235249   5.281   3.349   2.159  0.3643  2.9613  1.5535
 4612TIP3   OH235250   2.298   0.908  15.438 -0.0728 -0.3397  0.1542
 4612TIP3    H135251   2.285   0.953  15.522 -1.4846 -1.7272  0.7286
 4612TIP3    H235252   2.232   0.947  15.380  1.6107  1.4004 -0.7158
 4613TIP3   OH235253   1.774   6.326   3.130 -0.1054  0.1238  0.1697
 4613TIP3    H135254   1.683   6.298   3.133 -1.1437  3.1299  0.4806
 4613TIP3    H235255   1.803   6.306   3.041 -0.8926 -1.2587  0.1995
 4614TIP3   OH235256   1.273   0.286  13.817 -0.0157  0.5056  0.0734
 4614TIP3    H135257   1.179   0.303  13.821 -0.3823 -1.1067 -0.7620
 4614TIP3    H235258   1.289   0.260  13.726  0.8809 -1.0239  0.6252
 4615TIP3   OH235259   5.578   1.962  16.679 -0.7921  0.0961  0.0943
 4615TIP3    H135260   5.531   1.897  16.732  1.0409 -1.1446  0.2981
 4615TIP3    H235261   5.668   1.959  16.713 -0.0249  0.7243 -1.7592
 4616TIP3   OH235262   1.721   1.184  16.708  0.0770  0.4390 -0.7640
 4616TIP3    H135263   1.634   1.145  16.702 -0.2763  0.8772  0.9166
 4616TIP3    H235264   1.779   1.110  16.728 -0.0368  0.2843 -0.9995
 4617TIP3   OH235265   6.468   0.825  16.737 -0.1363 -0.2006 -0.0772
 4617TIP3    H135266   6.561   0.805  16.738 -0.2899 -0.9691  1.0915
 4617TIP3    H235267   6.425   0.739  16.739 -0.8452  0.1538  0.9778
 4618TIP3   OH235268   0.827   1.723   3.154 -0.5485  0.4561 -0.3134
 4618TIP3    H135269   0.810   1.743   3.246  0.7888  0.6153 -0.0734
 4618TIP3    H235270   0.847   1.808   3.114  1.3483  0.1341 -0.1569
 4619TIP3   OH235271   2.920   4.592   5.008 -0.7064 -0.2893 -0.1634
 4619TIP3    H135272   2.988   4.638   5.057 -2.0249  2.1206 -0.4842
 4619TIP3    H235273   2.964   4.564   4.927  0.3391 -0.3319  0.4024
 4620TIP3   OH235274   2.824   3.070  16.826 -0.1324 -0.8449  0.1356
 4620TIP3    H135275   2.747   3.090  16.878 -0.6311 -2.0585 -0.1113
 4620TIP3    H235276   2.889   3.040  16.889 -1.3324 -4.1378  0.0015
 4621TIP3   OH235277   3.194   2.335  13.475  0.5657  0.5862  0.1157
 4621TIP3    H135278   3.169   2.371  13.390  1.8172 -0.3408 -0.6901
 4621TIP3    H235279   3.266   2.391  13.505  1.3992 -0.2012 -0.3568
 4622TIP3   OH235280   6.310   3.384   4.320 -0.1079  0.3624  0.2009
 4622TIP3    H135281   6.292   3.477   4.309 -0.8817  0.4178  1.6356
 4622TIP3    H235282   6.242   3.340   4.269  0.3472  0.5729 -0.5985
 4623TIP3   OH235283   2.265   2.378  13.608 -0.0430 -0.0949 -0.5094
 4623TIP3    H135284   2.261   2.312  13.539 -0.0357  0.6401 -1.2278
 4623TIP3    H235285   2.174   2.402  13.624 -0.0719 -0.5424  0.0174
 4624TIP3   OH235286   3.237   3.560  14.106  0.0127  0.3005  0.4426
 4624TIP3    H135287   3.164   3.622  14.103 -0.5314 -0.3306  0.2724
 4624TIP3    H235288   3.242   3.526  14.017  0.0514 -0.1878  0.6301
 4625TIP3   OH235289   2.422   6.433   2.244  0.1231 -0.2163 -0.7704
 4625TIP3    H135290   2.365   6.361   2.217 -0.9349  0.7134 -1.1337
 4625TIP3    H235291   2.506   6.415   2.203 -0.8192  0.0092 -2.9255
 4626TIP3   OH235292   0.257   4.674  11.949  0.1423  0.4141 -0.3586
 4626TIP3    H135293   0.225   4.749  12.000  0.0331 -0.1189  0.3668
 4626TIP3    H235294   0.308   4.623  12.011  0.0172 -0.2418 -0.7844
 4627TIP3   OH235295   6.409   2.337  12.888  0.1416 -0.1129 -0.5876
 4627TIP3    H135296   6.317   2.317  12.870 -0.5589  1.3410  1.0985
 4627TIP3    H235297   6.423   2.312  12.979  1.7316 -1.2430 -1.0988
 4628TIP3   OH235298   5.166   4.638   3.204  0.4000 -0.2588 -0.5523
 4628TIP3    H135299   5.255   4.608   3.183  0.2766  0.0106 -1.5075
 4628TIP3    H235300   5.132   4.671   3.121 -0.9700 -1.2791 -0.4200
 4629TIP3   OH235301   4.876   5.760   6.414 -0.1754  0.5503 -0.2175
 4629TIP3    H135302   4.900   5.667   6.411  1.3191  0.9206 -2.0314
 4629TIP3    H235303   4.817   5.767   6.488 -0.4906 -1.8857 -0.1384
 4630TIP3   OH235304   3.193   6.409   1.781 -0.0156 -0.2637  0.4084
 4630TIP3    H135305   3.223   6.405   1.872 -0.4880 -1.0031  0.5417
 4630TIP3    H235306   3.245   6.479   1.741  0.6548 -0.3697  1.0766
 4631TIP3   OH235307   3.439   0.591   5.903  0.0526 -0.1031  0.3334
 4631TIP3    H135308   3.423   0.559   5.992 -1.6496 -0.2855 -0.0131
 4631TIP3    H235309   3.409   0.681   5.903 -2.3559 -0.8339 -0.6709
 4632TIP3   OH235310   4.084   3.782   4.373 -0.3701  0.0529  0.2344
 4632TIP3    H135311   4.007   3.839   4.384  0.1792  1.1644 -1.3956
 4632TIP3    H235312   4.048   3.693   4.369 -1.6689  0.5985 -1.1077
 4633TIP3   OH235313   3.082   5.995  11.365 -0.0298 -0.3189  0.4274
 4633TIP3    H135314   3.033   6.074  11.343 -1.3704 -0.8867  1.2036
 4633TIP3    H235315   3.082   5.944  11.284  0.5896  0.3339  0.0061
 4634TIP3   OH235316   2.828   6.541  17.140  0.4350  0.4196  0.0346
 4634TIP3    H135317   2.799   6.490  17.065  1.9768  0.5146 -0.6661
 4634TIP3    H235318   2.924   6.535  17.138  0.5789  1.7497  1.0508
 4635TIP3   OH235319   4.010   1.766  14.683  0.3746  0.1207  0.6520
 4635TIP3    H135320   4.080   1.806  14.632 -1.5324  1.1811 -1.2893
 4635TIP3    H235321   4.036   1.674  14.692  3.5670  1.0736  2.9563
 4636TIP3   OH235322   0.293   2.495  12.413 -0.0584  0.5628  0.1249
 4636TIP3    H135323   0.235   2.435  12.366 -0.0668 -0.2822  1.1657
 4636TIP3    H235324   0.233   2.550  12.464 -0.0374  1.3014 -0.6266
 4637TIP3   OH235325   1.387   0.108   5.903  0.0876  0.3360 -0.3571
 4637TIP3    H135326   1.472   0.112   5.947 -0.2841 -2.8518  0.9079
 4637TIP3    H235327   1.405   0.063   5.820 -0.1613  0.9280 -0.7366
 4638TIP3   OH235328   6.198   1.631  14.982 -0.6842 -0.0782  0.0156
 4638TIP3    H135329   6.254   1.555  14.974 -0.0249  0.4893 -0.9764
 4638TIP3    H235330   6.258   1.706  14.977 -0.8689  0.5866  4.0804
 4639TIP3   OH235331   2.614   3.914  11.971 -0.1332 -0.0409  0.2370
 4639TIP3    H135332   2.621   3.969  12.049  1.0629 -1.3797  1.1371
 4639TIP3    H235333   2.522   3.888  11.968 -0.3654  0.6900  0.7200
 4640TIP3   OH235334   4.201   2.789   1.873 -0.3447 -0.1016 -0.3938
 4640TIP3    H135335   4.111   2.809   1.850 -0.6316 -1.5510 -0.6222
 4640TIP3    H235336   4.250   2.802   1.791 -0.4468  0.1000 -0.4221
 4641TIP3   OH235337   4.481   2.698  14.967  0.3730 -0.2682  0.3216
 4641TIP3    H135338   4.473   2.670  14.876 -0.4045 -0.5663  0.4675
 4641TIP3    H235339   4.568   2.737  14.973  1.1032 -1.7582 -0.1396
 4642TIP3   OH235340   3.874   3.505  15.472  0.3066  0.5595  0.1508
 4642TIP3    H135341   3.843   3.460  15.393  0.8866  1.3605 -0.5465
 4642TIP3    H235342   3.795   3.543  15.510  0.0502  0.3430 -0.1566
 4643TIP3   OH235343   2.343   6.534  16.101  0.2581  0.2294  0.4288
 4643TIP3    H135344   2.334   6.628  16.112 -0.9607  0.2865 -0.8194
 4643TIP3    H235345   2.269   6.496  16.150 -0.3019  0.0399 -0.5426
 4644TIP3   OH235346   0.946   2.552  12.396 -0.4825  0.2515  0.5576
 4644TIP3    H135347   0.879   2.583  12.335  0.1808 -0.2201 -0.4244
 4644TIP3    H235348   0.926   2.459  12.408 -0.3465  0.2440  0.7233
 4645TIP3   OH235349   1.863   1.609   2.584  0.3044  0.4519 -0.8423
 4645TIP3    H135350   1.805   1.534   2.589  1.1833 -0.1569  0.7968
 4645TIP3    H235351   1.816   1.679   2.630  0.7502  0.0180  0.3047
 4646TIP3   OH235352   6.424   2.000   0.385  0.6798 -0.4503  0.2431
 4646TIP3    H135353   6.431   1.920   0.437 -1.1123  0.1138  1.4676
 4646TIP3    H235354   6.490   1.991   0.316  0.2305 -3.1542  0.0890
 4647TIP3   OH235355   5.207   1.435  13.608 -0.0295  0.1963 -0.7834
 4647TIP3    H135356   5.128   1.430  13.553  0.2251  1.3850 -1.3062
 4647TIP3    H235357   5.278   1.450  13.545  0.3953  0.6595 -0.1997
 4648TIP3   OH235358   3.491   1.483   5.040 -0.5496 -0.0957  0.6600
 4648TIP3    H135359   3.442   1.402   5.052  0.3828 -0.7444  0.1665
 4648TIP3    H235360   3.492   1.498   4.945 -1.5360  1.0233  0.7979
 4649TIP3   OH235361   5.884   0.912   6.075  0.5079 -0.1677 -0.3420
 4649TIP3    H135362   5.920   0.847   6.015  0.4263 -0.1885 -0.3689
 4649TIP3    H235363   5.790   0.916   6.053  0.9459  2.0106 -2.3182
 4650TIP3   OH235364   0.382   0.275   2.405  0.8430 -0.2843  0.2054
 4650TIP3    H135365   0.446   0.220   2.449  1.3727  0.0068 -0.1898
 4650TIP3    H235366   0.428   0.310   2.329 -0.2911 -1.3950 -1.0427
 4651TIP3   OH235367   1.809   2.608   5.201  0.1509 -0.0282 -0.7995
 4651TIP3    H135368   1.823   2.641   5.112 -1.2502 -1.1051 -1.4574
 4651TIP3    H235369   1.796   2.514   5.189  0.6229 -0.2940  0.6393
 4652TIP3   OH235370   1.459   4.255   3.051 -0.3470 -0.1370 -0.1342
 4652TIP3    H135371   1.449   4.347   3.027 -0.0426  0.2019  0.9869
 4652TIP3    H235372   1.549   4.234   3.026 -0.5224 -0.2365 -0.7010
 4653TIP3   OH235373   3.310   4.344   2.672 -0.3606 -0.1592 -0.5255
 4653TIP3    H135374   3.241   4.311   2.614 -1.0175  2.2260 -1.2162
 4653TIP3    H235375   3.388   4.295   2.647 -1.1560 -0.8260 -1.7969
 4654TIP3   OH235376   6.751   6.422  12.236 -0.0367  0.5964 -0.2317
 4654TIP3    H135377   6.698   6.447  12.311  1.3976 -0.3566  1.1831
 4654TIP3    H235378   6.827   6.479  12.240  0.2545  0.2505 -0.7115
 4655TIP3   OH235379   6.526   1.504   2.939  0.0862 -0.7988 -0.0254
 4655TIP3    H135380   6.490   1.593   2.934 -1.0432 -1.1876  0.9010
 4655TIP3    H235381   6.474   1.454   2.876  2.1067 -0.4039 -2.1397
 4656TIP3   OH235382   3.008   0.829   6.519 -0.3225  0.2260  0.2774
 4656TIP3    H135383   2.984   0.913   6.559  0.5516  0.8066 -0.3812
 4656TIP3    H235384   2.924   0.789   6.497 -0.7550  1.5002 -0.5433
 4657TIP3   OH235385   2.922   0.251  12.421  0.4388 -0.0167  0.7496
 4657TIP3    H135386   2.873   0.275  12.500  0.2830  1.5558  0.2136
 4657TIP3    H235387   2.984   0.184  12.450 -0.5117 -0.4218  1.9124
 4658TIP3   OH235388   6.621   2.926  11.756  0.0385  0.7198 -0.2437
 4658TIP3    H135389   6.658   2.943  11.842 -0.0677  0.8048 -0.2155
 4658TIP3    H235390   6.636   3.007  11.707  0.5830  0.4809 -0.4743
 4659TIP3   OH235391   0.747   6.403  15.131  0.0987 -0.7683 -0.2204
 4659TIP3    H135392   0.756   6.421  15.225 -3.7436 -1.6341  0.5251
 4659TIP3    H235393   0.710   6.483  15.094 -0.5041 -1.1542 -0.4828
 4660TIP3   OH235394   3.688   0.092  17.330  0.5293 -0.6399 -0.5501
 4660TIP3    H135395   3.753   0.131  17.389  0.0040  1.0320 -1.0262
 4660TIP3    H235396   3.716   0.001  17.320  1.5538 -0.5301  0.9699
 4661TIP3   OH235397   5.221   0.420   0.239  0.2454  0.0791  0.1908
 4661TIP3    H135398   5.127   0.420   0.226  0.3572 -1.1707 -0.8683
 4661TIP3    H235399   5.235   0.470   0.320 -1.0329  3.1128 -1.3105
 4662TIP3   OH235400   0.311   1.380  14.823  0.6245  0.1216 -0.5189
 4662TIP3    H135401   0.358   1.343  14.898 -0.9154  0.5890  0.7441
 4662TIP3    H235402   0.291   1.305  14.767 -1.9674 -1.0088  1.7161
 4663TIP3   OH235403   1.110   2.619  12.861 -0.6277 -0.4526  0.2413
 4663TIP3    H135404   1.141   2.634  12.950  0.4371  0.5591 -0.2810
 4663TIP3    H235405   1.181   2.571  12.819 -0.5869  0.1689 -0.4115
 4664TIP3   OH235406   4.593   4.644  13.951  0.3891 -0.5287 -0.8842
 4664TIP3    H135407   4.545   4.724  13.971 -0.0851 -0.6922 -1.3429
 4664TIP3    H235408   4.595   4.640  13.856  0.7291 -0.8714 -0.8654
 4665TIP3   OH235409   3.585   1.810  13.392  0.2293 -0.0167 -0.2146
 4665TIP3    H135410   3.575   1.744  13.323 -2.5152 -0.2027  0.2457
 4665TIP3    H235411   3.589   1.759  13.473 -1.7491  0.3147  0.1330
 4666TIP3   OH235412   6.248   1.707  15.265  0.0418  0.5091  0.0298
 4666TIP3    H135413   6.256   1.644  15.337  1.5904  2.0570  1.2961
 4666TIP3    H235414   6.223   1.654  15.189  1.1991 -1.6070  1.0534
 4667TIP3   OH235415   6.434   6.149  10.875 -0.0807  0.4813  0.1169
 4667TIP3    H135416   6.475   6.231  10.902  2.1753 -0.7544  0.6676
 4667TIP3    H235417   6.459   6.140  10.783  2.0757 -0.8782  0.7751
 4668TIP3   OH235418   2.804   4.687  14.362  0.4858 -0.1302  0.5949
 4668TIP3    H135419   2.896   4.676  14.337 -0.3777 -2.4250 -2.1040
 4668TIP3    H235420   2.764   4.733  14.287 -0.3127  2.5986  2.5299
 4669TIP3   OH235421   0.281   1.941   4.111  0.1645  0.2697  0.0152
 4669TIP3    H135422   0.186   1.955   4.107  0.1403 -0.0075 -0.5509
 4669TIP3    H235423   0.292   1.848   4.094  0.4519 -0.0288  1.6498
 4670TIP3   OH235424   1.643   5.355  12.481 -0.2551  0.0897  0.1691
 4670TIP3    H135425   1.620   5.306  12.560  1.0292  2.3440  2.0846
 4670TIP3    H235426   1.732   5.327  12.461 -0.1645  0.3465  0.2115
 4671TIP3   OH235427   4.391   1.268  15.227  0.0521 -0.2001 -0.4268
 4671TIP3    H135428   4.351   1.324  15.161 -1.7847 -2.1308 -1.0409
 4671TIP3    H235429   4.331   1.271  15.302 -0.8156 -2.2983 -0.9627
 4672TIP3   OH235430   5.803   4.269   1.888 -0.2633  0.1828 -0.6277
 4672TIP3    H135431   5.762   4.300   1.807 -2.1050 -1.3701 -0.3571
 4672TIP3    H235432   5.847   4.188   1.863 -1.8286 -0.9404  0.0891
 4673TIP3   OH235433   4.951   6.570   4.068  0.0704  0.1660 -0.0154
 4673TIP3    H135434   4.877   6.587   4.010  0.7336 -0.1695 -0.9919
 4673TIP3    H235435   5.014   6.639   4.046  0.7476 -0.5707 -0.4467
 4674TIP3   OH235436   1.059   6.619  14.123  0.0351  0.1451  0.1762
 4674TIP3    H135437   1.124   6.677  14.083  1.4583 -1.6885 -0.3355
 4674TIP3    H235438   0.992   6.607  14.056  0.0387  0.7338  0.0687
 4675TIP3   OH235439   3.328   4.899  11.427 -0.0758  0.4642  0.7570
 4675TIP3    H135440   3.260   4.843  11.466 -0.8407  0.3423 -0.6745
 4675TIP3    H235441   3.292   4.924  11.342  2.2264 -0.6550 -0.6298
 4676TIP3   OH235442   3.833   5.887  17.005 -0.5699 -0.4161 -0.6716
 4676TIP3    H135443   3.794   5.897  16.918  1.2581  2.2871 -1.2964
 4676TIP3    H235444   3.927   5.885  16.988 -0.1164  1.3155  1.2943
 4677TIP3   OH235445   5.362   5.870   3.547  0.8764  0.7623  0.3977
 4677TIP3    H135446   5.283   5.831   3.510  1.1021  2.7220 -2.4510
 4677TIP3    H235447   5.433   5.815   3.514  0.9591  1.6198 -0.9522
 4678TIP3   OH235448   6.087   5.712   0.134 -0.0364  0.2180 -0.4225
 4678TIP3    H135449   6.155   5.646   0.124 -1.5722 -1.5734  0.4631
 4678TIP3    H235450   6.129   5.782   0.185  1.2781 -0.5674 -0.3828
 4679TIP3   OH235451   2.641   3.984  11.383  0.9346  0.1363  0.3338
 4679TIP3    H135452   2.702   3.998  11.310  0.3569  0.8987 -0.0156
 4679TIP3    H235453   2.641   4.067  11.430 -0.7648  0.5767 -0.3924
 4680TIP3   OH235454   4.016   2.694  10.625  0.0885  0.0751  0.3709
 4680TIP3    H135455   3.962   2.682  10.547  0.1163  1.0592  0.1778
 4680TIP3    H235456   3.982   2.775  10.664  0.5502 -0.0217  0.9745
 4681TIP3   OH235457   4.404   3.732  13.290  0.6525  0.0154  0.0002
 4681TIP3    H135458   4.385   3.768  13.376  0.9011 -0.2451  0.1624
 4681TIP3    H235459   4.325   3.751  13.239  0.1391 -0.6329  0.5397
 4682TIP3   OH235460   2.618   5.509   0.013 -0.1582  0.2605  0.4226
 4682TIP3    H135461   2.676   5.568  -0.034  0.7848 -1.1287 -0.2246
 4682TIP3    H235462   2.537   5.508  -0.038 -0.1116  0.8503  0.3383
 4683TIP3   OH235463   0.998   5.954  15.319 -0.1399  0.0561 -0.0850
 4683TIP3    H135464   0.945   5.875  15.309 -0.4577  0.2053  0.3571
 4683TIP3    H235465   0.950   6.022  15.272 -0.6205  0.3069  0.7321
 4684TIP3   OH235466   5.465   1.062   5.069 -0.1874  0.3544 -0.3112
 4684TIP3    H135467   5.437   1.019   5.150  1.0255  0.4613  0.1882
 4684TIP3    H235468   5.538   1.009   5.038  0.9812  1.7276  0.0172
 4685TIP3   OH235469   3.158   5.451   1.096  0.0360  0.0953 -0.4002
 4685TIP3    H135470   3.144   5.486   1.184 -1.3417  0.3465 -0.6886
 4685TIP3    H235471   3.162   5.356   1.108 -0.3416  0.1173 -0.0850
 4686TIP3   OH235472   1.726   4.249  17.219 -0.0128 -0.2122  0.0040
 4686TIP3    H135473   1.797   4.235  17.156 -0.4973  0.8138 -0.8007
 4686TIP3    H235474   1.759   4.316  17.279 -0.5652  0.8672 -0.8559
 4687TIP3   OH235475   0.012   2.821  14.587  0.5161 -0.3289 -0.2761
 4687TIP3    H135476  -0.068   2.854  14.628  1.0576  1.1575 -0.3472
 4687TIP3    H235477   0.048   2.759  14.650  0.4214  0.6152  0.7356
 4688TIP3   OH235478   5.856   6.149   3.082  0.0500 -0.3383 -0.1250
 4688TIP3    H135479   5.780   6.165   3.027  0.9206  0.2274 -1.2267
 4688TIP3    H235480   5.892   6.236   3.100  1.6820 -0.6486 -1.5286
 4689TIP3   OH235481   0.292   6.318   1.414 -0.0559 -0.1696  0.0854
 4689TIP3    H135482   0.258   6.231   1.436 -2.3581  0.3879 -0.9305
 4689TIP3    H235483   0.369   6.329   1.469 -0.7766 -2.1086  1.5930
 4690TIP3   OH235484   5.430   4.117  15.870  1.0144  0.2418  0.0715
 4690TIP3    H135485   5.438   4.089  15.779 -2.7437  1.1248 -0.6948
 4690TIP3    H235486   5.463   4.207  15.871  2.5152 -0.2722  0.0198
 4691TIP3   OH235487   3.935   6.265  12.456 -0.9498  0.5462 -0.1700
 4691TIP3    H135488   3.876   6.202  12.416 -2.0001  2.0487 -1.1123
 4691TIP3    H235489   3.948   6.332  12.389 -2.0186  2.6871  1.6007
 4692TIP3   OH235490   4.815   6.110  17.012  0.3629  0.2119 -0.2086
 4692TIP3    H135491   4.885   6.087  16.952 -0.2033 -2.3602  0.0334
 4692TIP3    H235492   4.856   6.111  17.099  0.0132 -2.1055  0.0352
 4693TIP3   OH235493   0.292   1.871   2.011  0.3317 -0.4030 -0.3588
 4693TIP3    H135494   0.240   1.951   2.014  0.7512 -0.1547  0.6763
 4693TIP3    H235495   0.366   1.888   2.069  1.9723 -0.4991 -2.3133
 4694TIP3   OH235496   0.099   3.997   6.160  0.0219 -0.5507  0.5195
 4694TIP3    H135497   0.039   3.938   6.204 -0.5166 -0.9131 -0.6686
 4694TIP3    H235498   0.177   3.997   6.216 -0.0945 -2.0923  0.7342
 4695TIP3   OH235499   5.265   1.240   2.217 -0.3993  0.1641  0.3480
 4695TIP3    H135500   5.273   1.332   2.190  0.0254  0.0622  0.1187
 4695TIP3    H235501   5.264   1.243   2.313 -0.3741  0.4047  0.3418
 4696TIP3   OH235502   3.867   6.157   5.465  0.0427 -0.5497  0.6848
 4696TIP3    H135503   3.938   6.213   5.434 -0.1425 -0.7507 -0.1078
 4696TIP3    H235504   3.875   6.076   5.414 -1.1088 -0.3559  0.1734
 4697TIP3   OH235505   4.727   0.839   5.146 -0.4895  0.2207  0.3189
 4697TIP3    H135506   4.648   0.890   5.165  0.3199  1.1051  1.4950
 4697TIP3    H235507   4.775   0.892   5.083  0.0825  0.6479  1.1053
 4698TIP3   OH235508   1.866   6.117  15.124  0.3578 -0.0421 -0.3894
 4698TIP3    H135509   1.785   6.158  15.096  0.8384 -0.6545 -2.9190
 4698TIP3    H235510   1.871   6.036  15.073  1.1597 -1.5103  1.8675
 4699TIP3   OH235511   0.381   1.229   0.676 -0.6602 -0.2981 -0.3999
 4699TIP3    H135512   0.391   1.315   0.636  0.6062  0.2944  1.0962
 4699TIP3    H235513   0.377   1.168   0.602  3.9529  0.4701 -1.6025
 4700TIP3   OH235514   6.205   2.581   5.759 -0.0373  0.1351 -0.0957
 4700TIP3    H135515   6.264   2.541   5.823 -0.1477 -0.5770 -0.4327
 4700TIP3    H235516   6.201   2.518   5.688  0.0700  0.9179 -0.8070
 4701TIP3   OH235517   2.132   3.660  17.096  0.1480  0.3161 -0.7585
 4701TIP3    H135518   2.052   3.661  17.044 -0.9959  0.4281  0.9017
 4701TIP3    H235519   2.125   3.582  17.151  0.9357  0.5934 -0.2307
 4702TIP3   OH235520   4.654   0.681   5.348  0.3902 -0.0122 -0.0295
 4702TIP3    H135521   4.689   0.746   5.287  2.6372 -1.6841 -0.6687
 4702TIP3    H235522   4.703   0.602   5.328 -2.1095 -1.8920  0.8506
 4703TIP3   OH235523   3.728   2.481   2.364  0.5911 -0.4222  0.2527
 4703TIP3    H135524   3.715   2.424   2.439 -0.1865 -1.9222 -0.9581
 4703TIP3    H235525   3.775   2.557   2.399 -0.9139 -0.4322  2.4869
 4704TIP3   OH235526   0.192   6.341  14.287  0.2036  0.1337  0.2158
 4704TIP3    H135527   0.154   6.374  14.369 -0.1065  1.5969 -0.4932
 4704TIP3    H235528   0.205   6.248  14.304 -0.6097  0.2361  1.6509
 4705TIP3   OH235529   3.985   3.053  13.196 -0.3983  0.1326 -0.8163
 4705TIP3    H135530   3.992   3.034  13.102  0.8697  0.2115 -0.7450
 4705TIP3    H235531   3.917   2.992  13.227  0.4753 -1.2169 -1.4404
 4706TIP3   OH235532   4.219   2.495   3.965 -0.6234  0.1330 -0.4300
 4706TIP3    H135533   4.290   2.432   3.953 -0.1962  0.4522  0.3467
 4706TIP3    H235534   4.257   2.565   4.018 -1.2812  0.7207 -0.7189
 4707TIP3   OH235535   5.141   4.654  14.423 -0.4025  0.7313  0.7957
 4707TIP3    H135536   5.123   4.572  14.376  0.7048  2.0798 -2.2539
 4707TIP3    H235537   5.230   4.678  14.396 -0.6556  2.8964  1.6575
 4708TIP3   OH235538   5.408   4.463   5.338  0.4005 -0.6274 -0.4415
 4708TIP3    H135539   5.472   4.446   5.269  0.7675  1.9113 -0.8125
 4708TIP3    H235540   5.460   4.465   5.419  0.1873 -2.2054 -0.2468
 4709TIP3   OH235541   1.861   5.317   6.061  0.8118 -0.0253 -0.5026
 4709TIP3    H135542   1.955   5.334   6.065  0.6217  0.7638  0.8495
 4709TIP3    H235543   1.824   5.364   6.135 -0.5142 -1.3133 -0.2956
 4710TIP3   OH235544   0.290   3.268  14.520  0.4727  0.6523 -0.8134
 4710TIP3    H135545   0.260   3.235  14.435 -0.1789  0.4036 -0.4933
 4710TIP3    H235546   0.365   3.213  14.542  0.2586  0.3058 -0.9403
 4711TIP3   OH235547   4.096   5.057  14.857 -0.7709  0.5882  0.5770
 4711TIP3    H135548   4.175   5.101  14.889 -2.1020  2.2065  1.7994
 4711TIP3    H235549   4.043   5.043  14.935 -0.7166 -2.7173  0.1490
 4712TIP3   OH235550   3.328   2.094   4.455  0.1413 -0.5770  0.1618
 4712TIP3    H135551   3.292   2.174   4.417 -0.2764 -0.7532  0.1767
 4712TIP3    H235552   3.354   2.119   4.544  1.6943 -0.0091 -0.4290
 4713TIP3   OH235553   6.073   3.729  16.791  0.3954 -0.0490 -0.5942
 4713TIP3    H135554   6.044   3.743  16.701  0.8362 -1.4089 -0.9644
 4713TIP3    H235555   6.018   3.657  16.823 -0.9345  1.4944  0.8172
 4714TIP3   OH235556   1.013   0.234  12.079 -0.1544 -0.4746  0.0111
 4714TIP3    H135557   0.985   0.308  12.025 -0.7605 -1.6723 -1.3800
 4714TIP3    H235558   1.105   0.220  12.055  0.8941  1.5674  2.3887
 4715TIP3   OH235559   3.027   6.652   4.849 -0.1721 -0.3155 -0.5061
 4715TIP3    H135560   3.062   6.690   4.929 -1.2239 -0.4401  0.0340
 4715TIP3    H235561   3.004   6.562   4.873 -0.7683 -0.2643 -0.8540
 4716TIP3   OH235562   0.738   1.442   5.678  0.2058 -0.3038 -0.4438
 4716TIP3    H135563   0.646   1.467   5.679  0.0480 -0.8839  0.0033
 4716TIP3    H235564   0.753   1.401   5.764  0.8673 -0.2572 -0.5295
 4717TIP3   OH235565   3.173   4.268  15.738 -0.0853  0.5886 -0.0250
 4717TIP3    H135566   3.121   4.222  15.672 -0.2402 -0.3723  0.7403
 4717TIP3    H235567   3.264   4.244  15.718 -0.0955  0.6856 -0.1838
 4718TIP3   OH235568   0.320   3.313   0.952  0.0710 -0.5387 -0.0527
 4718TIP3    H135569   0.389   3.289   1.013  1.5122 -0.6281 -1.6574
 4718TIP3    H235570   0.268   3.233   0.941  1.3800 -1.2969 -0.9252
 4719TIP3   OH235571   5.213   5.270   6.752  0.0275 -0.3831 -0.0449
 4719TIP3    H135572   5.275   5.342   6.763 -1.6505  0.9646  0.9630
 4719TIP3    H235573   5.268   5.194   6.731  2.0625  0.6121  1.4388
 4720TIP3   OH235574   4.480   3.088  13.986 -0.3313  0.7259  0.2755
 4720TIP3    H135575   4.390   3.083  14.018 -0.9303  0.9985 -1.2373
 4720TIP3    H235576   4.534   3.073  14.063 -1.6809 -1.3413  0.9247
 4721TIP3   OH235577   3.723   6.120   3.416 -0.2015 -0.1650 -0.0507
 4721TIP3    H135578   3.794   6.108   3.479 -0.8510 -0.1473  0.7113
 4721TIP3    H235579   3.743   6.203   3.373 -0.2543  0.3313  0.8422
 4722TIP3   OH235580   1.004   1.699  16.424  0.3925  0.5752 -0.3054
 4722TIP3    H135581   0.921   1.678  16.381  0.3505 -1.9594  0.8126
 4722TIP3    H235582   1.071   1.675  16.361  0.2920 -0.1083 -0.1579
 4723TIP3   OH235583   2.660   4.379  15.912 -0.1585 -0.1956  0.0283
 4723TIP3    H135584   2.578   4.330  15.923 -1.0167  1.5274  2.1063
 4723TIP3    H235585   2.687   4.402  16.002  1.0365  1.7142 -0.7447
 4724TIP3   OH235586   5.024   0.001  16.747  0.1962 -0.5761 -0.2853
 4724TIP3    H135587   5.004   0.080  16.798 -1.3356 -0.6417 -0.7290
 4724TIP3    H235588   5.119  -0.003  16.745  0.2950  0.7975  0.4598
 4725TIP3   OH235589   6.486   4.389   5.246 -0.4885  0.1194  0.0881
 4725TIP3    H135590   6.498   4.454   5.315  1.4212 -1.1403  1.0080
 4725TIP3    H235591   6.459   4.310   5.292  1.5196 -0.9484 -0.4848
 4726TIP3   OH235592   5.479   5.784  11.342 -0.2288  0.1548 -0.2570
 4726TIP3    H135593   5.508   5.771  11.432 -0.7872  1.7641  0.1949
 4726TIP3    H235594   5.510   5.872  11.319 -0.7616  0.0729 -1.3548
 4727TIP3   OH235595   1.620   3.260   2.289  1.0865 -0.6750  0.0631
 4727TIP3    H135596   1.641   3.270   2.196  0.4330  1.0680  0.0515
 4727TIP3    H235597   1.700   3.226   2.328  1.7271 -0.4246 -0.9805
 4728TIP3   OH235598   0.935   6.099   4.896 -0.2228  0.0778  0.2166
 4728TIP3    H135599   0.933   6.150   4.815  0.3842  0.0116  0.1541
 4728TIP3    H235600   1.026   6.105   4.925 -0.5643  0.6100  1.2184
 4729TIP3   OH235601   3.010   0.569   6.843  0.4322 -0.0266  0.1127
 4729TIP3    H135602   3.051   0.501   6.897  1.2833 -0.5288 -1.1219
 4729TIP3    H235603   3.080   0.632   6.826  1.0471 -1.3233 -2.7275
 4730TIP3   OH235604   1.831   6.151   1.640 -0.0379 -0.1614  0.5473
 4730TIP3    H135605   1.862   6.208   1.570 -2.0987 -0.7406 -0.9354
 4730TIP3    H235606   1.770   6.205   1.690  1.9970  0.4963  2.4894
 4731TIP3   OH235607   1.549   1.871   0.707 -0.7387  0.0318 -0.0777
 4731TIP3    H135608   1.526   1.924   0.784  1.7951  0.3290  0.5576
 4731TIP3    H235609   1.472   1.816   0.692 -1.4954  0.2869  2.4087
 4732TIP3   OH235610   0.209   2.862  16.981 -0.5902 -0.5398 -0.0882
 4732TIP3    H135611   0.197   2.821  17.066 -1.5167  0.0289  0.0740
 4732TIP3    H235612   0.274   2.930  16.995 -1.5417  0.2958  0.4508
 4733TIP3   OH235613   0.675   3.051   0.153 -0.8127 -0.5052 -0.5414
 4733TIP3    H135614   0.702   2.981   0.213 -3.2896 -0.8960  0.2468
 4733TIP3    H235615   0.681   3.131   0.206 -0.7023 -0.5141 -0.5404
 4734TIP3   OH235616   2.973   5.885   0.174  0.5208  0.3663 -0.0238
 4734TIP3    H135617   2.958   5.979   0.174  1.9472  0.6278  1.2550
 4734TIP3    H235618   2.945   5.856   0.261  1.2969 -0.1754  0.0478
 4735TIP3   OH235619   1.528   6.220   3.172  0.0372  0.0415  0.4189
 4735TIP3    H135620   1.484   6.302   3.153 -2.7562 -1.3511  0.4169
 4735TIP3    H235621   1.463   6.167   3.218  1.7137 -2.2097  0.4025
 4736TIP3   OH235622   2.646   0.436   4.321  0.6179  0.3117 -0.0117
 4736TIP3    H135623   2.560   0.421   4.282  0.6993  0.4357 -0.2349
 4736TIP3    H235624   2.667   0.353   4.365  0.3229  0.3291  0.1638
 4737TIP3   OH235625   5.395   0.848  14.118 -0.2941  1.0959  0.0944
 4737TIP3    H135626   5.318   0.855  14.173 -1.1860 -0.5478 -0.8683
 4737TIP3    H235627   5.469   0.857  14.178 -1.2161 -1.3770  1.7302
 4738TIP3   OH235628   4.197   5.789  13.946  0.1330  0.7266 -0.3083
 4738TIP3    H135629   4.183   5.844  14.023 -2.2111  0.1231 -0.2446
 4738TIP3    H235630   4.240   5.710  13.981 -2.9894 -0.6041  0.9236
 4739TIP3   OH235631   0.723   1.444  12.870  0.4271 -0.0029  0.0141
 4739TIP3    H135632   0.774   1.432  12.791 -0.2673 -1.5951 -0.2277
 4739TIP3    H235633   0.780   1.413  12.941  0.9206  1.1127  0.1376
 4740TIP3   OH235634   4.590   3.779   2.057 -0.0627 -0.1602  0.1582
 4740TIP3    H135635   4.683   3.797   2.070 -0.1751  1.5163 -1.1309
 4740TIP3    H235636   4.561   3.843   1.992 -1.9574 -1.1345 -0.0376
 4741TIP3   OH235637   5.455   6.549   0.746  0.1442 -0.1619  0.5969
 4741TIP3    H135638   5.368   6.520   0.774 -0.4554  1.0688  0.0554
 4741TIP3    H235639   5.447   6.560   0.651  0.9116 -0.0603  0.5368
 4742TIP3   OH235640   5.306   4.750   2.053 -0.1559 -0.8943  0.0162
 4742TIP3    H135641   5.325   4.733   2.145  2.3290 -2.8638 -0.7257
 4742TIP3    H235642   5.272   4.667   2.020 -3.7687  0.5779 -0.3464
 4743TIP3   OH235643   1.373   2.560   2.454 -0.1205 -0.2114  0.6077
 4743TIP3    H135644   1.458   2.544   2.496  0.1185 -0.9064 -0.1012
 4743TIP3    H235645   1.366   2.490   2.389 -0.0917  1.2894 -1.0790
 4744TIP3   OH235646   0.102   2.870   3.395  0.6557  0.0628 -0.0093
 4744TIP3    H135647   0.166   2.865   3.466  0.2615 -0.9832  0.2939
 4744TIP3    H235648   0.079   2.779   3.377 -1.1774  0.4319  0.2749
 4745TIP3   OH235649   3.818   5.086   4.041 -0.6701 -0.0576 -0.5066
 4745TIP3    H135650   3.767   5.138   3.978  0.9004  1.8499 -0.3093
 4745TIP3    H235651   3.877   5.150   4.081  0.6827 -1.8684  0.4941
 4746TIP3   OH235652   2.305   2.083   1.083  0.4360  0.5712 -0.3248
 4746TIP3    H135653   2.225   2.031   1.091  0.6581  0.1245 -0.9366
 4746TIP3    H235654   2.316   2.124   1.169  1.2392 -1.8246  0.8195
 4747TIP3   OH235655   6.322   2.407   0.499  0.2905  0.7272  0.5104
 4747TIP3    H135656   6.241   2.387   0.453  1.4471  1.3086 -1.8897
 4747TIP3    H235657   6.363   2.321   0.513 -0.3159  0.5054  1.0271
 4748TIP3   OH235658   0.939   5.799   3.527 -0.5434 -0.0663  0.0367
 4748TIP3    H135659   0.871   5.825   3.589  0.6359 -1.0717  1.8630
 4748TIP3    H235660   0.906   5.719   3.486 -0.9237  0.0685  0.0762
 4749TIP3   OH235661   5.933   4.610  16.556 -0.1192  0.0655  0.0311
 4749TIP3    H135662   5.914   4.551  16.483 -0.1113  0.4283 -0.2668
 4749TIP3    H235663   5.970   4.688  16.515 -1.7474  1.0023  0.2572
 4750TIP3   OH235664   2.383   5.112  11.995 -0.1154 -0.4478  0.1749
 4750TIP3    H135665   2.320   5.051  11.957  0.1548 -0.0995 -0.8520
 4750TIP3    H235666   2.370   5.103  12.090 -2.2876  0.2299 -0.0049
 4751TIP3   OH235667   5.573   3.369   5.736  0.5276 -0.2018 -0.0278
 4751TIP3    H135668   5.516   3.339   5.665 -1.6185 -0.8700  1.8537
 4751TIP3    H235669   5.587   3.291   5.789 -1.0700  0.9835  2.2927
 4752TIP3   OH235670   5.443   4.514   2.459 -0.2398  0.4981 -0.1521
 4752TIP3    H135671   5.460   4.502   2.366 -1.4603  0.3698 -0.3641
 4752TIP3    H235672   5.361   4.468   2.475 -0.3077  0.9555  0.8812
 4753TIP3   OH235673   2.809   0.735  14.110 -0.5844  0.3896  0.6475
 4753TIP3    H135674   2.789   0.668  14.044  1.3931  0.1656  0.2084
 4753TIP3    H235675   2.861   0.689  14.175 -0.7110  1.1119  1.2647
 4754TIP3   OH235676   4.801   4.193   5.330 -0.4313  0.6733  0.9857
 4754TIP3    H135677   4.751   4.208   5.410 -0.4297 -0.3300  1.1934
 4754TIP3    H235678   4.778   4.104   5.304  1.3360  0.1255  1.1736
 4755TIP3   OH235679   6.217   3.514   6.335  0.0647  0.0307 -0.2640
 4755TIP3    H135680   6.208   3.575   6.408 -0.7544  0.0999 -0.4140
 4755TIP3    H235681   6.262   3.438   6.372  2.5574  1.3458 -0.4546
 4756TIP3   OH235682   1.032   4.215  12.282 -0.2037  0.4178 -0.6363
 4756TIP3    H135683   0.975   4.191  12.355 -0.3071  0.3022 -0.7553
 4756TIP3    H235684   1.019   4.309  12.272  1.3762  0.8261  0.8382
 4757TIP3   OH235685   1.899   5.409  15.975  0.1466 -0.4186 -0.0674
 4757TIP3    H135686   1.872   5.478  16.037 -0.5525  0.2626 -1.1017
 4757TIP3    H235687   1.924   5.336  16.031 -1.7658 -0.3102  1.0206
 4758TIP3   OH235688   6.254   3.647   4.308  0.2128  0.0334  0.5434
 4758TIP3    H135689   6.217   3.714   4.365 -1.4819 -0.3736 -0.0279
 4758TIP3    H235690   6.330   3.689   4.268  1.1227  0.5093  2.6258
 4759TIP3   OH235691   0.955   2.989  15.533  0.0488 -0.1407  0.0832
 4759TIP3    H135692   0.948   3.082  15.555  0.5566 -0.4187  1.5141
 4759TIP3    H235693   0.865   2.959  15.524 -0.2565 -0.1480  2.5418
 4760TIP3   OH235694   3.285   6.143   5.261  0.1329 -0.3095  0.5947
 4760TIP3    H135695   3.265   6.223   5.309 -0.3109  0.2866 -0.5553
 4760TIP3    H235696   3.199   6.106   5.239  0.3274 -0.5436  0.2116
 4761TIP3   OH235697   3.200   0.638  12.124 -0.1366  0.1863  0.1006
 4761TIP3    H135698   3.122   0.597  12.086 -0.1040 -1.9533  2.1561
 4761TIP3    H235699   3.271   0.578  12.104  0.1694 -0.1359  1.9594
 4762TIP3   OH235700   3.143   5.223  11.694 -0.0394 -0.2006  0.0570
 4762TIP3    H135701   3.203   5.234  11.768  1.4091  0.7062 -1.1798
 4762TIP3    H235702   3.123   5.130  11.693  0.3243 -0.3078  1.2707
 4763TIP3   OH235703   0.051   3.561  12.276 -0.2741 -0.3078  0.0420
 4763TIP3    H135704  -0.042   3.580  12.286 -0.1157  0.4152  0.1638
 4763TIP3    H235705   0.059   3.469  12.299 -0.7246  0.0098  1.5272
 4764TIP3   OH235706   5.495   3.944  16.648 -0.2518 -0.3597  0.0826
 4764TIP3    H135707   5.496   4.031  16.610  0.4875  0.1002  1.1237
 4764TIP3    H235708   5.580   3.906  16.624  0.2279 -0.0595  1.2371
 4765TIP3   OH235709   5.128   5.074   1.259  0.4574 -0.5505  0.3401
 4765TIP3    H135710   5.096   5.084   1.348  0.7086  0.1625  0.3525
 4765TIP3    H235711   5.070   5.008   1.220  0.3292 -0.8412  1.0126
 4766TIP3   OH235712   4.527   0.364  16.684 -0.8713 -0.0324  0.0504
 4766TIP3    H135713   4.574   0.320  16.755 -2.0216 -1.5798 -0.0892
 4766TIP3    H235714   4.579   0.343  16.606 -2.4563 -3.0794 -0.3538
 4767TIP3   OH235715   2.366   3.910   0.345  0.0919  0.5826 -0.6601
 4767TIP3    H135716   2.439   3.964   0.375  0.3763 -1.2483  2.3692
 4767TIP3    H235717   2.295   3.929   0.406 -0.4434 -0.9136 -0.7790
 4768TIP3   OH235718   1.022   4.937   4.825  0.5226  0.2963  0.2740
 4768TIP3    H135719   1.080   4.933   4.749  0.4555  0.1026  0.2335
 4768TIP3    H235720   1.024   5.029   4.851  0.0758  0.4937 -0.3363
 4769TIP3   OH235721   3.378   3.057  10.661 -0.1834  0.0653 -0.2639
 4769TIP3    H135722   3.293   3.067  10.702  0.2216 -0.3232  0.7070
 4769TIP3    H235723   3.420   2.986  10.709  0.7667  0.3858 -0.5831
 4770TIP3   OH235724   0.360   2.040   6.658  0.3185 -0.4774 -0.6791
 4770TIP3    H135725   0.410   2.070   6.583 -1.4118 -0.3943 -1.8665
 4770TIP3    H235726   0.344   2.119   6.709  1.3994 -0.5154 -0.2603
 4771TIP3   OH235727   0.294   4.291  12.735 -0.0079  0.0847  0.3841
 4771TIP3    H135728   0.388   4.305  12.746 -0.0783  0.2174  0.8296
 4771TIP3    H235729   0.254   4.340  12.806 -0.2306 -2.9375  2.5426
 4772TIP3   OH235730   2.968   4.846   4.289  0.1063  0.1882  0.4346
 4772TIP3    H135731   3.005   4.922   4.244  0.3908 -0.6186 -0.7101
 4772TIP3    H235732   2.960   4.875   4.380  0.3896  1.5231  0.0603
 4773TIP3   OH235733   2.638   2.685  15.902  0.2835 -0.4774 -0.0454
 4773TIP3    H135734   2.603   2.596  15.899  0.1039 -0.4198 -2.8986
 4773TIP3    H235735   2.578   2.736  15.848  1.4273  0.9383 -0.0494
 4774TIP3   OH235736   4.490   0.410   5.580  0.8081 -0.6463  0.1407
 4774TIP3    H135737   4.397   0.409   5.557  0.3917 -0.4340  1.7532
 4774TIP3    H235738   4.529   0.348   5.518 -0.2222 -0.0408 -1.1913
 4775TIP3   OH235739   5.884   1.592  16.006  0.0932  0.0862  0.5344
 4775TIP3    H135740   5.805   1.597  16.060  0.3394  1.7824  0.7968
 4775TIP3    H235741   5.943   1.658  16.043  0.5186  0.8491 -1.3896
 4776TIP3   OH235742   0.477   4.227   6.441  0.5029 -0.3393  0.2086
 4776TIP3    H135743   0.464   4.320   6.463  1.4184 -0.3216  0.7273
 4776TIP3    H235744   0.568   4.209   6.464  0.9276 -0.8833 -1.7066
 4777TIP3   OH235745   1.229   4.638   3.413 -0.1518 -0.1587 -0.4477
 4777TIP3    H135746   1.145   4.592   3.422  0.9607 -2.0966  0.7940
 4777TIP3    H235747   1.284   4.600   3.482  1.4987  1.6639 -0.6890
 4778TIP3   OH235748   0.519   4.824  10.473  0.2110  0.8028  0.0023
 4778TIP3    H135749   0.590   4.882  10.500  0.7610  0.1222  0.0315
 4778TIP3    H235750   0.560   4.740  10.458 -1.0081 -0.3712  2.6954
 4779TIP3   OH235751   2.655   5.568  11.114  0.0731  0.0882 -0.2616
 4779TIP3    H135752   2.695   5.614  11.040 -1.7412  1.4157 -0.4691
 4779TIP3    H235753   2.691   5.611  11.192  1.3569 -0.7732 -0.3483
 4780TIP3   OH235754   1.841   4.951   3.732 -0.1823  0.2835  0.0653
 4780TIP3    H135755   1.871   4.976   3.819 -0.5449 -0.4248  0.3987
 4780TIP3    H235756   1.832   4.856   3.735  0.3781  0.1817 -0.9336
 4781TIP3   OH235757   5.385   5.801   1.721 -0.2045  0.0670 -0.2423
 4781TIP3    H135758   5.440   5.737   1.767  0.3637  1.8424  1.7250
 4781TIP3    H235759   5.312   5.816   1.780 -1.6383 -0.5156 -1.7866
 4782TIP3   OH235760   0.656   4.986   1.043  0.0677 -0.2304  0.3010
 4782TIP3    H135761   0.658   4.899   1.082  1.1787  0.1484  1.1352
 4782TIP3    H235762   0.566   5.016   1.057 -0.6023 -1.5929 -0.8537
 4783TIP3   OH235763   3.643   0.026  11.403 -0.3762  0.0978  0.4237
 4783TIP3    H135764   3.686   0.111  11.405  0.3141 -0.2529  1.4940
 4783TIP3    H235765   3.617   0.010  11.494  1.6392 -1.8645  0.7319
 4784TIP3   OH235766   1.571   0.246  16.783  0.6370  0.0184  0.0913
 4784TIP3    H135767   1.645   0.193  16.754  0.5894 -0.2894  0.5327
 4784TIP3    H235768   1.508   0.184  16.818 -0.4746  0.1291 -1.5977
 4785TIP3   OH235769   2.872   1.772  10.652 -0.2036 -0.1465  0.0190
 4785TIP3    H135770   2.829   1.813  10.727  0.1649  0.4408 -0.0824
 4785TIP3    H235771   2.922   1.843  10.612  0.3939 -0.6838 -0.2015
 4786TIP3   OH235772   5.889   6.047   1.576  0.3346  0.5569 -0.3469
 4786TIP3    H135773   5.899   6.130   1.621 -0.0669  1.0180 -1.0875
 4786TIP3    H235774   5.893   5.981   1.645 -0.2915  1.2460  0.3613
 4787TIP3   OH235775   1.502   1.093   4.517  0.2172  0.6756  0.4435
 4787TIP3    H135776   1.574   1.114   4.458 -2.2279  0.3321 -2.9943
 4787TIP3    H235777   1.511   0.998   4.532 -0.8297  0.0480 -2.2117
 4788TIP3   OH235778   6.387   4.057  11.210  0.9340  0.0058  0.2162
 4788TIP3    H135779   6.437   3.989  11.254 -2.1501 -1.6330  1.4826
 4788TIP3    H235780   6.314   4.076  11.270  0.1964  2.5023 -1.3190
 4789TIP3   OH235781   0.079   1.603  15.638  0.1235  0.8952  0.3297
 4789TIP3    H135782   0.037   1.575  15.556  1.4907  0.5509 -0.2729
 4789TIP3    H235783   0.171   1.583  15.626  0.4207  1.2929  1.7824
 4790TIP3   OH235784   4.410   3.815   0.077  0.4268 -0.2202  0.5680
 4790TIP3    H135785   4.438   3.885   0.019 -2.1586  0.3365 -0.1592
 4790TIP3    H235786   4.417   3.736   0.024  1.2695 -0.2094  0.6546
 4791TIP3   OH235787   5.874   2.386  13.067  0.1046 -0.0506 -0.6740
 4791TIP3    H135788   5.932   2.341  13.006  1.3499 -2.0558  1.8387
 4791TIP3    H235789   5.930   2.449  13.112  0.6921 -2.4852  2.2704
 4792TIP3   OH235790   5.267   3.781  11.986 -0.3493 -1.0970  0.7922
 4792TIP3    H135791   5.351   3.739  12.004 -1.0884 -1.6748  3.2787
 4792TIP3    H235792   5.201   3.717  12.013 -1.6386 -0.6623 -1.1140
 4793TIP3   OH235793   4.614   3.386  14.127  0.3947  0.3223  0.3398
 4793TIP3    H135794   4.681   3.353  14.068 -0.6508 -1.7285  0.2110
 4793TIP3    H235795   4.606   3.318  14.194 -1.4067  0.6109  0.4565
 4794TIP3   OH235796   3.500   4.732  10.989  0.2772 -0.4741  0.2897
 4794TIP3    H135797   3.523   4.820  10.961 -0.7551 -0.2183  0.1954
 4794TIP3    H235798   3.562   4.675  10.943  1.0545  0.2088  0.4857
 4795TIP3   OH235799   3.994   6.249  14.735 -0.3691 -0.0129 -0.1008
 4795TIP3    H135800   3.995   6.167  14.785 -0.0193  0.0863  0.0567
 4795TIP3    H235801   4.032   6.314  14.794  1.1344 -0.1317 -0.9029
 4796TIP3   OH235802   2.417   5.819  17.326  0.0980 -0.1331 -0.0746
 4796TIP3    H135803   2.380   5.906  17.340 -0.3851  0.3649 -3.6214
 4796TIP3    H235804   2.344   5.758  17.340 -0.0023  0.1451  0.6672
 4797TIP3   OH235805   4.359   0.681  13.446  0.3759  0.1458 -0.0965
 4797TIP3    H135806   4.403   0.758  13.482  2.8106 -0.9566 -0.4923
 4797TIP3    H235807   4.346   0.702  13.354  0.7957  0.2098 -0.1453
 4798TIP3   OH235808   1.311   5.727  17.225  0.0582  0.4081 -0.6175
 4798TIP3    H135809   1.292   5.779  17.146  0.4549  2.3331  0.4754
 4798TIP3    H235810   1.402   5.701  17.215  0.1350  0.7241 -0.7705
 4799TIP3   OH235811   2.323   4.570   4.371 -0.4116  0.3364  0.0880
 4799TIP3    H135812   2.399   4.514   4.376 -0.7691 -0.1117  0.7129
 4799TIP3    H235813   2.330   4.614   4.287  0.6513  0.4729  0.2376
 4800TIP3   OH235814   4.017   3.399  11.142  0.0793 -0.2916  0.4299
 4800TIP3    H135815   4.061   3.483  11.136  2.0345 -1.2352  0.6134
 4800TIP3    H235816   4.087   3.336  11.160 -1.0966 -2.1497 -0.9611
 4801TIP3   OH235817   5.534   5.838  15.011 -0.0081  0.4374  0.4225
 4801TIP3    H135818   5.542   5.776  14.938 -1.5664  0.7135 -0.0249
 4801TIP3    H235819   5.500   5.785  15.083  0.5268  0.3809  0.6348
 4802TIP3   OH235820   1.272   1.474  12.410 -0.2373 -0.0911 -0.6876
 4802TIP3    H135821   1.268   1.564  12.443 -1.2642 -0.7628  1.1634
 4802TIP3    H235822   1.364   1.459  12.392  0.1183  0.9087  0.2281
 4803TIP3   OH235823   2.006   0.600   2.349 -0.1273 -0.1876 -0.3461
 4803TIP3    H135824   1.945   0.668   2.375 -0.6308 -0.5785 -0.4849
 4803TIP3    H235825   1.966   0.519   2.381  1.9939 -0.1939  2.7381
 4804TIP3   OH235826   4.083   5.647   2.644  0.7402  0.8132  0.4615
 4804TIP3    H135827   4.175   5.666   2.628  0.8416  0.9600  1.1830
 4804TIP3    H235828   4.054   5.716   2.703  0.0012  1.1143 -0.2313
 4805TIP3   OH235829   3.015   1.534  17.307 -0.3684 -0.0688  0.5028
 4805TIP3    H135830   2.999   1.469  17.375  1.7370  1.1565  2.2911
 4805TIP3    H235831   3.043   1.483  17.231 -3.5616 -1.5310  0.1533
 4806TIP3   OH235832   4.917   3.570   4.474 -0.4207 -0.5442 -0.2239
 4806TIP3    H135833   4.977   3.545   4.404 -0.1526 -1.4340  0.3106
 4806TIP3    H235834   4.843   3.610   4.429 -1.2140 -2.9389 -1.2288
 4807TIP3   OH235835   5.216   6.211  12.861 -0.1690  0.3914 -0.0207
 4807TIP3    H135836   5.209   6.190  12.954  0.3073  1.2934  0.2262
 4807TIP3    H235837   5.309   6.201  12.840 -0.4592 -1.0815 -0.7284
 4808TIP3   OH235838   2.754   3.266   3.240 -0.1124 -0.5190  0.6280
 4808TIP3    H135839   2.836   3.219   3.227  0.5970  0.9054 -0.2155
 4808TIP3    H235840   2.779   3.344   3.289 -0.7730  0.4774 -0.5783
 4809TIP3   OH235841   6.152   6.620  13.721  0.0397  0.0016 -0.0647
 4809TIP3    H135842   6.196   6.698  13.688 -0.9229  0.6996  0.2855
 4809TIP3    H235843   6.221   6.571  13.766  0.1447  1.9170  2.0211
 4810TIP3   OH235844   5.863   4.783  13.036 -0.0672  0.4350  0.2399
 4810TIP3    H135845   5.881   4.758  13.127 -2.5434  1.0684  0.9825
 4810TIP3    H235846   5.891   4.874  13.030  0.9928  0.1064  0.0648
 4811TIP3   OH235847   5.396   1.806  13.132 -0.5670 -0.2116  0.7110
 4811TIP3    H135848   5.343   1.781  13.056  0.5167 -0.7877  0.1191
 4811TIP3    H235849   5.465   1.739  13.136 -0.5879 -0.1700  2.1923
 4812TIP3   OH235850   5.940   0.309   0.372 -0.0146 -0.7890  0.1545
 4812TIP3    H135851   5.952   0.332   0.279  0.7501 -2.3660 -0.1797
 4812TIP3    H235852   5.927   0.214   0.371 -2.8898 -0.4882  1.4554
 4813TIP3   OH235853   0.998   0.424  13.034 -0.1975  0.2525 -0.5383
 4813TIP3    H135854   0.903   0.434  13.033 -0.3603 -1.1133 -0.3256
 4813TIP3    H235855   1.015   0.348  12.978  0.6298 -0.4920  0.6643
 4814TIP3   OH235856   3.893   2.534   2.829 -0.3279  0.1982  0.1955
 4814TIP3    H135857   3.884   2.621   2.868  0.2823  1.1947 -1.7468
 4814TIP3    H235858   3.987   2.515   2.834 -0.1981  0.4796 -1.0388
 4815TIP3   OH235859   2.257   2.369  12.231  0.0578  0.2301 -0.4127
 4815TIP3    H135860   2.200   2.292  12.226 -2.3331  1.7415  1.4353
 4815TIP3    H235861   2.285   2.384  12.140 -1.4422 -1.3629 -1.2040
 4816TIP3   OH235862   5.740   6.279   0.925 -0.5732 -0.5782  0.0214
 4816TIP3    H135863   5.695   6.265   0.841 -2.3907 -0.7966  0.9917
 4816TIP3    H235864   5.738   6.374   0.937 -1.0657 -0.6068  0.1987
 4817TIP3   OH235865   4.119   2.631   3.341 -0.2558 -0.6836  0.2230
 4817TIP3    H135866   4.079   2.559   3.390 -0.1669 -0.9609 -0.1081
 4817TIP3    H235867   4.091   2.617   3.250 -1.5643  0.6144  0.3973
 4818TIP3   OH235868   5.837   4.044   0.115 -0.0658  0.4716 -0.7172
 4818TIP3    H135869   5.849   4.049   0.209 -0.5291  3.1427 -0.7190
 4818TIP3    H235870   5.742   4.042   0.103 -0.0204  0.5152 -1.1065
 4819TIP3   OH235871   2.527   1.379   0.765  0.5615 -0.1708 -0.6134
 4819TIP3    H135872   2.515   1.353   0.674 -2.5502 -2.2129  0.2323
 4819TIP3    H235873   2.582   1.311   0.803 -3.9842 -3.6259  0.5421
 4820TIP3   OH235874   6.104   2.409  13.358 -0.1389  0.2563 -0.6343
 4820TIP3    H135875   6.169   2.467  13.316 -0.6158  0.1430 -1.5600
 4820TIP3    H235876   6.093   2.338  13.296 -0.3251 -0.3056  0.0379
 4821TIP3   OH235877   4.390   1.624   0.346  0.7499 -0.1878  0.7711
 4821TIP3    H135878   4.473   1.670   0.361  0.7155  0.5070 -0.8967
 4821TIP3    H235879   4.414   1.532   0.342  1.4136 -0.0090  0.4835
 4822TIP3   OH235880   1.559   2.307   5.443  0.4481  0.7359 -0.0531
 4822TIP3    H135881   1.464   2.315   5.454  0.4783 -0.5191  1.5001
 4822TIP3    H235882   1.591   2.397   5.452 -0.5638  1.1585 -0.4617
 4823TIP3   OH235883   4.572   6.649  14.177 -0.6255  0.1907  0.2981
 4823TIP3    H135884   4.543   6.718  14.117  0.6986  1.2839  0.8640
 4823TIP3    H235885   4.496   6.592  14.187 -1.6969  1.4603 -0.3486
 4824TIP3   OH235886   4.095   1.217  11.697  0.2992  0.1500  0.3733
 4824TIP3    H135887   4.059   1.189  11.613 -0.1261  1.2525  0.1734
 4824TIP3    H235888   4.153   1.290  11.676 -1.1056  1.5782  1.1619
 4825TIP3   OH235889   2.260   4.260   2.336 -0.3100  0.2786 -0.0828
 4825TIP3    H135890   2.330   4.224   2.391 -0.7296 -2.3754 -1.1663
 4825TIP3    H235891   2.282   4.232   2.247 -2.4561 -0.2022 -0.5206
 4826TIP3   OH235892   5.558   5.445   4.050 -0.7981 -0.0006 -0.2876
 4826TIP3    H135893   5.626   5.494   4.004 -2.0285  1.9920 -0.1032
 4826TIP3    H235894   5.606   5.377   4.098  0.8067 -0.1617 -1.9801
 4827TIP3   OH235895   5.350   3.092  11.607 -0.0024 -0.2380  0.4047
 4827TIP3    H135896   5.385   3.026  11.666  0.7389  0.0826  0.3366
 4827TIP3    H235897   5.293   3.044  11.547  1.2073 -0.9678 -0.1985
 4828TIP3   OH235898   6.467   6.447  15.817 -0.4381 -0.0087  0.1337
 4828TIP3    H135899   6.454   6.451  15.912  0.5102  1.5685  0.2282
 4828TIP3    H235900   6.428   6.364  15.791 -1.2646 -0.1856  1.8166
 4829TIP3   OH235901   1.480   4.855   0.110 -0.4689 -0.6093  0.3161
 4829TIP3    H135902   1.556   4.877   0.164 -1.4772  0.0907  1.4917
 4829TIP3    H235903   1.427   4.797   0.165 -1.7582  0.5192  0.2997
 4830TIP3   OH235904   5.880   3.605  13.656  0.2694  0.1859  0.3068
 4830TIP3    H135905   5.789   3.606  13.686 -0.4664 -0.7433 -1.6810
 4830TIP3    H235906   5.911   3.518  13.681  0.5209  0.3842  0.6926
 4831TIP3   OH235907   4.946   4.787  15.836 -0.1039 -0.1002  0.7444
 4831TIP3    H135908   4.957   4.695  15.858  1.3861 -0.0296  0.3750
 4831TIP3    H235909   5.029   4.828  15.861 -0.8806  1.2191  1.2701
 4832TIP3   OH235910   0.636   0.833  14.091 -1.1499 -0.4836 -0.4125
 4832TIP3    H135911   0.552   0.787  14.098 -0.9637 -0.8352 -0.4777
 4832TIP3    H235912   0.627   0.888  14.013 -1.5383 -0.0600 -0.0790
 4833TIP3   OH235913   1.209   4.449  16.136  0.2625  0.2638  0.0880
 4833TIP3    H135914   1.147   4.394  16.090  1.1869 -0.5026 -0.2739
 4833TIP3    H235915   1.155   4.507  16.190 -0.7441 -0.5577 -0.0203
 4834TIP3   OH235916   1.083   2.894  14.626  0.0146 -0.1498 -0.2468
 4834TIP3    H135917   1.068   2.803  14.651 -1.6283 -0.4789 -2.1044
 4834TIP3    H235918   1.019   2.944  14.677 -1.3518 -0.4749 -1.5717
 4835TIP3   OH235919   0.384   5.496   4.488  0.7279  0.3266  0.1217
 4835TIP3    H135920   0.315   5.441   4.450  0.7973 -0.1568  0.6737
 4835TIP3    H235921   0.443   5.433   4.530  0.6606  0.8439  1.0057
 4836TIP3   OH235922   4.609   3.901  11.287  0.4432  0.1967  0.4058
 4836TIP3    H135923   4.569   3.984  11.258  0.3463  0.1597  0.4317
 4836TIP3    H235924   4.572   3.835  11.228  0.8296  0.2285  0.1262
 4837TIP3   OH235925   1.944   6.381   4.825  0.1126 -0.0491 -0.2678
 4837TIP3    H135926   1.905   6.408   4.742  0.9891 -2.6245 -1.6338
 4837TIP3    H235927   1.913   6.291   4.838  0.6315  0.0202  1.8102
 4838TIP3   OH235928   4.681   3.485   4.600 -0.4640 -0.2946  0.1590
 4838TIP3    H135929   4.698   3.525   4.685 -1.1145 -1.3181  0.8031
 4838TIP3    H235930   4.766   3.482   4.557 -0.5698  3.0316 -0.5652
 4839TIP3   OH235931   5.676   6.400   5.356  0.3590 -0.2120  0.0881
 4839TIP3    H135932   5.707   6.391   5.446 -1.2906  0.5414  0.7742
 4839TIP3    H235933   5.673   6.495   5.341  0.1379 -0.3210 -0.5858
 4840TIP3   OH235934   0.919   5.107  17.123  0.3410  0.5509  0.9706
 4840TIP3    H135935   0.898   5.196  17.097 -0.0461  0.3678  0.6465
 4840TIP3    H235936   0.834   5.064  17.135  0.3494 -0.9062 -2.7053
 4841TIP3   OH235937   1.565   6.196   1.790 -0.0667  0.3360  0.1287
 4841TIP3    H135938   1.502   6.130   1.819 -0.4145  0.7709  0.3953
 4841TIP3    H235939   1.600   6.232   1.872  0.6432 -0.0056 -0.0193
 4842TIP3   OH235940   3.812   3.157  12.270 -0.7243 -0.3758 -0.1294
 4842TIP3    H135941   3.877   3.226  12.265  0.4829 -1.4356  0.5372
 4842TIP3    H235942   3.823   3.107  12.189  0.4001 -1.4938  0.6878
 4843TIP3   OH235943   6.429   5.084   0.425 -0.1531  0.4997  0.8684
 4843TIP3    H135944   6.437   4.989   0.426  0.3189  0.5281  0.3594
 4843TIP3    H235945   6.349   5.103   0.474  0.0840 -0.1223  1.5128
 4844TIP3   OH235946   2.735   2.175   0.110  0.2360 -0.4493  0.5570
 4844TIP3    H135947   2.823   2.206   0.132 -0.0216  0.1839  0.7384
 4844TIP3    H235948   2.735   2.171   0.014 -0.1223  1.4146  0.4402
 4845TIP3   OH235949   3.436   3.891   2.006  0.6675 -0.1332 -0.0352
 4845TIP3    H135950   3.387   3.813   1.982  0.9267 -0.3011 -0.0199
 4845TIP3    H235951   3.370   3.953   2.037  0.1898  0.4310 -1.9964
 4846TIP3   OH235952   3.174   1.303  16.550  0.0075 -0.7408 -0.4042
 4846TIP3    H135953   3.119   1.372  16.513  1.5459  2.8854  3.3252
 4846TIP3    H235954   3.114   1.253  16.606 -0.6540 -0.9489 -1.2759
 4847TIP3   OH235955   1.800   5.291  11.911 -0.7938 -0.0766 -0.9578
 4847TIP3    H135956   1.868   5.337  11.861 -0.8073 -1.3141 -2.1958
 4847TIP3    H235957   1.817   5.198  11.894 -2.2479 -0.4379 -0.5586
 4848TIP3   OH235958   0.526   2.058  16.124 -0.6051 -0.3190 -0.2735
 4848TIP3    H135959   0.519   2.052  16.220 -0.1415 -1.0055 -0.2723
 4848TIP3    H235960   0.586   2.131  16.109 -3.1699  1.9800 -0.1524
 4849TIP3   OH235961   2.937   2.305  17.171  0.7857 -0.1106 -0.3826
 4849TIP3    H135962   2.971   2.388  17.204 -1.6923  1.5912 -1.7899
 4849TIP3    H235963   2.859   2.289  17.225  1.5056 -1.8446  0.2002
 4850TIP3   OH235964   3.495   6.277   5.018  1.1234  0.0245  0.1875
 4850TIP3    H135965   3.462   6.219   5.087  0.3201  0.9941  0.6431
 4850TIP3    H235966   3.552   6.221   4.965  0.6183 -1.0992  0.7928
 4851TIP3   OH235967   5.690   2.055   5.584 -0.4970  0.3181  0.1737
 4851TIP3    H135968   5.762   2.097   5.632  0.5601 -0.4920 -0.6627
 4851TIP3    H235969   5.657   2.124   5.526  1.8883 -0.1210 -1.9323
 4852TIP3   OH235970   1.677   6.701   5.267  0.3648 -0.3836 -0.2888
 4852TIP3    H135971   1.582   6.700   5.257  0.1892  0.5754  0.9519
 4852TIP3    H235972   1.711   6.714   5.179 -0.6476 -0.9153 -0.7696
 4853TIP3   OH235973   3.562   4.443  15.277  0.0278 -0.3672  0.5024
 4853TIP3    H135974   3.585   4.351  15.292  0.9124 -0.1038  0.8372
 4853TIP3    H235975   3.646   4.487  15.265  0.0347  1.1488  4.6449
 4854TIP3   OH235976   2.054   0.888   4.143 -0.5183 -0.1782 -0.2303
 4854TIP3    H135977   2.083   0.797   4.158 -0.0683 -0.4948 -2.6621
 4854TIP3    H235978   2.118   0.924   4.082 -0.6006  1.8721  0.8140
 4855TIP3   OH235979   2.755   5.921  15.255  0.3070  0.6553 -0.2027
 4855TIP3    H135980   2.747   5.974  15.176  0.2597 -0.2496 -0.8167
 4855TIP3    H235981   2.666   5.889  15.272  0.7240 -1.3146 -1.3417
 4856TIP3   OH235982   1.440   6.559  12.737 -0.4912 -0.4082  0.3471
 4856TIP3    H135983   1.442   6.645  12.695 -1.3009 -0.0489  0.9996
 4856TIP3    H235984   1.464   6.498  12.668  1.5147  0.4455  0.2049
 4857TIP3   OH235985   3.645   3.257  11.653  0.3425 -0.6979  0.3679
 4857TIP3    H135986   3.709   3.328  11.656 -0.2831 -0.1609  1.2935
 4857TIP3    H235987   3.696   3.180  11.631  0.9514  0.1220 -1.3316
 4858TIP3   OH235988   5.012   4.396   0.452 -0.2000  0.3353  0.2915
 4858TIP3    H135989   5.018   4.317   0.398  0.6363  0.9383 -0.5261
 4858TIP3    H235990   4.918   4.407   0.469 -0.2248 -1.9990  2.2331
 4859TIP3   OH235991   6.012   4.057  13.870 -0.1131  0.0968  0.4401
 4859TIP3    H135992   5.952   4.028  13.801  1.1109 -0.4536 -0.4518
 4859TIP3    H235993   6.047   3.975  13.907  2.3578  0.2938 -1.1698
 4860TIP3   OH235994   1.322   2.130   1.062  0.2186  0.4507 -0.4595
 4860TIP3    H135995   1.290   2.063   1.002 -0.3335 -0.5064  0.8713
 4860TIP3    H235996   1.244   2.168   1.100  0.5507 -0.5238  1.3208
 4861TIP3   OH235997   2.987   2.380   2.947  0.0423 -0.2422  0.1342
 4861TIP3    H135998   2.950   2.418   2.867 -1.1567  0.4205  0.9873
 4861TIP3    H235999   3.050   2.315   2.915 -0.6047 -0.1788 -1.3509
 4862TIP3   OH236000   5.494   6.743  11.758 -0.3984 -0.1659  0.7085
 4862TIP3    H136001   5.491   6.738  11.854 -2.0753 -0.6128  0.6569
 4862TIP3    H236002   5.420   6.800  11.735  1.1212  1.5256 -0.2499
 4863TIP3   OH236003   1.119   4.089   3.648  0.0539  0.6383 -0.3231
 4863TIP3    H136004   1.211   4.088   3.622  0.2837  0.8951  0.4556
 4863TIP3    H236005   1.106   4.006   3.694 -0.2473  0.3645 -0.8902
 4864TIP3   OH236006   1.869   0.834   1.984  0.6107  0.1949  0.4208
 4864TIP3    H136007   1.953   0.794   2.009  0.0626 -1.1262  0.2185
 4864TIP3    H236008   1.814   0.760   1.959 -1.1977  0.8580  2.1912
 4865TIP3   OH236009   5.239   0.358   0.696 -0.3723  0.1707  0.4009
 4865TIP3    H136010   5.304   0.345   0.627 -0.7152 -2.0821  0.3940
 4865TIP3    H236011   5.286   0.343   0.778 -0.6661 -0.5996  0.4413
 4866TIP3   OH236012   3.720   4.255   4.137  0.4065 -0.0331 -0.2409
 4866TIP3    H136013   3.801   4.273   4.184  0.8383  0.6819 -1.2254
 4866TIP3    H236014   3.704   4.334   4.085  0.0072 -0.8117 -1.3582
 4867TIP3   OH236015   5.764   0.335   0.567  0.2379 -0.0988  0.4690
 4867TIP3    H136016   5.829   0.333   0.497 -0.2718 -0.9591 -0.0001
 4867TIP3    H236017   5.790   0.264   0.626 -0.3270 -0.5088  0.2280
 4868TIP3   OH236018   0.086   6.443  14.517 -0.1503 -0.2143  0.0434
 4868TIP3    H136019   0.167   6.476  14.555 -0.3612  0.9385 -0.4650
 4868TIP3    H236020   0.021   6.451  14.587  0.2952 -1.8253  0.6932
 4869TIP3   OH236021   3.963   3.365   4.924 -0.6166  0.1305  0.2383
 4869TIP3    H136022   3.873   3.393   4.941 -0.6279  0.2420 -0.0085
 4869TIP3    H236023   4.005   3.364   5.010 -0.6999  0.6183  0.2842
 4870TIP3   OH236024   1.815   1.731   4.692 -0.5288  0.0759  0.7479
 4870TIP3    H136025   1.726   1.720   4.726 -1.2408 -1.4589 -1.4102
 4870TIP3    H236026   1.827   1.825   4.686 -2.0703  0.3142  0.9213
 4871TIP3   OH236027   5.918   0.592   5.673  0.0551 -0.2789  0.2117
 4871TIP3    H136028   6.009   0.618   5.659 -0.1047  0.6338  0.7867
 4871TIP3    H236029   5.900   0.616   5.764 -0.8331 -0.2154  0.0274
 4872TIP3   OH236030   1.251   1.963  16.181  0.0193  0.1261 -0.1438
 4872TIP3    H136031   1.222   1.872  16.187 -0.1823  0.2456  1.0384
 4872TIP3    H236032   1.346   1.957  16.167 -0.3703 -0.2586 -3.2555
 4873TIP3   OH236033   5.657   3.833  14.627 -0.1684  0.7341  0.6128
 4873TIP3    H136034   5.748   3.801  14.628 -1.2982 -3.6359 -2.7533
 4873TIP3    H236035   5.613   3.780  14.694 -1.0473 -1.0580 -1.2728
 4874TIP3   OH236036   2.656   3.794   2.207  0.5225 -0.1945  0.9308
 4874TIP3    H136037   2.674   3.702   2.228  0.7936 -0.3059  0.2465
 4874TIP3    H236038   2.633   3.793   2.115 -2.6890  0.0102  1.6277
 4875TIP3   OH236039   1.658   6.046   2.982 -0.4578 -0.1933 -0.2230
 4875TIP3    H136040   1.602   6.106   3.030 -0.9554 -1.4495  0.8133
 4875TIP3    H236041   1.702   5.995   3.049  0.5704 -0.4567 -1.0628
 4876TIP3   OH236042   3.388   4.955  16.790 -0.4073 -0.0970 -0.3888
 4876TIP3    H136043   3.394   4.925  16.880  0.1582 -1.4725 -0.8587
 4876TIP3    H236044   3.446   5.030  16.785 -0.3985 -0.0518  0.3722
 4877TIP3   OH236045   1.775   5.445   6.280  0.5009  0.4459  0.2167
 4877TIP3    H136046   1.841   5.458   6.347 -0.4756  1.8102  0.9663
 4877TIP3    H236047   1.697   5.416   6.328 -0.0416  0.8743 -0.3903
 4878TIP3   OH236048   4.172   3.907  16.630 -0.0460 -0.4461 -0.1120
 4878TIP3    H136049   4.096   3.851  16.614  0.2258 -0.8864  0.1406
 4878TIP3    H236050   4.244   3.866  16.582 -0.0088  0.0924 -0.5339
 4879TIP3   OH236051   0.408   4.720   1.290  0.4627 -0.0213 -0.6518
 4879TIP3    H136052   0.336   4.734   1.229 -0.4001 -0.5038  0.2208
 4879TIP3    H236053   0.433   4.629   1.277  0.0781 -0.2115 -0.0896
 4880TIP3   OH236054   5.251   0.668   5.352  0.3222  0.0443  0.3255
 4880TIP3    H136055   5.196   0.738   5.319  0.1546 -0.3499 -0.2446
 4880TIP3    H236056   5.216   0.648   5.439 -1.9687 -1.7706 -0.8931
 4881TIP3   OH236057   4.534   5.452   4.805  0.0539  0.8525 -0.2296
 4881TIP3    H136058   4.534   5.533   4.755 -2.6631  1.3570  0.4152
 4881TIP3    H236059   4.521   5.383   4.739  1.3384  0.9977 -0.6654
 4882TIP3   OH236060   0.511   1.668   3.087  0.1790 -0.0659  0.4077
 4882TIP3    H136061   0.471   1.634   3.007 -1.4313 -1.6865  1.8326
 4882TIP3    H236062   0.600   1.633   3.086 -0.6343 -2.2652  0.5484
 4883TIP3   OH236063   0.401   4.438  14.674  0.1269 -0.2495 -0.0220
 4883TIP3    H136064   0.316   4.399  14.654  0.9702 -1.9020 -0.5844
 4883TIP3    H236065   0.385   4.532  14.673 -1.7423 -0.5208  0.1569
 4884TIP3   OH236066   3.100   5.158   4.778  0.1494 -0.2691  0.1934
 4884TIP3    H136067   3.113   5.191   4.867 -1.8467 -0.2586  0.5280
 4884TIP3    H236068   3.104   5.236   4.722 -0.1787 -0.0521  0.4686
 4885TIP3   OH236069   2.976   4.881   6.531 -0.0810  0.1424  0.5456
 4885TIP3    H136070   3.044   4.830   6.575  0.3280  1.1042  1.0429
 4885TIP3    H236071   2.895   4.835   6.552 -0.4472  2.4668  5.4953
 4886TIP3   OH236072   6.387   0.767  10.907 -0.4366 -0.3936 -0.1825
 4886TIP3    H136073   6.436   0.726  10.835  1.6081  1.4920  0.0091
 4886TIP3    H236074   6.433   0.849  10.923 -2.5174  0.5448  1.4574
 4887TIP3   OH236075   5.173   5.887  12.036 -0.4811  0.3480  0.2810
 4887TIP3    H136076   5.226   5.926  12.106 -0.9699 -2.6457  2.5438
 4887TIP3    H236077   5.105   5.952  12.018 -0.4719  1.1923  2.8057
 4888TIP3   OH236078   3.153   6.738   7.026  0.4419 -0.1443  0.0216
 4888TIP3    H136079   3.122   6.650   7.047  0.7086 -0.1269  0.5119
 4888TIP3    H236080   3.233   6.724   6.976 -0.0163 -0.1835 -0.7156
 4889TIP3   OH236081   2.296   1.188  15.164 -0.4975 -0.0215 -0.1723
 4889TIP3    H136082   2.289   1.093  15.156  0.4661 -0.0998 -0.1826
 4889TIP3    H236083   2.356   1.213  15.094  2.2659  0.1272  2.0917
 4890TIP3   OH236084   5.598   4.099  12.094  0.3320 -0.2265  0.4078
 4890TIP3    H136085   5.511   4.104  12.135  0.3896  1.6248  0.3709
 4890TIP3    H236086   5.646   4.174  12.130  0.8207  0.7067 -2.0360
 4891TIP3   OH236087   6.006   6.288  12.038 -0.6070 -0.3805 -0.0759
 4891TIP3    H136088   6.035   6.217  12.095 -1.8975 -0.9493 -0.0894
 4891TIP3    H236089   6.007   6.366  12.094 -0.9520 -0.7548  0.4527
 4892TIP3   OH236090   3.768   3.490   6.020  0.5713 -0.6474 -0.1417
 4892TIP3    H136091   3.757   3.561   6.083  0.8739  0.5850 -1.4185
 4892TIP3    H236092   3.709   3.422   6.051  1.2927 -0.4292  1.8996
 4893TIP3   OH236093   1.388   1.665  15.080 -0.0692  0.2691 -0.0307
 4893TIP3    H136094   1.429   1.594  15.130  1.1786 -0.0070 -1.3749
 4893TIP3    H236095   1.398   1.742  15.136  1.0133 -0.0939  0.3072
 4894TIP3   OH236096   5.894   1.956   5.369  0.5492 -0.2279  0.4137
 4894TIP3    H136097   5.892   2.027   5.304 -0.4925 -0.8221 -0.2231
 4894TIP3    H236098   5.902   1.876   5.316  3.1000 -0.5600  1.1655
 4895TIP3   OH236099   3.149   0.408  10.738  0.4269 -0.1068 -0.4663
 4895TIP3    H136100   3.181   0.473  10.801  1.7547 -1.8710  0.7720
 4895TIP3    H236101   3.055   0.427  10.730  0.1101 -0.0121  2.3737
 4896TIP3   OH236102   3.543   4.549   1.828 -0.5714 -0.7907  0.0667
 4896TIP3    H136103   3.571   4.459   1.812  0.1108 -0.4713 -0.6472
 4896TIP3    H236104   3.525   4.553   1.921  1.6793 -1.0651  0.5730
 4897TIP3   OH236105   1.515   6.728   2.766 -0.6565  0.2692  0.1081
 4897TIP3    H136106   1.597   6.684   2.747 -1.2933 -1.9489  2.0299
 4897TIP3    H236107   1.534   6.783   2.842 -1.2939 -1.7188  1.7915
 4898TIP3   OH236108   4.545   5.224   3.000  0.0719 -0.9178  0.2357
 4898TIP3    H136109   4.527   5.140   2.956 -0.7162 -0.4640 -0.3246
 4898TIP3    H236110   4.502   5.289   2.945 -0.1889 -0.2444  1.2269
 4899TIP3   OH236111   1.890   4.527  15.969 -0.4658  0.1749  0.3541
 4899TIP3    H136112   1.882   4.617  16.001  1.1865  0.7187 -0.6640
 4899TIP3    H236113   1.833   4.523  15.892 -0.2648  0.4410  0.1948
 4900TIP3   OH236114   4.030   4.555  12.207  0.6097  0.4740 -0.3776
 4900TIP3    H136115   3.975   4.515  12.139  0.6008 -1.0679  0.4962
 4900TIP3    H236116   4.113   4.509  12.200  0.2333 -0.5614  1.4186
 4901TIP3   OH236117   4.106   0.707  12.704  0.1550 -0.1168 -0.4402
 4901TIP3    H136118   4.054   0.629  12.684 -1.3559  0.7781 -0.1746
 4901TIP3    H236119   4.130   0.696  12.796  0.1624 -0.3865 -0.4727
 4902TIP3   OH236120   1.795   2.578  14.474 -0.5896  0.0638  0.6080
 4902TIP3    H136121   1.881   2.547  14.501 -1.2148 -1.1134  1.3475
 4902TIP3    H236122   1.737   2.556  14.547 -1.3233  1.9035  0.6443
 4903TIP3   OH236123   4.455   2.770   0.450  0.2186  0.2145  0.3253
 4903TIP3    H136124   4.364   2.792   0.470  0.4535  0.4108  1.2120
 4903TIP3    H236125   4.473   2.816   0.367 -0.4829  0.1759  0.1489
 4904TIP3   OH236126   4.712   4.495  15.237 -0.3154 -0.1072  0.0411
 4904TIP3    H136127   4.664   4.562  15.286  0.3561  0.3067  0.1573
 4904TIP3    H236128   4.777   4.544  15.186 -0.1850 -0.6285 -0.3055
 4905TIP3   OH236129   2.879   2.307   5.678  0.3784  0.1744  0.2117
 4905TIP3    H136130   2.904   2.282   5.589 -1.8154  1.3441 -0.8342
 4905TIP3    H236131   2.885   2.403   5.677 -0.1392  0.2215  1.1480
 4906TIP3   OH236132   6.702   4.193  11.811  1.0358  0.1676  0.0420
 4906TIP3    H136133   6.697   4.105  11.848 -1.5065  0.1975 -0.0693
 4906TIP3    H236134   6.673   4.182  11.720  2.1893  0.9021 -0.4363
 4907TIP3   OH236135   2.651   1.740   5.548  0.2713  0.5246  0.4287
 4907TIP3    H136136   2.741   1.743   5.580  0.7429 -0.1000 -0.7610
 4907TIP3    H236137   2.659   1.710   5.457 -1.0847  1.1348  0.0839
 4908TIP3   OH236138   0.794   4.895  13.541  0.0879  0.0102  0.7568
 4908TIP3    H136139   0.713   4.847  13.561 -0.0798 -1.1222 -2.0245
 4908TIP3    H236140   0.781   4.925  13.450  2.8248 -0.3446  0.1641
 4909TIP3   OH236141   3.267   3.159  14.167 -0.2923  0.1015  0.1941
 4909TIP3    H136142   3.232   3.086  14.117 -1.7562  1.0564 -0.2540
 4909TIP3    H236143   3.291   3.121  14.252  1.4486 -1.3757 -0.8900
 4910TIP3   OH236144   1.431   1.968   2.636 -0.1289  0.1528 -0.0158
 4910TIP3    H136145   1.429   1.967   2.540  1.8901  1.6479 -0.1291
 4910TIP3    H236146   1.445   2.059   2.659 -1.3403 -0.0542  1.7825
 4911TIP3   OH236147   0.668   4.958  13.320 -0.4588  0.2712 -0.3502
 4911TIP3    H136148   0.718   4.963  13.239 -0.7012  0.6242 -0.4793
 4911TIP3    H236149   0.597   4.898  13.301 -1.2341  1.2982 -0.7958
 4912TIP3   OH236150   1.720   5.464   0.632 -0.0067 -0.3571 -0.0507
 4912TIP3    H136151   1.633   5.426   0.643  0.3082 -1.0799  0.0061
 4912TIP3    H236152   1.744   5.495   0.720 -0.2786  0.0088 -0.1045
 4913TIP3   OH236153   4.658   5.266   4.219 -0.1836 -0.2012  0.6270
 4913TIP3    H136154   4.622   5.177   4.210 -1.0981  0.1183  0.9570
 4913TIP3    H236155   4.621   5.314   4.145  0.4489 -0.1345  0.3513
 4914TIP3   OH236156   4.226   1.460  17.345 -0.4335  0.3346 -0.1622
 4914TIP3    H136157   4.316   1.492  17.343 -0.2759  0.1805  1.9015
 4914TIP3    H236158   4.194   1.472  17.256  1.1955  1.6526 -0.6241
 4915TIP3   OH236159   1.315   2.727   6.085  0.1714  0.7748  0.6381
 4915TIP3    H136160   1.332   2.639   6.119  0.3349  0.1375 -0.9963
 4915TIP3    H236161   1.312   2.783   6.163  4.0690  0.0301  1.5008
 4916TIP3   OH236162   4.569   3.129   1.190 -0.1668  0.0868 -0.4674
 4916TIP3    H136163   4.507   3.147   1.119 -2.6286 -1.1215  1.2162
 4916TIP3    H236164   4.592   3.216   1.224 -1.5820  0.5847 -0.6868
 4917TIP3   OH236165   4.448   4.692   4.166 -0.0855  0.5684  0.0428
 4917TIP3    H136166   4.367   4.744   4.162 -0.9807 -0.8672 -1.2531
 4917TIP3    H236167   4.444   4.650   4.252 -2.3763 -1.9618 -1.1742
 4918TIP3   OH236168   5.775   0.142   4.025 -0.0928 -0.4135 -0.7056
 4918TIP3    H136169   5.850   0.094   3.991  0.8647  0.3501  0.2657
 4918TIP3    H236170   5.800   0.164   4.115 -2.3261 -1.9477  0.3894
 4919TIP3   OH236171   3.588   5.120   0.537 -0.0503  0.4631 -0.1953
 4919TIP3    H136172   3.661   5.058   0.532 -1.0400 -0.7350 -0.1949
 4919TIP3    H236173   3.556   5.127   0.447  1.0085  2.2254 -0.5020
 4920TIP3   OH236174   2.350   2.625   1.318 -0.5632  0.0685 -0.3261
 4920TIP3    H136175   2.414   2.673   1.266 -1.7605  1.5428 -0.5192
 4920TIP3    H236176   2.343   2.674   1.400 -2.8177  1.1081 -1.0648
 4921TIP3   OH236177   0.272   6.353   2.077  0.0073  0.0311 -0.7041
 4921TIP3    H136178   0.241   6.302   2.152 -0.0458  0.2842 -0.5534
 4921TIP3    H236179   0.368   6.342   2.079  0.0151  0.1137 -0.5422
 4922TIP3   OH236180   4.270   2.269   1.246  0.0515 -0.2814  0.3700
 4922TIP3    H136181   4.230   2.189   1.279 -1.3390 -0.0948 -0.7644
 4922TIP3    H236182   4.332   2.240   1.179 -1.3992 -0.3868 -0.9753
 4923TIP3   OH236183   0.251   0.451  11.436 -0.6775  0.0006  0.0787
 4923TIP3    H136184   0.199   0.423  11.511  0.1510 -0.1093  0.6343
 4923TIP3    H236185   0.287   0.536  11.463 -2.1190  1.0204 -1.0689
 4924TIP3   OH236186   6.017   5.158  16.353 -0.3417  0.2700  0.3630
 4924TIP3    H136187   5.983   5.240  16.386 -0.0681  0.5609 -0.0633
 4924TIP3    H236188   5.954   5.092  16.380 -0.5314  0.6141  0.7527
 4925TIP3   OH236189   2.002   6.477   0.888  0.7802 -0.5259 -0.0212
 4925TIP3    H136190   1.922   6.483   0.837  0.3256 -1.1749  0.5980
 4925TIP3    H236191   2.068   6.523   0.835 -0.2198  0.9558 -0.0489
 4926TIP3   OH236192   0.444   2.580  16.771  0.6496 -0.0731  0.3463
 4926TIP3    H136193   0.496   2.528  16.832  1.0401 -1.6296 -1.2297
 4926TIP3    H236194   0.358   2.537  16.770 -0.0046  1.1539  1.2706
 4927TIP3   OH236195   4.616   6.597  15.781 -0.1081 -0.2778 -0.6539
 4927TIP3    H136196   4.648   6.617  15.869 -3.1374 -0.7282  0.6688
 4927TIP3    H236197   4.644   6.507  15.764  0.7869 -0.0710 -0.3370
 4928TIP3   OH236198   2.505   0.322  11.313  0.7579 -0.7968 -0.4439
 4928TIP3    H136199   2.548   0.406  11.333 -1.9630  0.3781  1.1358
 4928TIP3    H236200   2.457   0.339  11.232 -1.1571 -0.1355  0.7411
 4929TIP3   OH236201   4.866   2.187   5.608  0.1501  0.2884 -0.1805
 4929TIP3    H136202   4.797   2.243   5.645 -0.6353 -0.1804 -0.9056
 4929TIP3    H236203   4.836   2.098   5.625  1.0524  0.0783  0.3347
 4930TIP3   OH236204   2.443   0.187  13.396  1.0735  0.1991 -0.7364
 4930TIP3    H136205   2.359   0.148  13.372  0.6891 -0.3967  1.3808
 4930TIP3    H236206   2.458   0.254  13.329 -2.1207  1.7789 -0.0606
 4931TIP3   OH236207   1.975   2.633   5.436  0.4847 -0.1813  0.2816
 4931TIP3    H136208   1.896   2.630   5.490  0.5150  1.5128  0.4918
 4931TIP3    H236209   1.953   2.582   5.359 -0.5194 -0.4355  0.7168
 4932TIP3   OH236210   6.106   2.361   2.403  0.0953  0.5588 -0.0611
 4932TIP3    H136211   6.044   2.398   2.467  0.4720 -1.2897  1.4586
 4932TIP3    H236212   6.191   2.395   2.431  0.1860  0.2296  0.0693
 4933TIP3   OH236213   3.691   0.011  14.546 -0.0706 -0.0971 -0.2844
 4933TIP3    H136214   3.694  -0.078  14.583 -1.8185 -0.1683 -0.2309
 4933TIP3    H236215   3.687   0.068  14.622 -1.1087 -0.1092 -0.3133
 4934TIP3   OH236216   3.604   1.562   2.448  0.6159  0.8382 -0.4172
 4934TIP3    H136217   3.692   1.585   2.478  0.6703 -1.3348  1.2864
 4934TIP3    H236218   3.547   1.622   2.497  1.0359  0.8530  0.0731
 4935TIP3   OH236219   4.480   4.233  14.056 -0.0772  0.3915 -0.9515
 4935TIP3    H136220   4.408   4.280  14.014 -0.1270 -0.3921 -1.7545
 4935TIP3    H236221   4.557   4.289  14.041 -0.4220  1.0065 -0.4791
 4936TIP3   OH236222   6.013   1.707  15.629  0.2895  0.2493  0.0960
 4936TIP3    H136223   6.007   1.690  15.535 -0.4680  2.0380 -0.2222
 4936TIP3    H236224   5.924   1.696  15.662  0.3846  0.4468  0.4373
 4937TIP3   OH236225   2.191   2.070   0.232 -0.0817  0.1834 -0.3913
 4937TIP3    H136226   2.176   2.164   0.239 -0.1432  0.1834 -0.5344
 4937TIP3    H236227   2.147   2.044   0.151 -0.1481  0.0154 -0.3026
 4938TIP3   OH236228   0.552   5.678  11.114 -0.0477  0.6634  0.1065
 4938TIP3    H136229   0.637   5.634  11.104 -2.1964 -4.1097 -0.1013
 4938TIP3    H236230   0.522   5.693  11.025  0.7083  2.8772  0.1784
 4939TIP3   OH236231   0.642   4.527   2.766 -0.4133  0.6773 -0.0287
 4939TIP3    H136232   0.683   4.444   2.789 -0.4215  0.3519 -1.1698
 4939TIP3    H236233   0.631   4.524   2.672 -0.5605  1.9135 -0.0730
 4940TIP3   OH236234   6.219   1.635   4.391 -0.1178 -0.1623 -0.1784
 4940TIP3    H136235   6.155   1.596   4.331  1.0609 -1.9748 -0.3448
 4940TIP3    H236236   6.304   1.613   4.353  0.6391  0.1084  1.2797
 4941TIP3   OH236237   1.827   6.662   2.442  0.4116  0.7473  0.2666
 4941TIP3    H136238   1.921   6.675   2.425  0.3608  1.5297  0.5269
 4941TIP3    H236239   1.786   6.743   2.412 -0.1014  0.6739  0.7551
 4942TIP3   OH236240   2.786   1.700  12.758 -0.7288  0.1028 -0.2053
 4942TIP3    H136241   2.862   1.642  12.749  0.2219  1.2782 -0.0646
 4942TIP3    H236242   2.718   1.645  12.796  0.5422 -0.6121  1.1412
 4943TIP3   OH236243   5.593   4.293   0.831 -0.0563 -0.0944 -0.6353
 4943TIP3    H136244   5.619   4.256   0.746  0.3498 -2.3616  0.4135
 4943TIP3    H236245   5.511   4.338   0.812  0.3420 -0.0014 -2.3544
 4944TIP3   OH236246   4.611   2.643  14.308  0.0053  0.7220  0.1068
 4944TIP3    H136247   4.671   2.588  14.257  0.1041 -0.3700  1.3672
 4944TIP3    H236248   4.608   2.602  14.394 -0.3385  2.3988  0.9296
 4945TIP3   OH236249   4.905   5.704   1.930 -0.0745 -0.0221 -0.5647
 4945TIP3    H136250   4.963   5.643   1.973 -2.5569 -0.2833  2.8098
 4945TIP3    H236251   4.873   5.657   1.852  0.5185 -1.7286  0.1913
 4946TIP3   OH236252   2.022   5.440   3.304  0.2197 -0.0530 -0.1335
 4946TIP3    H136253   1.989   5.356   3.273 -0.4441  0.2573 -0.2929
 4946TIP3    H236254   1.947   5.480   3.348  0.7804  0.0753  0.7362
 4947TIP3   OH236255   6.196   1.015  16.711  0.0350  0.0569 -0.1095
 4947TIP3    H136256   6.135   0.954  16.753 -1.2915  1.3462 -0.0768
 4947TIP3    H236257   6.170   1.015  16.619  0.1547  0.4121 -0.1448
 4948TIP3   OH236258   2.450   0.122  12.699  0.1644 -0.0694  0.4342
 4948TIP3    H136259   2.358   0.096  12.696 -0.5843  2.2397  0.8203
 4948TIP3    H236260   2.472   0.144  12.609 -0.5466  1.9199  0.6897
 4949TIP3   OH236261   2.226   2.099  10.781 -0.2356  0.9451  0.7471
 4949TIP3    H136262   2.315   2.103  10.746 -0.1693  1.6595  0.9695
 4949TIP3    H236263   2.230   2.030  10.847 -0.1778  0.1050 -0.1190
 4950TIP3   OH236264   0.374   2.204  13.225  0.3332  0.2050  0.0369
 4950TIP3    H136265   0.451   2.251  13.255  1.7725 -0.5953 -2.1336
 4950TIP3    H236266   0.407   2.117  13.200 -1.2725 -0.1974 -0.8575
 4951TIP3   OH236267   4.800   2.329  12.636  0.4173 -0.3525  0.4566
 4951TIP3    H136268   4.736   2.373  12.691 -0.0545  0.7145 -0.8734
 4951TIP3    H236269   4.823   2.250  12.684 -1.2254 -0.3131  1.3790
 4952TIP3   OH236270   2.551   3.273  13.019  0.1461 -0.0587  0.4694
 4952TIP3    H136271   2.464   3.294  12.986  0.7313  1.2474 -0.2975
 4952TIP3    H236272   2.611   3.303  12.951  1.3568  1.8696  2.2503
 4953TIP3   OH236273   2.494   2.166   3.394 -0.7786  0.1173 -0.4410
 4953TIP3    H136274   2.508   2.260   3.400 -0.4685  0.2248 -2.1783
 4953TIP3    H236275   2.547   2.129   3.464  0.1747  1.1543 -0.5824
 4954TIP3   OH236276   3.782   1.671   3.144  0.1191  0.0915  0.1989
 4954TIP3    H136277   3.822   1.698   3.061  0.4171  2.0955  0.9483
 4954TIP3    H236278   3.846   1.698   3.210  0.2298 -2.1359  1.0882
 4955TIP3   OH236279   4.122   0.561   4.158 -0.5501 -0.4325 -0.5102
 4955TIP3    H136280   4.163   0.633   4.110  0.3019 -0.4149  0.2083
 4955TIP3    H236281   4.029   0.583   4.160 -0.3955  0.2778 -0.9283
 4956TIP3   OH236282   5.892   5.995   3.293 -0.4241  0.4428  0.3279
 4956TIP3    H136283   5.859   6.053   3.224 -2.4173  0.4647  1.2226
 4956TIP3    H236284   5.952   5.936   3.248 -0.7087  1.2495 -1.1836
 4957TIP3   OH236285   4.644   6.021  16.795  0.1294  0.0544 -0.2407
 4957TIP3    H136286   4.674   5.995  16.707  0.4374  0.2124 -0.1813
 4957TIP3    H236287   4.710   6.083  16.825  0.0302 -0.0130  0.1131
 4958TIP3   OH236288   4.415   6.523  16.451  0.3195 -0.1240  0.1643
 4958TIP3    H136289   4.353   6.548  16.519 -0.0174  0.0224 -0.1922
 4958TIP3    H236290   4.360   6.497  16.377  0.6801 -0.4359  0.0029
 4959TIP3   OH236291   1.888   3.988  17.222  0.0758 -0.2187 -0.5653
 4959TIP3    H136292   1.800   3.953  17.206  0.3342 -0.8346 -0.6443
 4959TIP3    H236293   1.903   4.048  17.150  0.3993 -1.4038 -1.5073
 4960TIP3   OH236294   0.406   5.116   1.058  0.0265 -0.2308 -0.2658
 4960TIP3    H136295   0.334   5.116   1.122 -1.1292 -1.5530 -1.5225
 4960TIP3    H236296   0.380   5.183   0.994  0.4705  0.0537 -0.1538
 4961TIP3   OH236297   3.899   1.570  12.467 -0.5729  0.4079 -0.1980
 4961TIP3    H136298   3.906   1.644  12.528 -1.0535 -0.0749  0.4644
 4961TIP3    H236299   3.805   1.565  12.447 -0.3484  0.9148 -1.4411
 4962TIP3   OH236300   3.159   3.839  11.234  0.0094 -0.0904  0.6531
 4962TIP3    H136301   3.161   3.934  11.250 -1.0518  0.1581 -0.5777
 4962TIP3    H236302   3.196   3.801  11.314 -0.8552  1.3034  1.7698
 4963TIP3   OH236303   3.609   4.042  13.341  0.0829  0.0375 -0.4046
 4963TIP3    H136304   3.699   4.036  13.374 -0.1982  0.2702  0.4344
 4963TIP3    H236305   3.564   3.968  13.381 -0.1772  0.1095 -0.5626
 4964TIP3   OH236306   6.525   0.702  17.043  0.4988 -0.0557 -0.8317
 4964TIP3    H136307   6.447   0.746  17.010 -0.5839 -0.0043  1.6008
 4964TIP3    H236308   6.513   0.610  17.019 -0.3219 -0.0415 -0.5139
 4965TIP3   OH236309   0.032   4.585   1.848 -0.1955  0.1312 -0.3206
 4965TIP3    H136310   0.080   4.567   1.928 -2.7659 -1.8052  0.9502
 4965TIP3    H236311   0.072   4.528   1.782 -0.0549 -0.6465  0.4208
 4966TIP3   OH236312   3.759   2.734  11.783  0.3126  0.2102  0.0341
 4966TIP3    H136313   3.749   2.722  11.877 -0.5264  1.0680  0.0691
 4966TIP3    H236314   3.684   2.688  11.744  1.7392 -1.9098 -0.3824
 4967TIP3   OH236315   5.928   1.233   3.118  0.3733 -0.5072  0.3406
 4967TIP3    H136316   5.886   1.318   3.102  1.1719 -0.3111 -0.8161
 4967TIP3    H236317   5.912   1.183   3.037  2.0595 -0.5353 -0.0102
 4968TIP3   OH236318   3.048   6.277  12.850  0.9538 -0.4176  1.4659
 4968TIP3    H136319   2.969   6.256  12.800  1.1674  0.0018  0.9456
 4968TIP3    H236320   3.015   6.305  12.935  0.6142 -1.9158  1.8755
 4969TIP3   OH236321   1.233   5.657   5.327  0.5348  0.0962  0.1227
 4969TIP3    H136322   1.269   5.744   5.341  0.8817  0.0646 -0.5446
 4969TIP3    H236323   1.191   5.635   5.411 -2.0082  2.0380 -0.4949
 4970TIP3   OH236324   2.490   0.336  17.369  0.6115  0.2904  0.7714
 4970TIP3    H136325   2.513   0.271  17.436  0.6222 -2.6723 -1.8250
 4970TIP3    H236326   2.567   0.338  17.311 -0.1371  1.2225 -0.2317
 4971TIP3   OH236327   5.087   3.321  12.461  0.0246  0.0191 -0.0913
 4971TIP3    H136328   5.094   3.256  12.531  1.8154  0.1491 -0.1080
 4971TIP3    H236329   5.062   3.402  12.506 -1.7567 -0.5282 -0.0130
 4972TIP3   OH236330   0.475   0.157  11.963  0.0568 -0.0053 -0.4649
 4972TIP3    H136331   0.570   0.149  11.970  0.1296  1.3648  0.7092
 4972TIP3    H236332   0.451   0.213  12.037 -1.5365  0.5310 -1.3466
 4973TIP3   OH236333   0.029   3.046   1.593 -0.4222 -0.4564 -0.4456
 4973TIP3    H136334  -0.029   3.059   1.668  1.1679 -1.2461  0.9772
 4973TIP3    H236335  -0.023   2.994   1.531 -0.8226 -2.3891  1.3894
 4974TIP3   OH236336   1.151   2.059   4.209  0.1670 -0.5847  0.7258
 4974TIP3    H136337   1.146   2.022   4.297  1.4255 -1.5128  0.4360
 4974TIP3    H236338   1.120   2.149   4.219  2.6743  0.1724  2.6506
 4975TIP3   OH236339   5.133   2.835  12.963 -1.0116  0.2654 -0.7725
 4975TIP3    H136340   5.168   2.918  12.996 -0.4271 -0.4082  0.3634
 4975TIP3    H236341   5.064   2.812  13.026 -0.8460 -0.3431 -0.8101
 4976TIP3   OH236342   2.337   2.787  16.264 -0.2595  0.5364  0.1031
 4976TIP3    H136343   2.406   2.812  16.202 -0.3940 -2.2174 -1.2772
 4976TIP3    H236344   2.371   2.814  16.350  1.8059  0.6824 -0.7129
 4977TIP3   OH236345   4.892   6.318   4.561 -0.6511  0.0815  0.4636
 4977TIP3    H136346   4.905   6.366   4.479 -1.2021 -0.1283  0.2461
 4977TIP3    H236347   4.807   6.347   4.592 -2.0064 -2.2278 -0.7414
 4978TIP3   OH236348   2.108   6.128  16.122  0.2847  0.1631 -0.3139
 4978TIP3    H136349   2.029   6.098  16.077  0.1751  0.5436 -0.3776
 4978TIP3    H236350   2.139   6.051  16.170 -0.7004  0.2882  0.5554
 4979TIP3   OH236351   5.124   3.333   4.677  0.1819 -0.6452 -0.7517
 4979TIP3    H136352   5.077   3.372   4.750  0.5820 -0.5934 -0.5201
 4979TIP3    H236353   5.171   3.259   4.715  2.1007  0.6399 -0.5026
 4980TIP3   OH236354   3.242   3.589   2.462  0.2949 -0.0099 -0.0744
 4980TIP3    H136355   3.167   3.606   2.520  0.9437 -0.1732  0.8268
 4980TIP3    H236356   3.205   3.596   2.374 -0.5450  1.0850  0.3260
 4981TIP3   OH236357   3.467   2.652  12.979  0.2221 -0.0765  0.6752
 4981TIP3    H136358   3.435   2.582  13.036 -2.1300  0.6019  0.2695
 4981TIP3    H236359   3.480   2.726  13.038 -0.4673  0.0988  0.6097
 4982TIP3   OH236360   1.763   1.955  14.441  0.1497 -0.1745  0.2540
 4982TIP3    H136361   1.750   1.946  14.535  2.5085  0.5310  0.7252
 4982TIP3    H236362   1.747   1.868  14.405 -0.3978 -0.5329  1.3403
 4983TIP3   OH236363   6.719   0.973   2.985  0.6686 -0.1232  0.3695
 4983TIP3    H136364   6.724   1.049   2.927 -1.4341 -0.8388 -0.8506
 4983TIP3    H236365   6.735   0.898   2.928  0.5823 -0.7314  1.1244
 4984TIP3   OH236366   4.815   0.056  12.634 -0.2396 -0.8549  0.0993
 4984TIP3    H136367   4.850   0.144  12.625 -0.2567 -0.2837  3.8956
 4984TIP3    H236368   4.880  -0.001  12.593  0.4072  0.7904 -1.2511
 4985TIP3   OH236369   2.573   6.681   6.200 -0.1319 -0.1189 -0.2904
 4985TIP3    H136370   2.655   6.711   6.161  0.0552  0.4096  0.4773
 4985TIP3    H236371   2.534   6.761   6.236  0.5965 -0.8125  2.2398
 4986TIP3   OH236372   3.508   6.243   1.031 -0.3449 -0.0918  0.2357
 4986TIP3    H136373   3.529   6.184   0.958 -0.6060 -0.5102  0.4965
 4986TIP3    H236374   3.503   6.186   1.107 -2.7582 -0.1026  0.1440
 4987TIP3   OH236375   4.447   3.073  11.954  0.3789 -0.6399 -0.0548
 4987TIP3    H136376   4.369   3.057  11.900  0.4729  1.2341 -0.8372
 4987TIP3    H236377   4.464   3.167  11.944  0.6577 -0.2612  2.9308
 4988TIP3   OH236378   4.699   2.300   2.955  0.5555 -0.0602  0.5245
 4988TIP3    H136379   4.775   2.351   2.982  1.2289 -0.9458  0.3732
 4988TIP3    H236380   4.686   2.237   3.026 -0.7385  0.7851  1.0781
 4989TIP3   OH236381   2.771   2.526   6.105  0.5396 -0.0541  0.0734
 4989TIP3    H136382   2.823   2.597   6.068  0.8037  0.5834  1.6078
 4989TIP3    H236383   2.815   2.446   6.076  1.1776  0.4361 -0.3403
 4990TIP3   OH236384   5.479   1.852   2.176  0.1302  0.1938  0.5176
 4990TIP3    H136385   5.511   1.938   2.203  0.1497  0.3807 -0.0802
 4990TIP3    H236386   5.409   1.872   2.114  1.1140 -0.2162 -0.7589
 4991TIP3   OH236387   0.153   1.766   5.795 -0.2451  0.8474 -0.3441
 4991TIP3    H136388   0.151   1.708   5.718 -0.3953  1.5285 -0.8675
 4991TIP3    H236389   0.099   1.721   5.860 -1.2607  0.8929 -1.1204
 4992TIP3   OH236390   3.330   2.724   5.624  0.4830 -0.0643 -0.5879
 4992TIP3    H136391   3.318   2.818   5.629  1.2471  0.0678 -1.0553
 4992TIP3    H236392   3.255   2.687   5.671  0.6401  0.7832  0.3471
 4993TIP3   OH236393   0.826   1.067  13.118 -0.0783  0.3386  0.1944
 4993TIP3    H136394   0.766   1.140  13.107 -1.7991 -1.0747 -0.3076
 4993TIP3    H236395   0.779   1.005  13.175  1.4116 -0.2917  0.8051
 4994TIP3   OH236396   5.930   0.154  17.297  0.4154 -0.5257 -0.3895
 4994TIP3    H136397   5.854   0.129  17.350 -0.7121  0.0156 -1.6959
 4994TIP3    H236398   6.004   0.112  17.341 -0.0147  1.9777  3.1781
 4995TIP3   OH236399   4.185   4.793   2.505 -0.0594 -0.1531  0.0908
 4995TIP3    H136400   4.156   4.884   2.497 -0.9399 -0.3956  0.3626
 4995TIP3    H236401   4.234   4.776   2.425 -1.0013  0.1682 -0.5667
 4996TIP3   OH236402   0.051   6.355   3.919 -0.2423 -0.2278  0.3165
 4996TIP3    H136403   0.065   6.341   4.013 -1.0044 -4.2111  0.0212
 4996TIP3    H236404   0.138   6.372   3.884  0.2828 -0.2030  1.5868
 4997TIP3   OH236405   0.503   5.765   4.672 -0.5403  0.2271 -0.5404
 4997TIP3    H136406   0.526   5.734   4.585 -1.5854  0.7372 -1.0245
 4997TIP3    H236407   0.493   5.686   4.725  0.9907 -0.0435 -0.6332
 4998TIP3   OH236408   0.482   6.255  13.333 -0.5415 -0.0838  0.5306
 4998TIP3    H136409   0.541   6.256  13.258 -0.4463  3.4123  0.4850
 4998TIP3    H236410   0.395   6.269  13.296 -0.9430 -1.4618  0.8864
 4999TIP3   OH236411   4.047   6.103  13.023  0.5136 -0.6701 -0.4876
 4999TIP3    H136412   4.124   6.145  12.986  0.0951 -2.1602 -3.3561
 4999TIP3    H236413   3.973   6.154  12.990  0.1549  0.2852  1.6061
 5000TIP3   OH236414   0.419   2.893   2.487 -0.5804  0.0216 -0.1055
 5000TIP3    H136415   0.400   2.974   2.440  1.2123  1.5353  1.6058
 5000TIP3    H236416   0.425   2.919   2.579 -1.4683 -2.3631  0.7165
 5001TIP3   OH236417   3.053   3.409   4.840 -0.3616 -0.3268 -0.0738
 5001TIP3    H136418   3.068   3.488   4.788 -1.4178  0.0550  0.1693
 5001TIP3    H236419   2.994   3.356   4.787 -0.6991 -0.3568  0.3237
 5002TIP3   OH236420   0.199   2.318  17.331 -0.8457  0.0627  0.6259
 5002TIP3    H136421   0.121   2.289  17.283 -0.4534 -0.5395  0.3446
 5002TIP3    H236422   0.168   2.329  17.421 -1.5880  1.2064  0.2535
 5003TIP3   OH236423   6.199   2.662  12.167  0.1621 -0.2778  0.1890
 5003TIP3    H136424   6.198   2.757  12.181  0.7760 -0.3776  0.9817
 5003TIP3    H236425   6.149   2.627  12.241 -0.3154 -0.5512 -0.2666
 5004TIP3   OH236426   3.864   0.165   1.583 -0.3767  0.2468 -0.4134
 5004TIP3    H136427   3.875   0.100   1.513  1.5777  0.5481 -0.4459
 5004TIP3    H236428   3.924   0.135   1.652  0.5162  1.9444 -0.3980
 5005TIP3   OH236429   5.511   1.088   1.222  0.1391 -0.2889 -0.0853
 5005TIP3    H136430   5.467   1.171   1.244  1.0453 -0.1738  1.4290
 5005TIP3    H236431   5.604   1.108   1.229  0.4397 -0.8939 -1.8954
 5006TIP3   OH236432   3.262   3.958  16.008  0.4773 -0.8119  0.2172
 5006TIP3    H136433   3.187   4.016  15.992  2.3622  2.1329  1.0908
 5006TIP3    H236434   3.273   3.909  15.926 -0.9183  0.5135 -0.8225
 5007TIP3   OH236435   1.569   3.514  16.961 -0.2029 -0.2043  0.2680
 5007TIP3    H136436   1.489   3.462  16.976 -0.4932  0.4106  0.9464
 5007TIP3    H236437   1.634   3.474  17.019 -0.4301  0.1768  0.8004
 5008TIP3   OH236438   4.944   5.787  16.878  0.7544 -0.4135 -0.2089
 5008TIP3    H136439   4.968   5.878  16.857 -0.2241  0.3550  1.8150
 5008TIP3    H236440   4.870   5.768  16.821 -0.2171  0.7295  0.6410
 5009TIP3   OH236441   4.750   2.016  11.279 -0.1451  0.5820 -0.4004
 5009TIP3    H136442   4.794   2.093  11.243 -3.6467  2.8608 -0.3420
 5009TIP3    H236443   4.731   2.041  11.370 -0.6104 -0.6981 -0.1334
 5010TIP3   OH236444   0.915   4.274  15.540 -0.0837 -0.6027 -0.0857
 5010TIP3    H136445   0.866   4.273  15.458 -0.5508  0.1441  0.1724
 5010TIP3    H236446   0.852   4.245  15.606 -0.3365  0.7268  0.3069
 5011TIP3   OH236447   0.573   1.764  11.374  0.1472  0.0972  0.1215
 5011TIP3    H136448   0.546   1.691  11.428 -0.1674 -2.5201 -3.2425
 5011TIP3    H236449   0.586   1.727  11.287  3.1033  3.4550 -1.1624
 5012TIP3   OH236450   4.174   2.324  15.392  0.4932 -0.3140 -0.4273
 5012TIP3    H136451   4.124   2.400  15.360  0.0645 -0.5225 -0.2561
 5012TIP3    H236452   4.265   2.347  15.374  0.3945  0.3880 -0.0883
 5013TIP3   OH236453   0.640   4.553   6.281  0.2540 -0.0702  0.8227
 5013TIP3    H136454   0.611   4.575   6.370 -0.3852  1.1942  0.3315
 5013TIP3    H236455   0.711   4.614   6.262 -0.0923  0.1611  0.2152
 5014TIP3   OH236456   5.421   3.447   0.167  0.3202 -0.3246 -0.2103
 5014TIP3    H136457   5.422   3.472   0.075  1.9329 -0.1495 -0.1727
 5014TIP3    H236458   5.484   3.375   0.173  1.0185  0.3456  0.9072
 5015TIP3   OH236459   4.525   1.528   1.377 -0.9212  0.0746 -0.3108
 5015TIP3    H136460   4.582   1.595   1.339 -0.7199 -0.1925 -0.4861
 5015TIP3    H236461   4.438   1.547   1.341 -0.9545  0.5164 -0.0006
 5016TIP3   OH236462   2.611   3.325  13.440  0.0092 -0.2769  0.1014
 5016TIP3    H136463   2.674   3.397  13.448 -0.4378  0.3933 -1.8502
 5016TIP3    H236464   2.537   3.364  13.394 -1.1077 -1.5134  0.7896
 5017TIP3   OH236465   6.280   3.331   4.919  0.2970 -0.1457 -0.3689
 5017TIP3    H136466   6.290   3.249   4.966 -0.1059  0.4825  0.8532
 5017TIP3    H236467   6.192   3.327   4.881  0.6047 -0.6306 -1.0555
 5018TIP3   OH236468   2.587   0.804  11.872  0.5168 -0.3805  0.1155
 5018TIP3    H136469   2.623   0.747  11.804 -1.0225  0.1935 -1.2308
 5018TIP3    H236470   2.650   0.875  11.879  0.8849 -0.6477 -0.4191
 5019TIP3   OH236471   4.323   1.656  13.955  0.5624 -0.4550 -0.2695
 5019TIP3    H136472   4.327   1.582  13.895 -0.8016  0.5871 -1.7357
 5019TIP3    H236473   4.379   1.631  14.029  0.9130 -2.4969 -1.1754
 5020TIP3   OH236474   2.775   0.265   1.717  0.1695 -0.1702  0.2059
 5020TIP3    H136475   2.868   0.288   1.720  1.3867 -4.3320  1.3520
 5020TIP3    H236476   2.745   0.279   1.807  0.0115 -0.0174  0.1298
 5021TIP3   OH236477   3.554   1.244   4.569 -0.2645  0.3471  0.6278
 5021TIP3    H136478   3.528   1.186   4.640 -0.3211  0.7885  0.9728
 5021TIP3    H236479   3.649   1.234   4.563 -0.4020 -0.6949 -0.1322
 5022TIP3   OH236480   0.596   1.016  16.483 -0.1715  0.1838  0.8635
 5022TIP3    H136481   0.568   1.107  16.477  0.3012  0.5589  3.3329
 5022TIP3    H236482   0.669   1.009  16.422 -1.8328  0.7017 -1.3159
 5023TIP3   OH236483   0.754   4.148  12.974 -0.6213  0.1801 -0.1966
 5023TIP3    H136484   0.823   4.102  12.924  1.3541  0.6081  1.9519
 5023TIP3    H236485   0.737   4.228  12.924  3.4411  2.0894  1.0511
 5024TIP3   OH236486   0.855   2.659  12.774 -0.4149 -0.2706  0.9191
 5024TIP3    H136487   0.950   2.654  12.778 -0.2723 -1.0188 -1.7983
 5024TIP3    H236488   0.825   2.609  12.850  1.3438 -0.3124  1.6149
 5025TIP3   OH236489   2.398   4.342   4.020  0.0368  0.5365 -0.7913
 5025TIP3    H136490   2.393   4.342   3.924 -0.2950 -0.5043 -0.7845
 5025TIP3    H236491   2.477   4.290   4.040  0.7237  1.6495 -0.5086
 5026TIP3   OH236492   0.488   2.507   4.530 -0.2628  0.4816  0.0767
 5026TIP3    H136493   0.412   2.476   4.481  0.3254 -1.5108  0.3723
 5026TIP3    H236494   0.510   2.436   4.590  2.6652  0.3471 -0.9412
 5027TIP3   OH236495   6.550   0.421   0.629  0.0072  0.6502 -0.3283
 5027TIP3    H136496   6.496   0.499   0.618 -0.2585  0.4043 -0.8097
 5027TIP3    H236497   6.573   0.395   0.539  1.5539  1.1838 -0.1233
 5028TIP3   OH236498   0.454   5.266  15.743 -0.6676 -0.5848  0.5337
 5028TIP3    H136499   0.484   5.217  15.667 -0.1350 -0.3397  0.5821
 5028TIP3    H236500   0.529   5.320  15.768 -1.7104  1.5243 -0.5490
 5029TIP3   OH236501   0.376   2.641   0.901  0.1414 -0.1940  0.0538
 5029TIP3    H136502   0.345   2.707   0.963 -0.4598  1.3571 -1.7805
 5029TIP3    H236503   0.403   2.567   0.955 -0.0566  1.1917  2.1435
 5030TIP3   OH236504   2.843   3.772   3.285 -0.3636 -0.2170 -0.4660
 5030TIP3    H136505   2.757   3.812   3.294 -0.0289  0.3355  0.4280
 5030TIP3    H236506   2.866   3.783   3.193  0.0709  2.4197 -0.1097
 5031TIP3   OH236507   1.386   6.294  12.874 -0.2690  0.6034  0.1198
 5031TIP3    H136508   1.463   6.337  12.837  0.2936 -0.4167  0.0749
 5031TIP3    H236509   1.366   6.344  12.953  2.3500 -0.9153  1.8878
 5032TIP3   OH236510   0.541   1.096   2.390  0.0093  0.7111 -0.4066
 5032TIP3    H136511   0.636   1.081   2.387  0.2294  0.9215  2.8213
 5032TIP3    H236512   0.503   1.009   2.374  0.8108  0.2433  0.1671
 5033TIP3   OH236513   6.293   2.932   0.452 -0.4570 -0.1892  0.7397
 5033TIP3    H136514   6.280   2.859   0.513 -1.0835  1.3029  2.4792
 5033TIP3    H236515   6.356   2.898   0.388  0.4634 -1.7443  2.3654
 5034TIP3   OH236516   5.626   1.478  11.648  0.1422 -0.3535 -0.0490
 5034TIP3    H136517   5.698   1.484  11.585  0.4509  0.7424  0.3883
 5034TIP3    H236518   5.656   1.416  11.714  0.4554 -0.3228 -0.1640
 5035TIP3   OH236519   1.383   3.420  15.013  0.5279 -0.1312 -0.3278
 5035TIP3    H136520   1.375   3.486  15.082 -0.1291  2.0382 -2.3457
 5035TIP3    H236521   1.471   3.385  15.024  0.4662  0.1852  1.5444
 5036TIP3   OH236522   6.689   5.648   0.795 -0.0190 -0.8046 -0.3890
 5036TIP3    H136523   6.628   5.634   0.722  0.4380 -0.6202 -0.8159
 5036TIP3    H236524   6.679   5.570   0.849  0.0414 -1.2144 -0.9546
 5037TIP3   OH236525   4.640   0.251   3.335  0.0708 -0.5834  0.4020
 5037TIP3    H136526   4.677   0.232   3.420 -0.6446 -0.0561  0.8435
 5037TIP3    H236527   4.593   0.171   3.311  0.8671 -0.9914  0.1645
 5038TIP3   OH236528   1.700   6.570   3.922  0.2119 -0.0200  0.4475
 5038TIP3    H136529   1.685   6.633   3.851 -0.1629  0.1348  0.6652
 5038TIP3    H236530   1.616   6.527   3.934 -0.3065  1.3508  2.1630
 5039TIP3   OH236531   4.496   3.170  12.663 -0.0321  0.4571 -0.1293
 5039TIP3    H136532   4.561   3.193  12.596 -0.8175 -2.1785 -1.9357
 5039TIP3    H236533   4.473   3.079  12.644 -0.4280 -0.3924  3.7088
 5040TIP3   OH236534   1.413   5.811   0.991 -0.2345  0.1528 -0.1213
 5040TIP3    H136535   1.341   5.868   0.964 -1.3463 -0.7561  0.8184
 5040TIP3    H236536   1.457   5.859   1.061  0.1482  0.7542 -0.7635
 5041TIP3   OH236537   6.052   5.338  12.136  0.5411  0.0953  0.2473
 5041TIP3    H136538   6.000   5.320  12.214  1.5820 -0.3487  0.8496
 5041TIP3    H236539   6.114   5.406  12.163  0.6554  0.2247 -0.3077
 5042TIP3   OH236540   5.868   0.644   0.104 -0.2740  0.1522 -0.4618
 5042TIP3    H136541   5.925   0.569   0.090 -0.0861 -0.2616  2.1385
 5042TIP3    H236542   5.912   0.697   0.170 -2.4220  0.2984  0.9541
 5043TIP3   OH236543   0.389   3.124   4.239  0.0587  0.1035  1.0593
 5043TIP3    H136544   0.453   3.175   4.190 -1.2036 -0.4497 -1.3244
 5043TIP3    H236545   0.328   3.189   4.274  2.1023  0.6891  3.8563
 5044TIP3   OH236546   4.258   1.866  10.383 -0.6623 -0.1962 -0.3989
 5044TIP3    H136547   4.233   1.843  10.473 -0.3415 -0.4432 -0.3741
 5044TIP3    H236548   4.342   1.823  10.369  0.3155  1.5197 -0.1058
 5045TIP3   OH236549   0.692   0.693   0.070  0.1895 -0.4021 -0.2007
 5045TIP3    H136550   0.606   0.653   0.086  0.6855 -1.6026 -0.3895
 5045TIP3    H236551   0.673   0.782   0.041 -1.0084 -0.7502 -0.5289
 5046TIP3   OH236552   4.333   2.883   0.855 -0.5294 -0.0533 -0.0942
 5046TIP3    H136553   4.269   2.817   0.880 -0.2257 -0.0500  0.7429
 5046TIP3    H236554   4.308   2.910   0.767 -2.1061  0.4685  0.4835
 5047TIP3   OH236555   6.632   6.454  14.710 -0.1314 -0.1240  0.1378
 5047TIP3    H136556   6.574   6.379  14.699 -0.9797  0.4687  0.4959
 5047TIP3    H236557   6.667   6.444  14.799 -1.4686  0.7232  0.7916
 5048TIP3   OH236558   2.380   4.488  16.043  0.0106  0.7001 -0.0174
 5048TIP3    H136559   2.386   4.533  15.959 -0.4221  0.8670  0.0452
 5048TIP3    H236560   2.438   4.537  16.101  0.0892  0.7533 -0.1409
 5049TIP3   OH236561   4.117   5.032   5.165  0.0557 -0.1169 -0.2606
 5049TIP3    H136562   4.071   5.032   5.249  2.1618 -0.7959  0.9774
 5049TIP3    H236563   4.070   4.968   5.112  1.2825 -3.2306  2.0738
 5050TIP3   OH236564   2.976   6.216  11.019 -0.0164  0.1534 -0.2874
 5050TIP3    H136565   3.051   6.275  11.019 -0.2772  0.5107 -1.7030
 5050TIP3    H236566   2.974   6.179  10.931 -0.5930 -1.0478  0.2028
 5051TIP3   OH236567   2.888   3.297  15.436  0.5800  0.3405  0.3533
 5051TIP3    H136568   2.974   3.258  15.450  1.0924  1.3593  0.1705
 5051TIP3    H236569   2.831   3.224  15.411  2.2296  0.0749 -3.2967
 5052TIP3   OH236570   0.862   0.113   6.672 -0.3566  0.4157  0.2511
 5052TIP3    H136571   0.887   0.205   6.660  2.3000 -0.4149 -1.4236
 5052TIP3    H236572   0.898   0.089   6.758  0.1123  0.6168  0.1148
 5053TIP3   OH236573   0.884   2.893  11.026 -0.4804  0.2491 -0.0990
 5053TIP3    H136574   0.879   2.802  11.054  0.8292 -0.3408 -1.6359
 5053TIP3    H236575   0.868   2.891  10.932  1.5125  1.3043 -0.5310
 5054TIP3   OH236576   0.642   4.291  12.728  0.6755  0.0789  0.3232
 5054TIP3    H136577   0.629   4.353  12.657  2.3101  0.0755 -0.0194
 5054TIP3    H236578   0.612   4.207  12.692 -1.5726  0.5933  0.8029
 5055TIP3   OH236579   2.478   3.025   3.863  0.3213  0.0915 -0.4847
 5055TIP3    H136580   2.421   3.055   3.792  1.9582  0.3735 -1.7489
 5055TIP3    H236581   2.427   3.039   3.943 -1.6122 -0.2973 -1.5952
 5056TIP3   OH236582   0.698   1.425  11.596 -0.3251 -0.0723  0.4472
 5056TIP3    H136583   0.686   1.340  11.554  0.0261  0.7504 -1.4014
 5056TIP3    H236584   0.634   1.482  11.553 -0.8159  0.5271  1.9255
 5057TIP3   OH236585   3.167   1.232  15.546  0.0127  0.4532 -0.7235
 5057TIP3    H136586   3.110   1.232  15.469 -0.2819  3.3436 -0.6307
 5057TIP3    H236587   3.158   1.321  15.582  1.2648 -0.3548  1.8143
 5058TIP3   OH236588   4.741   5.001   0.196  0.0599  0.5271 -0.3492
 5058TIP3    H136589   4.780   4.924   0.238 -1.5981  0.0921  0.4810
 5058TIP3    H236590   4.649   4.998   0.222 -0.6463  1.2675 -2.5479
 5059TIP3   OH236591   2.858   6.348  14.603  0.2462  0.1544 -0.2540
 5059TIP3    H136592   2.842   6.313  14.690  1.0450  0.1814 -0.0880
 5059TIP3    H236593   2.789   6.310  14.548 -0.3551  0.2655  0.4134
 5060TIP3   OH236594   3.701   5.033   2.000 -0.3298 -0.0465  0.2763
 5060TIP3    H136595   3.761   5.101   1.969  0.8868 -1.5432 -0.8239
 5060TIP3    H236596   3.673   5.063   2.086  0.4995  1.6302  0.0078
 5061TIP3   OH236597   4.949   0.269   2.569  0.0325  0.2505 -0.4939
 5061TIP3    H136598   4.926   0.251   2.477 -0.6241  0.1827 -0.3210
 5061TIP3    H236599   5.010   0.343   2.564  2.1838 -1.4502 -1.1716
 5062TIP3   OH236600   4.292   6.517   2.032  0.1725 -0.3755  0.0819
 5062TIP3    H136601   4.213   6.571   2.036  1.0631  0.9634  0.3199
 5062TIP3    H236602   4.318   6.520   1.940  0.4348 -0.0742  0.1647
 5063TIP3   OH236603   2.030   1.700   6.084  0.3457 -0.4771 -0.0261
 5063TIP3    H136604   2.084   1.752   6.025  0.4839 -1.1421 -0.5002
 5063TIP3    H236605   1.957   1.670   6.030 -1.9501  2.4599  1.1643
 5064TIP3   OH236606   4.682   1.658   2.551 -0.0890  0.5214 -0.4621
 5064TIP3    H136607   4.631   1.732   2.586 -0.3937  1.0397 -1.9398
 5064TIP3    H236608   4.629   1.581   2.571  0.3284  0.6465  1.2892
 5065TIP3   OH236609   3.259   6.377   2.424  0.1754 -0.5059 -0.0730
 5065TIP3    H136610   3.171   6.343   2.443 -0.4097  1.4494  1.1220
 5065TIP3    H236611   3.263   6.382   2.329 -0.9283 -0.8416 -0.1529
 5066TIP3   OH236612   5.043   4.557   5.561  0.1223  0.0612  0.2083
 5066TIP3    H136613   5.002   4.640   5.585 -0.0423 -0.1340  0.5968
 5066TIP3    H236614   4.973   4.492   5.566  0.6995 -0.4666  1.9691
 5067TIP3   OH236615   4.727   5.134   0.623  0.2096 -0.1903  0.3268
 5067TIP3    H136616   4.784   5.210   0.612 -0.2647  0.1196 -0.0941
 5067TIP3    H236617   4.645   5.160   0.579 -0.9535  0.1439  2.5478
 5068TIP3   OH236618   1.147   1.692  12.910  0.5434  0.3395 -0.3520
 5068TIP3    H136619   1.074   1.637  12.882  0.4622  0.5549 -0.5610
 5068TIP3    H236620   1.174   1.654  12.994  1.4835 -0.9786 -1.2046
 5069TIP3   OH236621   3.203   6.137  16.647 -0.4724 -0.2861 -0.3335
 5069TIP3    H136622   3.276   6.083  16.614  1.4161  2.0674 -0.3091
 5069TIP3    H236623   3.213   6.133  16.742 -1.0504 -0.7818 -0.2871
 5070TIP3   OH236624   3.818   2.388  11.770 -0.2504  0.1328  0.1719
 5070TIP3    H136625   3.776   2.416  11.688  0.5848 -0.3045 -0.4198
 5070TIP3    H236626   3.745   2.358  11.824 -0.9174  1.2964 -0.0419
 5071TIP3   OH236627   1.006   2.517  13.516  0.3940  0.0357 -0.2003
 5071TIP3    H136628   1.055   2.559  13.587  0.7679 -0.9604  0.1376
 5071TIP3    H236629   0.982   2.432  13.550  0.1022 -0.2491 -1.0827
 5072TIP3   OH236630   0.550   5.613   1.748 -0.2082  0.0970 -0.8063
 5072TIP3    H136631   0.520   5.522   1.754  0.7298 -0.1799 -0.2095
 5072TIP3    H236632   0.644   5.607   1.732 -0.1959  0.9691 -1.1566
 5073TIP3   OH236633   1.762   0.697   3.048 -1.0903 -1.2020  0.1264
 5073TIP3    H136634   1.683   0.688   3.101  0.2002 -2.2394  1.9757
 5073TIP3    H236635   1.805   0.612   3.054  0.3169 -0.5800 -0.5980
 5074TIP3   OH236636   3.189   3.485  17.220 -0.1206 -0.1192  0.3563
 5074TIP3    H136637   3.193   3.580  17.210 -1.5943 -0.1335 -0.6765
 5074TIP3    H236638   3.096   3.465  17.225  0.1676 -1.5108  0.7331
 5075TIP3   OH236639   3.246   3.922  13.051 -0.0132 -0.1494  0.4962
 5075TIP3    H136640   3.171   3.949  13.104 -2.9973  0.5986 -3.6331
 5075TIP3    H236641   3.224   3.833  13.022  0.4462  0.2447 -1.1351
 5076TIP3   OH236642   5.435   1.567   5.331 -0.6298 -0.1039  0.0182
 5076TIP3    H136643   5.453   1.558   5.425  1.4157  0.1202 -0.3174
 5076TIP3    H236644   5.467   1.485   5.292 -1.3802 -0.1573 -0.5229
 5077TIP3   OH236645   1.900   1.946   5.056  0.1605 -0.5390  0.5130
 5077TIP3    H136646   1.924   1.999   4.980 -0.6749  1.2610  1.4563
 5077TIP3    H236647   1.818   1.903   5.031 -0.1627  0.1236  0.4217
 5078TIP3   OH236648   6.601   4.805  13.408 -0.5266  0.4032 -0.0745
 5078TIP3    H136649   6.637   4.726  13.367 -1.1292 -0.1012  0.3464
 5078TIP3    H236650   6.631   4.877  13.353  1.7351  0.0810  0.6575
 5079TIP3   OH236651   3.131   5.704  12.945 -0.5990  0.2249  0.0895
 5079TIP3    H136652   3.160   5.773  13.004  0.1565 -0.0394  0.0490
 5079TIP3    H236653   3.042   5.727  12.921 -0.4262  1.0719  0.2408
 5080TIP3   OH236654   6.546   0.237   3.499 -0.2228  0.1031  0.2034
 5080TIP3    H136655   6.494   0.157   3.491 -0.4629  0.2191  0.5494
 5080TIP3    H236656   6.589   0.248   3.414 -0.4742 -0.1970  0.0398
 5081TIP3   OH236657   1.779   5.901   1.136 -0.1284 -0.0151 -0.1094
 5081TIP3    H136658   1.692   5.940   1.143 -0.5701 -0.5362 -2.1543
 5081TIP3    H236659   1.835   5.958   1.189 -1.0011  2.5891 -1.8030
 5082TIP3   OH236660   1.121   1.222   5.083 -0.7514  0.4939 -0.5223
 5082TIP3    H136661   1.098   1.204   5.174  0.9841 -1.1337 -0.3554
 5082TIP3    H236662   1.198   1.278   5.088  0.4451 -1.0378 -0.9023
 5083TIP3   OH236663   3.244   3.254   0.282 -0.0382  0.2607  0.2089
 5083TIP3    H136664   3.287   3.188   0.229  0.5140  0.9371 -0.2072
 5083TIP3    H236665   3.279   3.337   0.250 -1.9517  0.8823 -0.4137
 5084TIP3   OH236666   4.555   1.343  13.388 -0.5222  0.4617  0.2378
 5084TIP3    H136667   4.522   1.335  13.298 -0.0843 -3.8622  0.2845
 5084TIP3    H236668   4.650   1.348  13.378 -0.3482 -1.6828  0.3982
 5085TIP3   OH236669   3.421   4.109  11.077  0.4908 -0.0286  0.1239
 5085TIP3    H136670   3.410   4.201  11.100 -0.1725 -0.1880  0.4807
 5085TIP3    H236671   3.470   4.110  10.995  0.2750  0.6555 -0.0007
 5086TIP3   OH236672   3.284   5.662  15.650 -0.4016  0.7119 -0.0063
 5086TIP3    H136673   3.215   5.695  15.593  1.2703  0.7165 -2.2020
 5086TIP3    H236674   3.362   5.663  15.594  0.6298 -2.8416  1.1089
 5087TIP3   OH236675   1.830   4.789  14.008  0.1146 -0.1728 -0.3527
 5087TIP3    H136676   1.827   4.854  13.937  0.7098 -0.5044 -0.6833
 5087TIP3    H236677   1.802   4.838  14.086  2.4892  1.0638 -0.1784
 5088TIP3   OH236678   1.670   1.287  17.289 -0.4265 -0.4391  0.2914
 5088TIP3    H136679   1.753   1.268  17.333 -0.6981  1.0898  1.5480
 5088TIP3    H236680   1.669   1.228  17.214  2.0674 -0.1078 -0.0915
 5089TIP3   OH236681   3.288   5.327   0.696  0.1716  0.0542  0.2412
 5089TIP3    H136682   3.313   5.236   0.714 -0.9260 -0.7918 -2.1302
 5089TIP3    H236683   3.364   5.378   0.724  0.8910 -1.5744  1.4762
 5090TIP3   OH236684   2.738   3.906   4.752  0.1669  0.0737  0.3966
 5090TIP3    H136685   2.801   3.960   4.799  0.6277  0.3243 -0.4856
 5090TIP3    H236686   2.763   3.914   4.660  0.7276 -2.2046  0.2717
 5091TIP3   OH236687   2.424   2.003   4.735  0.3279 -0.1118 -0.1569
 5091TIP3    H136688   2.357   2.068   4.757  0.9234  0.5661 -0.3061
 5091TIP3    H236689   2.447   1.963   4.820 -0.4561 -0.5576 -0.1408
 5092TIP3   OH236690   3.375   3.987  12.026 -0.1409 -0.0754 -0.1107
 5092TIP3    H136691   3.386   4.062  12.084 -0.7208 -0.8527  1.0276
 5092TIP3    H236692   3.450   3.931  12.045 -1.4225 -1.3478  1.5030
 5093TIP3   OH236693   4.134   2.030  17.343  0.3296  0.2309 -0.5680
 5093TIP3    H136694   4.174   1.949  17.375 -1.2614 -0.2522  0.3197
 5093TIP3    H236695   4.204   2.095  17.350  1.8528 -1.1646 -1.9532
 5094TIP3   OH236696   4.369   2.906  16.291 -0.1330 -0.3720 -0.0657
 5094TIP3    H136697   4.438   2.969  16.306 -1.8194  1.8105 -0.9914
 5094TIP3    H236698   4.385   2.872  16.203 -0.3653  0.3283 -0.3832
 5095TIP3   OH236699   5.688   0.455   4.717  0.4346 -0.1739  0.0677
 5095TIP3    H136700   5.688   0.526   4.652 -1.8580 -0.3879 -0.2424
 5095TIP3    H236701   5.617   0.477   4.777 -1.1808 -2.7391 -0.7214
 5096TIP3   OH236702   1.586   3.396   4.294  0.1436 -0.9538  0.5242
 5096TIP3    H136703   1.612   3.317   4.248  0.6909 -1.0676  1.0077
 5096TIP3    H236704   1.643   3.464   4.258 -1.4476 -0.3893 -1.1065
 5097TIP3   OH236705   3.442   1.501  12.278 -0.2715 -0.2602 -0.0747
 5097TIP3    H136706   3.415   1.593  12.281  0.1825 -0.1490  1.0264
 5097TIP3    H236707   3.366   1.455  12.245 -0.6957  0.4431 -0.1094
 5098TIP3   OH236708   6.475   5.299  14.838 -0.0887  0.3339  0.6287
 5098TIP3    H136709   6.494   5.334  14.751 -0.7167  0.2049  0.4308
 5098TIP3    H236710   6.398   5.242  14.824 -1.3333  1.7172  1.5857
 5099TIP3   OH236711   6.299   0.095   6.079 -0.4750  0.1115 -0.3425
 5099TIP3    H136712   6.334   0.183   6.066  1.2012 -0.4002  0.4281
 5099TIP3    H236713   6.353   0.038   6.025 -0.2750 -0.6729  0.6347
 5100TIP3   OH236714   1.835   2.247   1.576 -0.4410 -0.0389 -0.0130
 5100TIP3    H136715   1.832   2.332   1.532 -3.0854 -0.7598 -1.4047
 5100TIP3    H236716   1.757   2.245   1.631  0.5458 -0.9027  1.4452
 5101TIP3   OH236717   2.865   3.595   1.761 -0.0084  0.4292 -0.4094
 5101TIP3    H136718   2.898   3.644   1.837  0.3943 -1.5073  0.7229
 5101TIP3    H236719   2.944   3.564   1.717 -0.2239 -1.8486  0.7067
 5102TIP3   OH236720   4.448   2.415   5.858 -0.1597 -0.4373 -0.1235
 5102TIP3    H136721   4.484   2.427   5.946 -2.0283  1.3147  0.4856
 5102TIP3    H236722   4.411   2.327   5.858  0.5756 -0.7536  0.5444
 5103TIP3   OH236723   6.199   6.057   4.019  0.1916  1.0899  0.1563
 5103TIP3    H136724   6.247   5.983   4.055  3.8388  3.0222 -0.2010
 5103TIP3    H236725   6.252   6.133   4.043 -3.2933  3.6602  0.4546
 5104TIP3   OH236726   2.844   4.749   5.996  0.3260  0.0208  0.6352
 5104TIP3    H136727   2.931   4.712   5.982 -0.0492 -0.8980  0.6852
 5104TIP3    H236728   2.858   4.844   5.993  1.1649 -0.1154 -0.3088
 5105TIP3   OH236729   5.096   1.620   3.385  0.7465 -0.2739 -0.0182
 5105TIP3    H136730   5.182   1.658   3.401  0.3034  0.3197  1.0408
 5105TIP3    H236731   5.067   1.590   3.471 -1.2598  2.0088  0.1958
 5106TIP3   OH236732   4.553   2.338  16.277  0.5000 -0.2476  0.1978
 5106TIP3    H136733   4.568   2.415  16.224  1.8773 -0.8624 -0.3619
 5106TIP3    H236734   4.621   2.276  16.250 -0.3605 -1.5365  0.8562
 5107TIP3   OH236735   3.591   4.481  10.820 -0.0383  0.2229  0.1080
 5107TIP3    H136736   3.663   4.442  10.771  0.1095 -2.0074  1.9213
 5107TIP3    H236737   3.538   4.406  10.849 -1.0737  1.5490  1.8378
 5108TIP3   OH236738   2.383   2.663   6.160 -0.1847 -0.5183  0.1033
 5108TIP3    H136739   2.303   2.615   6.139  0.2457 -2.6051  2.6653
 5108TIP3    H236740   2.352   2.739   6.210 -0.7980  1.5331 -3.1252
 5109TIP3   OH236741   4.991   5.148   6.570  0.3395  0.2418 -0.5153
 5109TIP3    H136742   4.967   5.055   6.564  1.0448  0.1069 -1.3921
 5109TIP3    H236743   5.045   5.164   6.493 -0.9237  1.7359 -1.1309
 5110TIP3   OH236744   3.129   6.176  13.590  0.0758  0.4698 -0.1420
 5110TIP3    H136745   3.103   6.114  13.658  0.0549  0.8181  0.1663
 5110TIP3    H236746   3.158   6.120  13.517  3.7658 -0.0119  1.4715
 5111TIP3   OH236747   5.204   0.084  15.079 -0.2342 -0.4058  0.0463
 5111TIP3    H136748   5.155   0.153  15.124 -3.7456 -1.1307 -2.2433
 5111TIP3    H236749   5.192   0.006  15.133  1.0657  0.0362  1.0227
 5112TIP3   OH236750   5.421   3.278   3.504 -0.0099 -0.0364 -0.0596
 5112TIP3    H136751   5.507   3.319   3.501  0.8433 -1.7462  0.1014
 5112TIP3    H236752   5.365   3.342   3.549  1.5748  0.3865  1.3989
 5113TIP3   OH236753   1.256   4.748  16.814 -0.1928 -0.6432  0.4743
 5113TIP3    H136754   1.333   4.716  16.767  1.4803  1.6566  1.4605
 5113TIP3    H236755   1.247   4.839  16.787  0.2252  0.4694  3.6913
 5114TIP3   OH236756   3.217   5.487   3.725 -0.0083 -0.1389 -0.3463
 5114TIP3    H136757   3.278   5.545   3.771 -0.6731  0.1105  0.2263
 5114TIP3    H236758   3.214   5.521   3.636  0.1921  0.2376 -0.2120
 5115TIP3   OH236759   1.276   1.011  14.980  0.0310  0.1715  0.3489
 5115TIP3    H136760   1.334   0.967  14.918 -1.4496  1.5661 -2.2135
 5115TIP3    H236761   1.282   1.103  14.957 -1.0044  0.6861  1.9744
 5116TIP3   OH236762   1.354   3.180  16.043  0.2737 -0.2493  0.0386
 5116TIP3    H136763   1.327   3.266  16.010 -1.7076 -0.6168  0.5934
 5116TIP3    H236764   1.291   3.119  16.004  0.5589 -1.2181  1.0578
 5117TIP3   OH236765   2.464   6.123  12.147  0.4933 -0.1276  0.0350
 5117TIP3    H136766   2.511   6.187  12.200  1.6319  0.0453 -1.1338
 5117TIP3    H236767   2.519   6.111  12.070 -0.9202 -0.6700 -0.9222
 5118TIP3   OH236768   5.377   3.438   5.931  0.1424  0.1490  0.2629
 5118TIP3    H136769   5.454   3.437   5.874  0.4472 -0.0107  0.6728
 5118TIP3    H236770   5.408   3.402   6.014 -0.9049 -2.1454 -0.2498
 5119TIP3   OH236771   4.483   5.046  13.185  0.0337  0.2992 -0.1904
 5119TIP3    H136772   4.542   5.115  13.154 -0.4318 -0.5349 -3.2954
 5119TIP3    H236773   4.533   5.000  13.252  0.8044  2.8340  1.1262
 5120TIP3   OH236774   4.301   6.218   4.404  0.4271  0.0529  0.1835
 5120TIP3    H136775   4.320   6.259   4.488 -0.1990  2.5271 -0.8029
 5120TIP3    H236776   4.209   6.192   4.410  0.6468 -0.6527  0.5830
 5121TIP3   OH236777   4.893   4.135   3.882 -0.4807  0.0883  0.5181
 5121TIP3    H136778   4.982   4.153   3.913  0.1390  0.1467 -1.1975
 5121TIP3    H236779   4.841   4.209   3.915 -0.3367 -0.8259  3.0676
 5122TIP3   OH236780   2.838   6.447   4.784 -0.0117 -0.8450 -0.7499
 5122TIP3    H136781   2.761   6.436   4.728 -0.8223 -0.2598  0.2295
 5122TIP3    H236782   2.864   6.358   4.807 -2.3333 -1.0455  1.4826
 5123TIP3   OH236783   4.101   3.048   3.885 -0.1237 -0.5375  0.0628
 5123TIP3    H136784   4.029   2.988   3.904 -0.4738 -0.6795 -1.5625
 5123TIP3    H236785   4.133   3.021   3.799 -0.0729  1.3923 -0.5601
 5124TIP3   OH236786   5.302   6.643   5.958 -0.4807  0.3342  0.4722
 5124TIP3    H136787   5.389   6.682   5.968 -0.0222 -0.6554  0.4386
 5124TIP3    H236788   5.272   6.628   6.048 -0.0644 -0.5185  0.4705
 5125TIP3   OH236789   5.441   1.468   2.611 -0.0612  0.4338 -0.4004
 5125TIP3    H136790   5.529   1.505   2.606  0.1214 -0.1011 -1.5440
 5125TIP3    H236791   5.398   1.516   2.682  1.1391  0.7145  0.1477
 5126TIP3   OH236792   2.227   3.757  14.575 -0.6945 -0.4958 -0.3133
 5126TIP3    H136793   2.250   3.849  14.580 -0.9056 -0.5064  1.4335
 5126TIP3    H236794   2.282   3.722  14.505  4.1060 -0.3283  2.9077
 5127TIP3   OH236795   0.993   2.414   3.107 -0.4902  0.0369 -0.0044
 5127TIP3    H136796   1.044   2.428   3.027  0.7977 -0.8798  0.6225
 5127TIP3    H236797   1.054   2.433   3.178 -0.7202 -1.9355  0.7867
 5128TIP3   OH236798   2.380   2.882  14.170 -0.2600  0.1025  0.0306
 5128TIP3    H136799   2.360   2.813  14.107  0.3606 -0.9832  0.9776
 5128TIP3    H236800   2.431   2.946  14.121 -0.6438 -0.2238 -0.8079
 5129TIP3   OH236801   5.193   3.024  13.942  0.2048 -0.1814 -0.0518
 5129TIP3    H136802   5.165   3.106  13.982 -1.7317  0.4797 -2.4947
 5129TIP3    H236803   5.236   3.051  13.860  1.1696 -1.5430 -0.0187
 5130TIP3   OH236804   2.169   1.404   6.206  0.0337  0.3976 -0.0687
 5130TIP3    H136805   2.209   1.323   6.236  1.6144  1.9069  2.2264
 5130TIP3    H236806   2.140   1.448   6.286 -0.6617  2.1506 -1.2202
 5131TIP3   OH236807   0.987   5.594   5.955  0.2077 -0.2340  0.5878
 5131TIP3    H136808   0.947   5.585   6.041  2.6416  0.4363  1.8809
 5131TIP3    H236809   1.078   5.567   5.967  0.4609 -0.8256 -1.9652
 5132TIP3   OH236810   0.822   4.844   5.717 -0.6629 -0.3142 -0.2191
 5132TIP3    H136811   0.738   4.885   5.738 -0.3852  0.0878  0.1143
 5132TIP3    H236812   0.804   4.793   5.638 -0.8770  0.8687 -0.9547
 5133TIP3   OH236813   1.296   6.539  15.939 -0.1752 -0.0141  0.2121
 5133TIP3    H136814   1.295   6.551  15.844 -0.8499 -0.5692  0.1346
 5133TIP3    H236815   1.323   6.448  15.950  0.5994  0.2566  0.5866
 5134TIP3   OH236816   0.726   3.862  11.685  0.0644  0.0575  0.2063
 5134TIP3    H136817   0.748   3.901  11.770 -1.8371  0.4872  0.5501
 5134TIP3    H236818   0.673   3.785  11.707  0.2876 -0.3380 -0.5886
 5135TIP3   OH236819   3.216   5.910   0.022 -0.2852  0.0541 -0.2771
 5135TIP3    H136820   3.247   5.984   0.074  1.6945 -1.2186  0.4376
 5135TIP3    H236821   3.150   5.868   0.077 -0.7906  0.7515 -0.3280
 5136TIP3   OH236822   0.209   1.934  15.803  0.7147  0.5802  0.2181
 5136TIP3    H136823   0.140   1.982  15.757 -0.2335 -0.7745  0.1659
 5136TIP3    H236824   0.289   1.955  15.754  0.2723  1.7472 -0.0516
 5137TIP3   OH236825   6.349   4.339   2.567 -0.6138  0.3723 -0.1454
 5137TIP3    H136826   6.278   4.399   2.543  0.2541  1.6492  0.3298
 5137TIP3    H236827   6.429   4.389   2.549  0.1876 -1.2286 -1.1815
 5138TIP3   OH236828   5.192   1.218  14.168 -0.4855 -0.1463 -0.7842
 5138TIP3    H136829   5.140   1.203  14.089  0.6557 -0.6344 -1.4753
 5138TIP3    H236830   5.176   1.142  14.224 -0.0967 -0.5722 -1.2413
 5139TIP3   OH236831   1.954   3.351  15.938 -0.0464 -0.8586 -0.4774
 5139TIP3    H136832   1.994   3.430  15.900 -0.2731 -1.2299 -1.5216
 5139TIP3    H236833   1.909   3.382  16.016  0.0310  0.0171 -0.7674
 5140TIP3   OH236834   5.809   1.290   5.602  0.3342  0.4612 -0.0411
 5140TIP3    H136835   5.828   1.211   5.653  1.2294 -1.1540 -2.6745
 5140TIP3    H236836   5.841   1.362   5.657 -1.8376 -0.7713  3.0884
 5141TIP3   OH236837   3.058   3.999   0.706  0.1948 -0.3432  1.0391
 5141TIP3    H136838   3.026   4.063   0.642  1.8760 -0.1586  0.3313
 5141TIP3    H236839   3.013   3.917   0.684  1.4614 -0.5317 -1.0588
 5142TIP3   OH236840   0.412   5.035   5.062 -0.5354  0.2804  0.4175
 5142TIP3    H136841   0.387   4.943   5.072  0.7570 -0.0253  1.0680
 5142TIP3    H236842   0.331   5.084   5.077 -1.2120 -0.7378  0.1880
 5143TIP3   OH236843   2.085   6.035   1.648 -0.6729 -0.4241 -0.8128
 5143TIP3    H136844   2.003   6.085   1.648 -0.4162  0.0203 -0.2358
 5143TIP3    H236845   2.067   5.959   1.702 -1.4168 -1.5927 -2.6364
 5144TIP3   OH236846   2.624   6.431  11.992  0.5729 -0.3849 -0.8262
 5144TIP3    H136847   2.652   6.521  12.005 -0.2978  0.0876 -2.1105
 5144TIP3    H236848   2.675   6.400  11.917  2.3197 -1.6484  0.7840
 5145TIP3   OH236849   1.275   5.458  10.934  0.3592 -0.1595  0.2957
 5145TIP3    H136850   1.367   5.432  10.935  0.7177  0.9898 -0.8256
 5145TIP3    H236851   1.229   5.383  10.899  1.1204 -0.0729 -0.9352
 5146TIP3   OH236852   3.577   6.644   1.802  0.5374  0.2065  0.4029
 5146TIP3    H136853   3.601   6.653   1.895  0.2358  0.7586  0.4306
 5146TIP3    H236854   3.590   6.551   1.783  3.3975  0.5674  0.2007
 5147TIP3   OH236855   1.836   5.627  10.368 -0.1618 -0.0346  0.2988
 5147TIP3    H136856   1.876   5.684  10.302 -0.3674  0.7286  0.8238
 5147TIP3    H236857   1.900   5.557  10.381  0.5846  0.6582  0.4311
 5148TIP3   OH236858   3.542   5.286   1.087 -0.1008  0.1880 -0.2714
 5148TIP3    H136859   3.558   5.248   1.173 -1.1539  2.2537  0.9236
 5148TIP3    H236860   3.627   5.285   1.044  1.2738  2.1719  2.1349
 5149TIP3   OH236861   5.652   2.518   0.266  0.1420  0.3161  0.2593
 5149TIP3    H136862   5.730   2.481   0.224  0.4970  3.1228 -1.8523
 5149TIP3    H236863   5.641   2.466   0.346  3.2488 -1.1869 -0.1285
 5150TIP3   OH236864   5.791   1.309  14.660  0.4043  0.3763 -0.0996
 5150TIP3    H136865   5.723   1.277  14.601  0.2349  0.9769 -0.2336
 5150TIP3    H236866   5.782   1.404  14.658  0.8514  0.4325  0.3556
 5151TIP3   OH236867   6.322   5.479  15.604  0.1330 -0.9056  0.3885
 5151TIP3    H136868   6.269   5.542  15.653 -1.2722 -1.4997 -0.2927
 5151TIP3    H236869   6.273   5.466  15.522  1.3348 -1.5166 -0.2587
 5152TIP3   OH236870   4.101   5.481   2.855 -0.8686 -0.4800 -0.0670
 5152TIP3    H136871   4.082   5.550   2.792  0.0521  0.0614  0.2376
 5152TIP3    H236872   4.051   5.506   2.933  0.9427  0.9040  0.7086
 5153TIP3   OH236873   0.575   0.965   3.667 -0.0335 -0.1530  0.3979
 5153TIP3    H136874   0.587   1.060   3.663  0.7031 -0.2416  0.3844
 5153TIP3    H236875   0.480   0.954   3.673 -0.0886  0.6235  1.3107
 5154TIP3   OH236876   6.424   6.010   5.377 -0.0305  0.1896 -0.6658
 5154TIP3    H136877   6.367   6.084   5.399  0.7140  0.7427 -0.5457
 5154TIP3    H236878   6.467   6.035   5.296 -0.6093 -0.6089 -1.2333
 5155TIP3   OH236879   5.365   4.670  11.488 -0.7766 -0.3692  0.0647
 5155TIP3    H136880   5.292   4.670  11.551 -0.0805 -0.5939  0.8865
 5155TIP3    H236881   5.346   4.744  11.430 -1.3755 -0.0834  0.6069
 5156TIP3   OH236882   2.216   0.224   5.982 -0.4175 -0.2427 -0.1389
 5156TIP3    H136883   2.221   0.319   5.973  0.4373 -0.4053 -1.9318
 5156TIP3    H236884   2.123   0.204   5.981 -0.6020  0.5825  0.2490
 5157TIP3   OH236885   4.955   2.171   5.284  0.2356  0.6177 -0.2465
 5157TIP3    H136886   4.872   2.180   5.332  0.9745  0.9204  1.0123
 5157TIP3    H236887   5.010   2.120   5.343  1.2255  1.1288 -0.7192
 5158TIP3   OH236888   1.933   1.404  12.941  0.0224 -0.7780  0.1835
 5158TIP3    H136889   1.878   1.434  12.868  0.8230 -1.8197 -0.9092
 5158TIP3    H236890   1.959   1.315  12.915  1.1807 -0.7771  1.2597
 5159TIP3   OH236891   1.904   2.848   4.486  0.2759  0.3457 -0.1994
 5159TIP3    H136892   1.922   2.849   4.580  0.6583 -0.5756 -0.2532
 5159TIP3    H236893   1.875   2.937   4.466  0.5867  0.6607  0.7134
 5160TIP3   OH236894   4.053   3.811  15.766  0.0467  0.0071  0.3618
 5160TIP3    H136895   4.083   3.741  15.709  2.4747  1.4373 -0.2340
 5160TIP3    H236896   3.976   3.775  15.810 -0.4748 -1.9922 -1.9969
 5161TIP3   OH236897   2.498   0.869   2.571 -0.5503  0.2659 -0.1879
 5161TIP3    H136898   2.592   0.852   2.559 -0.4682  1.7226 -2.0411
 5161TIP3    H236899   2.495   0.931   2.644 -0.0413  0.3561 -0.2361
 5162TIP3   OH236900   6.044   1.522   6.223  0.0680  0.2408  0.0318
 5162TIP3    H136901   5.950   1.537   6.219  0.1473  0.6590 -0.3918
 5162TIP3    H236902   6.054   1.444   6.278 -0.5153  0.2563  0.1630
 5163TIP3   OH236903   0.782   4.276  11.414  0.4653  0.1770 -0.6294
 5163TIP3    H136904   0.803   4.189  11.448 -4.4486 -0.5149  1.4609
 5163TIP3    H236905   0.780   4.264  11.319 -0.3289 -2.1203 -0.3909
 5164TIP3   OH236906   2.482   3.387   2.737  0.1011  0.2646 -0.0138
 5164TIP3    H136907   2.468   3.305   2.691  1.6524 -0.3500  0.5376
 5164TIP3    H236908   2.524   3.361   2.820  2.5235  1.6917 -0.6893
 5165TIP3   OH236909   3.727   0.388   2.601 -0.0050  0.2359  0.2622
 5165TIP3    H136910   3.719   0.332   2.678  0.0807  1.5912  1.3038
 5165TIP3    H236911   3.679   0.342   2.533 -1.1262 -0.4359  1.4586
 5166TIP3   OH236912   5.493   1.260  13.961  0.1199  0.0160 -0.3703
 5166TIP3    H136913   5.423   1.194  13.955  0.4747 -0.3535 -0.5310
 5166TIP3    H236914   5.560   1.218  14.015 -0.0565  0.6235  0.3280
 5167TIP3   OH236915   4.911   5.964  11.388  0.1167  0.4751 -0.2637
 5167TIP3    H136916   4.854   5.908  11.335 -1.1182  0.9513  0.5206
 5167TIP3    H236917   4.965   5.904  11.439  0.4724  0.0205 -1.1554
 5168TIP3   OH236918   4.385   6.272  11.979  0.1601  0.3341  0.1703
 5168TIP3    H136919   4.443   6.323  12.036 -2.9053  1.8365  2.2261
 5168TIP3    H236920   4.306   6.326  11.971 -1.5986 -2.2391 -1.1786
 5169TIP3   OH236921   1.150   6.040  12.526  0.1723 -0.3097  0.3583
 5169TIP3    H136922   1.114   6.048  12.615 -0.5877  0.1846  0.0125
 5169TIP3    H236923   1.239   6.075  12.534  0.0526 -0.1087  0.8890
 5170TIP3   OH236924   5.487   1.148  16.597 -0.5025 -0.5797 -0.3518
 5170TIP3    H136925   5.513   1.060  16.625 -1.1628 -1.3164 -1.9065
 5170TIP3    H236926   5.393   1.152  16.614 -0.6219 -0.4812 -0.9874
 5171TIP3   OH236927   3.213   5.627   1.634  0.0206 -0.0018  0.1999
 5171TIP3    H136928   3.133   5.674   1.609  0.6464  0.4332 -1.0501
 5171TIP3    H236929   3.223   5.559   1.568 -0.5628 -1.6174  1.6688
 5172TIP3   OH236930   5.978   3.086  13.679  0.2426  0.0994  0.1390
 5172TIP3    H136931   6.045   3.064  13.613  0.7655 -0.0607  0.7090
 5172TIP3    H236932   5.914   3.138  13.631  0.3679 -0.4104 -0.6114
 5173TIP3   OH236933   1.975   4.734   3.492 -0.2878 -0.7958 -0.0616
 5173TIP3    H136934   2.043   4.746   3.559 -1.7878 -0.2377  1.4175
 5173TIP3    H236935   1.893   4.738   3.540 -1.3824 -1.9800 -1.7326
 5174TIP3   OH236936   4.409   0.493   3.840  0.1474  0.4666 -0.0185
 5174TIP3    H136937   4.406   0.501   3.935 -1.0478 -1.0387  0.1266
 5174TIP3    H236938   4.481   0.432   3.823  0.0924  0.4038 -0.0300
 5175TIP3   OH236939   6.058   0.543  11.278  0.0766 -0.2104  0.3740
 5175TIP3    H136940   6.129   0.552  11.215  0.6401  1.2220  1.1635
 5175TIP3    H236941   6.101   0.538  11.363 -0.6494 -2.6272  0.6517
 5176TIP3   OH236942   1.956   5.503  12.223  0.0195  0.2649 -0.1581
 5176TIP3    H136943   1.866   5.470  12.211 -0.0207 -0.7926  2.4102
 5176TIP3    H236944   1.948   5.598  12.215 -0.9707  0.0960 -1.7026
 5177TIP3   OH236945   3.610   2.195   4.870  0.5195 -0.2736  0.5415
 5177TIP3    H136946   3.593   2.211   4.963 -0.9992  0.0324  0.2314
 5177TIP3    H236947   3.524   2.198   4.829  1.1328 -0.8077 -0.8260
 5178TIP3   OH236948   5.877   0.347  14.374  0.4679 -0.1191  0.2667
 5178TIP3    H136949   5.805   0.342  14.438  0.6268 -1.7949  0.3484
 5178TIP3    H236950   5.955   0.363  14.427  0.4881 -0.7277  0.4267
 5179TIP3   OH236951   1.393   3.255  16.317 -0.7845 -0.5328 -0.6398
 5179TIP3    H136952   1.393   3.241  16.222  0.0123  1.2379 -0.9421
 5179TIP3    H236953   1.463   3.198  16.350  0.2277  0.2550 -1.3783
 5180TIP3   OH236954   1.704   5.199  15.892  0.2157 -0.6554  0.2297
 5180TIP3    H136955   1.718   5.145  15.969 -0.0119 -1.0687 -0.0124
 5180TIP3    H236956   1.740   5.284  15.915  2.5986 -1.4660 -0.1380
 5181TIP3   OH236957   5.096   3.625  16.089 -0.3778 -0.1871 -0.0192
 5181TIP3    H136958   5.093   3.541  16.135 -0.7410  0.0049  0.3145
 5181TIP3    H236959   5.105   3.690  16.159 -0.0727  0.0534 -0.2773
 5182TIP3   OH236960   3.787   3.487   3.376  0.2269  0.2796 -0.3121
 5182TIP3    H136961   3.737   3.405   3.369 -2.4489  1.8989 -2.1352
 5182TIP3    H236962   3.878   3.461   3.358 -0.6840 -2.1663 -1.9312
 5183TIP3   OH236963   5.416   6.345  16.265 -0.0818 -0.4023  0.1186
 5183TIP3    H136964   5.377   6.391  16.190 -2.6832 -0.2256  1.4893
 5183TIP3    H236965   5.401   6.252  16.247  1.6434 -0.5660 -0.7490
 5184TIP3   OH236966   4.369   3.423   3.196 -0.3270  0.2406  0.1057
 5184TIP3    H136967   4.319   3.491   3.241 -1.8298  0.6172 -2.0257
 5184TIP3    H236968   4.366   3.446   3.104  0.8025 -1.6718 -0.4815
 5185TIP3   OH236969   0.938   0.133   4.934  0.2599 -0.2468 -0.0000
 5185TIP3    H136970   0.968   0.053   4.977  0.2251 -0.7482 -0.8924
 5185TIP3    H236971   0.957   0.202   4.998 -0.2600 -1.0265  1.0282
 5186TIP3   OH236972   1.423   0.834   3.477 -0.0454  0.1730 -0.1141
 5186TIP3    H136973   1.510   0.798   3.492 -0.9919 -1.5575  1.8590
 5186TIP3    H236974   1.411   0.898   3.547 -0.4854  0.1314 -0.1439
 5187TIP3   OH236975   2.897   4.017   2.133 -0.2296  0.1360 -0.5632
 5187TIP3    H136976   2.858   3.962   2.201 -2.3737  1.8610 -0.2584
 5187TIP3    H236977   2.825   4.035   2.072  0.2006  2.8288 -0.4333
 5188TIP3   OH236978   2.000   2.399  17.205 -0.1560  0.1579  0.7334
 5188TIP3    H136979   1.960   2.366  17.285  2.7003  0.6931  2.5240
 5188TIP3    H236980   2.054   2.326  17.174  0.0983  0.5361  0.2748
 5189TIP3   OH236981   3.156   4.800   5.460  0.2967 -0.1476 -0.6432
 5189TIP3    H136982   3.220   4.868   5.436 -0.8572  1.3206  0.2692
 5189TIP3    H236983   3.204   4.718   5.450  2.6079  0.9196  0.8079
 5190TIP3   OH236984   5.106   2.830  13.372 -0.1024 -0.5892 -0.3524
 5190TIP3    H136985   5.140   2.843  13.460  0.3903 -1.1422 -0.4554
 5190TIP3    H236986   5.044   2.902  13.359 -0.4487 -0.7086  0.5751
 5191TIP3   OH236987   1.250   5.509   4.508 -0.2274  0.0969 -0.0429
 5191TIP3    H136988   1.241   5.575   4.578  0.6289  1.2726 -1.0036
 5191TIP3    H236989   1.166   5.513   4.461  0.2715  1.4292 -0.8597
 5192TIP3   OH236990   4.177   1.341  13.551  0.4328 -0.3484 -0.1803
 5192TIP3    H136991   4.160   1.248  13.563 -1.2004 -0.2959 -1.7967
 5192TIP3    H236992   4.206   1.349  13.460  0.5385  0.7312 -0.0682
 5193TIP3   OH236993   6.699   3.476  15.985  0.0740  0.4124  0.6269
 5193TIP3    H136994   6.659   3.393  16.011  0.1248 -0.5434 -1.9994
 5193TIP3    H236995   6.774   3.451  15.932  1.5129  2.1958  1.7068
 5194TIP3   OH236996   3.592   2.752  15.603 -0.6969 -0.0361  0.1130
 5194TIP3    H136997   3.589   2.815  15.674 -0.5405  0.8482 -0.6379
 5194TIP3    H236998   3.618   2.670  15.644  0.5038  0.7117  0.9046
 5195TIP3   OH236999   3.134   0.005   3.579 -0.6884  0.7297 -0.2347
 5195TIP3    H137000   3.180  -0.048   3.515  0.6809  1.5027  0.0681
 5195TIP3    H237001   3.044  -0.026   3.576  0.0828 -1.8153  0.1298
 5196TIP3   OH237002   5.538   6.646   2.730 -0.4478  0.9295  0.1841
 5196TIP3    H137003   5.549   6.639   2.635 -0.2863  1.3367  0.1686
 5196TIP3    H237004   5.493   6.730   2.742  1.4926  1.9872  0.5798
 5197TIP3   OH237005   1.978   4.011   4.984 -0.5281  0.3727  0.6470
 5197TIP3    H137006   1.943   3.952   4.916 -1.4845  2.1185 -0.4656
 5197TIP3    H237007   2.025   4.079   4.934  1.2988  0.1302  1.9366
 5198TIP3   OH237008   5.555   3.791   3.193  0.9602  0.3424 -0.0806
 5198TIP3    H137009   5.593   3.843   3.263 -1.5222  2.6962 -0.2761
 5198TIP3    H237010   5.543   3.853   3.121 -0.4800 -0.9187 -1.0064
 5199TIP3   OH237011   1.104   4.265   4.480 -0.0095 -0.9402 -0.0175
 5199TIP3    H137012   1.040   4.329   4.449  0.9706  0.5097  0.8253
 5199TIP3    H237013   1.118   4.206   4.406 -0.8894 -0.1490 -0.8349
 5200TIP3   OH237014   6.603   1.665   3.843 -0.0680 -0.3302 -0.0264
 5200TIP3    H137015   6.680   1.630   3.799  0.0770 -1.7606  1.2761
 5200TIP3    H237016   6.543   1.688   3.772  2.2154  2.6406 -1.1987
 5201TIP3   OH237017   0.044   6.520  16.562  0.2005 -0.1663 -0.1404
 5201TIP3    H137018   0.065   6.482  16.648 -1.3928 -2.9403 -0.8614
 5201TIP3    H237019   0.065   6.450  16.500 -0.8528  0.9357 -1.7924
 5202TIP3   OH237020   2.232   2.637   4.278 -0.4249 -0.3015  0.1739
 5202TIP3    H137021   2.272   2.665   4.361  0.1543 -0.0943 -0.1659
 5202TIP3    H237022   2.142   2.669   4.283 -0.2199  0.2485  0.4684
 5203TIP3   OH237023   5.243   6.057  17.020 -0.1636 -0.1092 -0.2849
 5203TIP3    H137024   5.207   6.095  17.100  0.3205 -0.3818  0.0721
 5203TIP3    H237025   5.224   5.963  17.028 -1.1458  0.0105 -1.0475
 5204TIP3   OH237026   1.186   3.524  14.840  0.4316  0.2242  0.3272
 5204TIP3    H137027   1.237   3.487  14.912 -0.4256  0.7827  1.2470
 5204TIP3    H237028   1.099   3.538  14.877 -0.5498 -1.1343 -1.3235
 5205TIP3   OH237029   5.909   4.676   2.350 -0.0880  0.1358 -0.6640
 5205TIP3    H137030   5.873   4.620   2.419 -0.8140 -0.5716 -1.6019
 5205TIP3    H237031   5.895   4.765   2.382 -1.1450 -0.1648 -0.2456
 5206TIP3   OH237032   6.081   3.019   2.143 -0.3308 -0.3594 -0.0022
 5206TIP3    H137033   6.120   3.032   2.230 -1.1008  0.0959  0.2891
 5206TIP3    H237034   6.075   3.108   2.107  0.0910 -0.5618 -0.5649
 5207TIP3   OH237035   5.534   2.576   4.732  0.0996 -0.6829 -0.1388
 5207TIP3    H137036   5.609   2.530   4.769  0.1044 -1.0458 -0.5972
 5207TIP3    H237037   5.467   2.570   4.799  0.5341 -0.2022  0.3490
 5208TIP3   OH237038   3.371   6.216  12.491  0.0500 -0.4135  0.0999
 5208TIP3    H137039   3.288   6.210  12.445  0.5796 -1.4912 -0.7894
 5208TIP3    H237040   3.357   6.168  12.573 -0.5292  0.4159  0.4932
 5209TIP3   OH237041   4.610   2.332  12.839 -0.5598 -0.1776 -0.3946
 5209TIP3    H137042   4.615   2.260  12.902 -0.5872  1.0193  1.0111
 5209TIP3    H237043   4.516   2.338  12.818 -0.8931  0.9036  1.2579
 5210TIP3   OH237044   0.560   2.261   1.564  0.1197  0.4943 -0.0991
 5210TIP3    H137045   0.500   2.214   1.506 -1.9577 -0.6189  2.7258
 5210TIP3    H237046   0.538   2.353   1.551 -1.4096  0.1690  0.0098
 5211TIP3   OH237047   4.786   5.657   4.205  0.2591  0.0796 -0.0531
 5211TIP3    H137048   4.877   5.679   4.189  0.0669 -0.6886 -2.6621
 5211TIP3    H237049   4.748   5.736   4.245  1.8175  0.7188  0.2162
 5212TIP3   OH237050   6.667   4.108  13.252 -0.0669  0.0829 -0.7878
 5212TIP3    H137051   6.670   4.161  13.172 -1.0939  0.5650 -0.5185
 5212TIP3    H237052   6.574   4.099  13.272  0.0688 -1.9672 -0.9077
 5213TIP3   OH237053   2.949   4.734  16.590 -0.1311  0.5442 -0.0610
 5213TIP3    H137054   2.856   4.713  16.597 -0.4335  1.4483 -1.0256
 5213TIP3    H237055   2.967   4.790  16.665 -0.1248 -0.3651  0.6403
 5214TIP3   OH237056   3.951   6.344   4.126 -0.1656 -0.3309 -0.0045
 5214TIP3    H137057   3.990   6.383   4.204  1.3909 -1.9565  0.1054
 5214TIP3    H237058   3.868   6.389   4.115 -0.3025  0.1228  2.4387
 5215TIP3   OH237059   0.857   4.121  15.110  0.5635 -0.6036  0.3627
 5215TIP3    H137060   0.876   4.028  15.119  1.5121 -0.3140  1.6622
 5215TIP3    H237061   0.928   4.165  15.157 -0.5654  0.7383  0.8995
 5216TIP3   OH237062   0.807   1.723   3.427 -0.1243  0.1050 -0.0784
 5216TIP3    H137063   0.724   1.728   3.474 -0.0948  0.8902 -0.0880
 5216TIP3    H237064   0.861   1.792   3.466 -0.1686  0.9252 -1.3840
 5217TIP3   OH237065   4.127   2.304   3.267 -0.7561 -0.9211  0.4545
 5217TIP3    H137066   4.138   2.215   3.234 -2.5718 -1.3043  0.7222
 5217TIP3    H237067   4.169   2.303   3.353  1.5113 -0.7306 -0.5962
 5218TIP3   OH237068   4.378   3.452  11.659  0.4137  0.1933  0.4915
 5218TIP3    H137069   4.382   3.357  11.644  1.2564  0.5740 -2.3581
 5218TIP3    H237070   4.299   3.480  11.612 -0.4190  0.8332  2.1808
 5219TIP3   OH237071   5.076   0.951  14.264  0.0285 -0.1953  0.1954
 5219TIP3    H137072   4.998   0.968  14.211 -0.0498 -2.5393 -0.5640
 5219TIP3    H237073   5.057   0.869  14.310  2.7675 -2.1002 -1.7159
 5220TIP3   OH237074   4.975   0.325   0.146  0.6231 -0.1334 -0.5527
 5220TIP3    H137075   5.016   0.317   0.059 -0.7951 -1.4238 -1.1496
 5220TIP3    H237076   4.916   0.399   0.137  1.1432  0.3130 -0.3815
 5221TIP3   OH237077   4.260   3.278  14.444 -0.0026 -0.2117 -0.5075
 5221TIP3    H137078   4.349   3.314  14.449  1.2265 -2.6011 -2.6039
 5221TIP3    H237079   4.205   3.352  14.421  1.6813  1.0780 -0.5924
 5222TIP3   OH237080   6.275   5.556  11.731 -0.0990  0.0682  0.1133
 5222TIP3    H137081   6.227   5.562  11.814 -1.4140  0.3366 -0.6249
 5222TIP3    H237082   6.214   5.510  11.672  0.4502  0.6362 -0.9310
 5223TIP3   OH237083   6.170   5.426   4.412 -0.5987  0.1091  0.3847
 5223TIP3    H137084   6.198   5.515   4.391  1.0039 -0.5754 -0.5637
 5223TIP3    H237085   6.162   5.383   4.327  1.1617 -1.3393  0.9060
 5224TIP3   OH237086   3.000   2.229  12.163  0.4446 -0.6594 -0.3814
 5224TIP3    H137087   2.934   2.186  12.218 -0.0344 -0.0004 -0.4250
 5224TIP3    H237088   2.949   2.279  12.100  0.9736  0.4193  0.0121
 5225TIP3   OH237089   0.242   0.345  15.429 -0.2637  0.3454 -0.0491
 5225TIP3    H137090   0.195   0.283  15.374 -0.6563  1.1613 -0.6431
 5225TIP3    H237091   0.326   0.301  15.447 -0.6811 -0.5151 -0.1325
 5226TIP3   OH237092   1.316   0.440   0.420 -0.2214 -0.3355 -0.3042
 5226TIP3    H137093   1.395   0.423   0.471  0.2394  2.3216  0.0029
 5226TIP3    H237094   1.275   0.516   0.463 -1.8661 -0.3848 -1.6502
 5227TIP3   OH237095   4.671   1.549  13.130  0.3473 -0.3073  0.6298
 5227TIP3    H137096   4.610   1.605  13.081  0.3439 -2.3698 -1.9164
 5227TIP3    H237097   4.692   1.600  13.208 -1.7951  2.0267 -0.1748
 5228TIP3   OH237098   2.232   3.287  15.787  0.1183  0.0372  0.0239
 5228TIP3    H137099   2.138   3.274  15.800  0.2668 -0.0272  1.0884
 5228TIP3    H237100   2.239   3.320  15.697 -1.1084  2.0245  0.5886
 5229TIP3   OH237101   0.929   0.939   4.655 -0.8054  0.4720  0.4420
 5229TIP3    H137102   0.945   0.914   4.746 -0.2510 -0.5506  0.0803
 5229TIP3    H237103   0.978   1.020   4.644  1.8738 -1.0646  0.2022
 5230TIP3   OH237104   5.869   1.613  13.803 -0.5168  0.0498 -0.3301
 5230TIP3    H137105   5.781   1.649  13.795 -0.9135 -0.9687 -0.6989
 5230TIP3    H237106   5.903   1.611  13.714  0.2863  1.3869 -0.0777
 5231TIP3   OH237107   2.089   6.548   2.541  0.0985  0.1691 -0.2620
 5231TIP3    H137108   2.058   6.482   2.479  0.8502 -1.7719  1.3498
 5231TIP3    H237109   2.165   6.587   2.497  0.1249 -0.5901 -0.9187
 5232TIP3   OH237110   2.952   4.235   0.527 -0.2086  0.4498 -0.0778
 5232TIP3    H137111   2.988   4.323   0.537  0.0843  0.2222  0.9815
 5232TIP3    H237112   2.861   4.243   0.556 -0.4700  0.5967 -0.8961
 5233TIP3   OH237113   2.816   3.246   5.870 -0.0391  0.3223  0.2403
 5233TIP3    H137114   2.856   3.264   5.955 -1.0197 -0.6538  0.9249
 5233TIP3    H237115   2.863   3.303   5.809  2.2260 -0.5800  1.0378
 5234TIP3   OH237116   4.843   6.317  16.514  0.5029  0.1555 -0.5483
 5234TIP3    H137117   4.873   6.397  16.556  1.3307 -0.3163 -0.2331
 5234TIP3    H237118   4.882   6.319  16.427  1.4313 -0.4285 -0.1598
 5235TIP3   OH237119   3.422   0.023  11.054 -0.6562 -0.1622  0.3846
 5235TIP3    H137120   3.502   0.003  11.005  0.2570  0.0383  1.7430
 5235TIP3    H237121   3.353  -0.023  11.006  0.1663  0.1047 -1.1358
 5236TIP3   OH237122   0.727   4.731  15.410 -0.3830  0.0905  0.4594
 5236TIP3    H137123   0.689   4.668  15.349 -3.5880  0.6363  1.6635
 5236TIP3    H237124   0.758   4.677  15.483 -0.0019 -0.2950  0.0231
 5237TIP3   OH237125   4.625   5.356  13.770  0.6510  0.1957  0.3123
 5237TIP3    H137126   4.587   5.438  13.740 -0.4633 -0.1900  0.6186
 5237TIP3    H237127   4.594   5.346  13.860  2.9733  0.7448  1.2660
 5238TIP3   OH237128   1.423   1.489   5.646 -0.1123  0.1979 -0.1674
 5238TIP3    H137129   1.360   1.543   5.694 -0.0366 -0.3991  0.6161
 5238TIP3    H237130   1.384   1.481   5.558  0.3653  2.3240 -0.6204
 5239TIP3   OH237131   4.123   5.540  15.248 -0.3311  0.6319 -0.0695
 5239TIP3    H137132   4.099   5.604  15.314  0.4820  1.4840 -0.5608
 5239TIP3    H237133   4.088   5.457  15.279 -4.0919  1.7621 -0.8630
 5240TIP3   OH237134   0.954   5.186  14.088 -0.2032  0.2780  0.0889
 5240TIP3    H137135   1.018   5.120  14.060  0.1574 -0.5077  2.5343
 5240TIP3    H237136   0.903   5.205  14.009  2.0768 -0.1586 -1.5787
 5241TIP3   OH237137   1.147   4.422  12.783  0.1461  0.2194 -0.2179
 5241TIP3    H137138   1.213   4.412  12.852 -0.7430 -1.1520  0.4810
 5241TIP3    H237139   1.127   4.332  12.756  0.9232  0.7219 -2.7583
 5242TIP3   OH237140   5.076   3.745  10.561  0.7806 -0.0806  0.1392
 5242TIP3    H137141   5.143   3.690  10.520  0.2608 -0.4103 -0.2958
 5242TIP3    H237142   5.010   3.757  10.491  0.8219  0.9763  0.2751
 5243TIP3   OH237143   6.382   6.449   1.109 -0.6928  0.2828 -0.3712
 5243TIP3    H137144   6.335   6.529   1.134  0.0765  0.9244 -0.9382
 5243TIP3    H237145   6.468   6.459   1.149 -0.0627  0.4748 -1.7398
 5244TIP3   OH237146   6.340   1.300   4.037  0.4337  0.1478 -0.2039
 5244TIP3    H137147   6.380   1.245   3.970  0.6570  0.1135 -0.0461
 5244TIP3    H237148   6.295   1.369   3.989  2.0931  1.1737 -0.3691
 5245TIP3   OH237149   1.812   0.383   1.328  0.0059  0.2479 -0.0751
 5245TIP3    H137150   1.757   0.368   1.251 -1.4213  0.4206  0.8728
 5245TIP3    H237151   1.800   0.476   1.348  0.6695  0.2935  0.1320
 5246TIP3   OH237152   5.343   0.662  15.158  0.3466  0.4777  0.0364
 5246TIP3    H137153   5.371   0.729  15.096 -0.8194  0.5389 -0.4403
 5246TIP3    H237154   5.403   0.589  15.142  0.0367  0.4718 -1.2217
 5247TIP3   OH237155   3.544   1.292   2.561 -0.4363  0.7023 -0.0644
 5247TIP3    H137156   3.561   1.380   2.526 -1.1272  0.7304 -0.3389
 5247TIP3    H237157   3.543   1.305   2.656 -3.1565  1.5207 -0.1303
 5248TIP3   OH237158   6.671   0.442  15.578 -0.2860  0.8521  0.1863
 5248TIP3    H137159   6.631   0.381  15.641 -0.3747  0.0083 -0.6594
 5248TIP3    H237160   6.597   0.477  15.529 -0.1462  0.7869 -0.0721
 5249TIP3   OH237161   3.903   6.617   6.930 -0.0708 -0.1428 -0.3010
 5249TIP3    H137162   3.977   6.663   6.970 -1.0653  2.3525 -1.1605
 5249TIP3    H237163   3.943   6.553   6.871  1.3671 -1.0255  1.5227
 5250TIP3   OH237164   1.493   2.989  10.712  0.0050  0.0833 -0.0982
 5250TIP3    H137165   1.478   3.026  10.625  0.0909 -0.2667 -0.2635
 5250TIP3    H237166   1.519   3.063  10.766 -1.2830  0.5312 -0.0602
 5251TIP3   OH237167   5.163   3.574  11.284  0.0517 -0.1624  0.0708
 5251TIP3    H137168   5.076   3.545  11.258 -0.0433 -0.8066  1.0601
 5251TIP3    H237169   5.223   3.522  11.231 -0.1322 -1.6856  1.3059
 5252TIP3   OH237170   4.456   2.964   4.210  0.0084  0.2441 -0.1676
 5252TIP3    H137171   4.412   3.021   4.147  0.0351  0.7418  0.2509
 5252TIP3    H237172   4.542   2.947   4.172  0.2213  0.9687 -0.0293
 5253TIP3   OH237173   5.990   5.371   5.314 -0.2629 -0.4702  0.8924
 5253TIP3    H137174   5.949   5.381   5.400  0.6679  0.0750  1.2910
 5253TIP3    H237175   5.916   5.365   5.253 -0.9385  0.0593  1.6313
 5254TIP3   OH237176   5.957   5.274  15.720 -0.3236 -0.0764  0.2142
 5254TIP3    H137177   5.929   5.288  15.811 -0.4562 -0.1459  0.1840
 5254TIP3    H237178   5.904   5.201  15.689 -2.1793  1.5727 -0.7489
 5255TIP3   OH237179   1.331   6.285   2.904 -0.4699  0.5807  0.5330
 5255TIP3    H137180   1.402   6.347   2.884  1.1847 -0.6966  2.0832
 5255TIP3    H237181   1.376   6.210   2.942 -2.6118 -0.7322  0.5894
 5256TIP3   OH237182   2.037   6.088  12.212 -0.0607 -0.3347  0.0722
 5256TIP3    H137183   1.942   6.093  12.201 -0.1734 -2.6764 -0.5788
 5256TIP3    H237184   2.070   6.165  12.166 -1.5890  0.0903 -0.3960
 5257TIP3   OH237185   0.181   5.722  14.564 -0.5113  0.6866 -0.5517
 5257TIP3    H137186   0.216   5.811  14.559  1.0677  0.0930 -0.5124
 5257TIP3    H237187   0.244   5.669  14.516 -0.3511 -0.7114  1.1003
 5258TIP3   OH237188   0.510   0.250   0.789 -0.0175 -0.0218 -0.2982
 5258TIP3    H137189   0.585   0.275   0.735  0.7150  1.8636  1.4535
 5258TIP3    H237190   0.435   0.292   0.746  0.2948  0.0632 -0.7685
 5259TIP3   OH237191   1.159   4.862  14.872  0.4556  0.3449  0.0273
 5259TIP3    H137192   1.102   4.889  14.800  0.1001 -1.4248 -0.4108
 5259TIP3    H237193   1.155   4.934  14.934  0.2795  1.6587 -1.4311
 5260TIP3   OH237194   1.845   5.649   6.720  0.1498 -0.5512  0.2673
 5260TIP3    H137195   1.762   5.608   6.696 -0.4008  0.3955  0.5079
 5260TIP3    H237196   1.830   5.742   6.708  1.4196 -0.4182 -0.3767
 5261TIP3   OH237197   4.612   1.934  10.883  0.3167  0.1152 -0.1025
 5261TIP3    H137198   4.660   1.855  10.862 -0.6583 -1.2566  2.3613
 5261TIP3    H237199   4.523   1.918  10.851  0.0515  0.0782  0.6321
 5262TIP3   OH237200   5.156   2.874   4.017  0.3618 -0.1760 -0.1620
 5262TIP3    H137201   5.225   2.820   3.978  0.7014 -0.2784  0.5577
 5262TIP3    H237202   5.168   2.863   4.111 -1.6581 -1.4702 -0.0094
 5263TIP3   OH237203   2.544   3.659  16.030 -0.5115  0.0699  0.1968
 5263TIP3    H137204   2.546   3.625  15.941  0.2562  0.9107 -0.1260
 5263TIP3    H237205   2.452   3.679  16.047 -0.6614 -0.1215 -0.3929
 5264TIP3   OH237206   1.891   0.606  17.366  0.4727 -0.2066  0.7375
 5264TIP3    H137207   1.846   0.673  17.417  0.3884  2.0646 -2.0330
 5264TIP3    H237208   1.969   0.584  17.416 -0.0337  1.2173  2.2038
 5265TIP3   OH237209   5.309   3.800  12.338 -0.3421 -0.2645 -0.2834
 5265TIP3    H137210   5.403   3.786  12.348 -0.4868 -1.3053 -0.2742
 5265TIP3    H237211   5.274   3.715  12.311 -1.5872 -0.4961  1.8470
 5266TIP3   OH237212   3.752   2.447   3.640 -0.3065  0.3658  0.1013
 5266TIP3    H137213   3.709   2.371   3.679 -0.3950  0.5591  0.3788
 5266TIP3    H237214   3.756   2.426   3.546  1.1770 -0.7244  0.3659
 5267TIP3   OH237215   5.207   4.418  10.910 -0.7050 -0.3882 -0.1303
 5267TIP3    H137216   5.235   4.419  11.002 -0.8866  1.0493 -0.0680
 5267TIP3    H237217   5.238   4.334  10.877  0.6432 -0.3191  0.8657
 5268TIP3   OH237218   3.830   3.349   3.810  0.5570  0.2353  0.2349
 5268TIP3    H137219   3.769   3.317   3.877  1.3529 -0.5556  0.6209
 5268TIP3    H237220   3.849   3.439   3.836 -0.4781  0.5136  0.0678
 5269TIP3   OH237221   6.197   6.580   2.987  0.5620 -0.7959  0.4926
 5269TIP3    H137222   6.274   6.545   3.031  0.1179 -1.3859  0.8097
 5269TIP3    H237223   6.159   6.642   3.049  0.4029 -1.0096  0.6106
 5270TIP3   OH237224   2.735   1.932  13.138  0.6825  0.4060 -0.5292
 5270TIP3    H137225   2.676   1.872  13.183  0.3573  1.3008  0.2530
 5270TIP3    H237226   2.723   1.911  13.045  0.7426 -0.8815 -0.2623
 5271TIP3   OH237227   2.492   4.347  12.181  0.0965 -0.2553 -0.5693
 5271TIP3    H137228   2.545   4.407  12.129  2.9057 -0.5260  1.7238
 5271TIP3    H237229   2.423   4.401  12.218 -0.0887  0.5629 -2.0379
 5272TIP3   OH237230   1.502   1.267  11.977  0.4698  0.3264  0.2944
 5272TIP3    H137231   1.453   1.320  11.914 -0.2507 -1.0278 -0.3282
 5272TIP3    H237232   1.438   1.245  12.044 -0.3685 -2.8874 -1.3875
 5273TIP3   OH237233   4.229   6.422  14.052  0.1959 -0.0975  0.5717
 5273TIP3    H137234   4.252   6.434  14.144 -1.6140  0.5874  0.9572
 5273TIP3    H237235   4.184   6.502  14.027  0.0593 -0.5540 -0.7322
 5274TIP3   OH237236   3.907   5.845  10.733  0.1140  0.4608 -0.5188
 5274TIP3    H137237   3.869   5.855  10.820  0.7065 -0.7457 -0.0940
 5274TIP3    H237238   4.002   5.849  10.749  0.2385 -0.4635 -1.0017
 5275TIP3   OH237239   0.629   4.857   0.167  0.2409 -0.1521 -0.1365
 5275TIP3    H137240   0.694   4.921   0.196  0.5169 -0.9049  0.9732
 5275TIP3    H237241   0.670   4.772   0.184 -0.1758 -0.6421 -1.4469
 5276TIP3   OH237242   0.780   0.701  13.867 -0.2808 -0.5488 -0.6332
 5276TIP3    H137243   0.705   0.679  13.812 -1.5421  0.5303  0.5870
 5276TIP3    H237244   0.742   0.724  13.952  1.2869  1.6407 -0.4403
 5277TIP3   OH237245   2.199   4.275  14.452 -0.3203 -0.2521 -0.0832
 5277TIP3    H137246   2.234   4.186  14.445  1.3995  0.3875 -0.0876
 5277TIP3    H237247   2.254   4.318  14.517  0.9206  1.7102 -2.2786
 5278TIP3   OH237248   3.410   3.779   0.461 -0.2018  0.2280  0.0825
 5278TIP3    H137249   3.358   3.727   0.521  1.5977  0.1457  1.6953
 5278TIP3    H237250   3.402   3.869   0.493  1.5047  0.0638  1.1027
 5279TIP3   OH237251   2.813   3.560   2.127  0.0762  0.1707  0.6370
 5279TIP3    H137252   2.904   3.537   2.142 -0.3515 -1.2636  1.1584
 5279TIP3    H237253   2.766   3.477   2.129 -1.4845  1.0143  2.0369
 5280TIP3   OH237254   1.970   4.260   5.286  0.2666 -0.3411  0.2508
 5280TIP3    H137255   2.004   4.288   5.200  1.3900 -1.7283  0.2011
 5280TIP3    H237256   2.048   4.252   5.340 -0.1132 -2.2304  0.5691
 5281TIP3   OH237257   6.344   4.379  11.251 -0.1927  0.1904  0.7398
 5281TIP3    H137258   6.375   4.376  11.341  0.0156 -0.7861  0.6461
 5281TIP3    H237259   6.299   4.295  11.238 -0.9408  0.6608  0.1887
 5282TIP3   OH237260   6.395   2.294   4.055 -0.1048  0.2682  0.4038
 5282TIP3    H137261   6.331   2.334   3.996  0.0173 -0.0169  0.0761
 5282TIP3    H237262   6.352   2.215   4.088  0.0011  0.1848  0.3427
 5283TIP3   OH237263   4.091   1.638  13.461  0.3577  0.4691  0.1990
 5283TIP3    H137264   4.028   1.603  13.524  0.5608 -1.5086 -0.6075
 5283TIP3    H237265   4.050   1.625  13.376  1.9515 -1.2629 -0.3830
 5284TIP3   OH237266   1.466   4.837  15.056  0.4600 -0.5573 -0.0751
 5284TIP3    H137267   1.376   4.849  15.087  1.1517  1.3667  1.4249
 5284TIP3    H237268   1.462   4.852  14.962 -0.6100  0.6497  0.1430
 5285TIP3   OH237269   6.422   5.404  16.450  0.0390 -0.3872  0.4760
 5285TIP3    H137270   6.330   5.407  16.422 -0.4569 -0.8219  1.9645
 5285TIP3    H237271   6.468   5.360  16.378 -0.3561  2.3626 -1.6337
 5286TIP3   OH237272   0.119   3.248  13.439  0.1815 -0.3408  0.0764
 5286TIP3    H137273   0.201   3.271  13.483  0.6395 -0.4232 -0.7219
 5286TIP3    H237274   0.108   3.315  13.372 -1.3839  0.7778  1.3484
 5287TIP3   OH237275   4.115   5.010  13.200 -0.3784  0.4498 -0.0135
 5287TIP3    H137276   4.035   4.960  13.182 -0.5486  0.6363  0.2119
 5287TIP3    H237277   4.088   5.102  13.190 -0.4034  0.5458  0.8994
 5288TIP3   OH237278   6.613   2.441   0.716 -0.4389  0.0414 -0.0747
 5288TIP3    H137279   6.625   2.522   0.667 -2.6967  1.1533  1.0711
 5288TIP3    H237280   6.640   2.372   0.655  1.3277  1.5811 -1.1614
 5289TIP3   OH237281   4.293   1.100   5.027 -0.1233  0.3123  0.3024
 5289TIP3    H137282   4.224   1.129   4.968 -0.3893 -1.6282 -0.3984
 5289TIP3    H237283   4.374   1.116   4.978  0.1242  3.4941  1.4955
 5290TIP3   OH237284   6.037   1.800  16.111  0.0721 -0.0046 -0.2110
 5290TIP3    H137285   6.024   1.891  16.084  0.7625  0.1609 -0.0052
 5290TIP3    H237286   6.076   1.806  16.199 -2.0074 -0.5278  0.8090
 5291TIP3   OH237287   1.151   6.223   6.005 -0.3349 -0.0995  0.2530
 5291TIP3    H137288   1.168   6.129   6.009  0.2264 -0.0129  0.0398
 5291TIP3    H237289   1.210   6.261   6.070  1.2786  0.3261 -1.3720
 5292TIP3   OH237290   0.846   1.517   0.882  0.4640 -0.4234 -0.0792
 5292TIP3    H137291   0.791   1.447   0.918 -0.2880 -0.7701 -1.7855
 5292TIP3    H237292   0.786   1.567   0.827  0.9328  1.7313  1.2472
 5293TIP3   OH237293   0.720   0.131  11.520 -0.2415 -0.3303 -0.2098
 5293TIP3    H137294   0.755   0.063  11.578 -1.8684 -0.0699  1.1737
 5293TIP3    H237295   0.796   0.187  11.501  0.6745 -1.3207  0.3750
 5294TIP3   OH237296   0.906   5.518   1.818 -0.0362 -0.5215 -0.7665
 5294TIP3    H137297   0.975   5.452   1.815 -0.3518 -0.8272 -1.3900
 5294TIP3    H237298   0.875   5.525   1.728  1.0604  1.6353 -1.0223
 5295TIP3   OH237299   0.135   4.035   2.602 -0.5306 -0.2246 -0.0063
 5295TIP3    H137300   0.181   3.997   2.528  0.5979  0.4935  0.2983
 5295TIP3    H237301   0.166   3.985   2.678  0.4541  0.8121  0.3108
 5296TIP3   OH237302   4.443   4.131  13.395  0.0635 -0.2185 -0.3275
 5296TIP3    H137303   4.483   4.164  13.475  3.2766 -0.7861 -1.5660
 5296TIP3    H237304   4.419   4.041  13.415  0.8739 -0.3639  0.0286
 5297TIP3   OH237305   5.828   2.977   1.316 -0.1023 -0.3332 -0.3657
 5297TIP3    H137306   5.871   3.051   1.274  3.3750 -1.5826  0.5979
 5297TIP3    H237307   5.875   2.900   1.282 -1.6161 -1.8718  0.8358
 5298TIP3   OH237308   1.865   3.064  17.254  0.2438  0.1494  0.0298
 5298TIP3    H137309   1.901   2.979  17.279  2.4890  1.1882  0.5591
 5298TIP3    H237310   1.827   3.098  17.335 -0.3951 -0.1963 -0.1138
 5299TIP3   OH237311   5.532   5.728  11.996 -0.0709  0.9649 -0.0502
 5299TIP3    H137312   5.530   5.633  11.983  2.4297  1.1112 -2.4996
 5299TIP3    H237313   5.502   5.740  12.086 -1.5202 -2.0155  0.0065
 5300TIP3   OH237314   1.482   2.941  16.135 -0.4462 -0.6065  0.7409
 5300TIP3    H137315   1.429   3.012  16.100 -0.9030 -1.3100 -0.0402
 5300TIP3    H237316   1.476   2.872  16.069  1.6705 -0.6191  0.4761
 5301TIP3   OH237317   5.564   0.709   2.044 -0.1579 -0.4290  0.6745
 5301TIP3    H137318   5.507   0.634   2.060  1.9065 -3.0326 -2.7319
 5301TIP3    H237319   5.548   0.732   1.953  1.9734  0.7750  0.5371
 5302TIP3   OH237320   4.820   1.903  13.018  0.4334 -0.3592  0.0905
 5302TIP3    H137321   4.860   1.821  12.988 -0.9085 -0.1980 -2.4507
 5302TIP3    H237322   4.748   1.876  13.074  0.9340 -0.8261  0.5274
 5303TIP3   OH237323   6.199   4.198   2.743 -0.3017 -0.1926 -0.3434
 5303TIP3    H137324   6.252   4.121   2.766 -0.2560 -0.3194 -0.8531
 5303TIP3    H237325   6.255   4.248   2.683 -0.9178 -0.5707 -1.2677
 5304TIP3   OH237326   3.585   0.907   1.270  0.0072 -0.5482  0.0130
 5304TIP3    H137327   3.528   0.862   1.333 -0.0995 -0.0600  0.2682
 5304TIP3    H237328   3.528   0.973   1.230  0.1680 -0.6279 -0.3501
 5305TIP3   OH237329   1.077   6.363   0.387  0.3647 -0.3387  0.0718
 5305TIP3    H137330   1.083   6.291   0.324  2.9004 -0.5072  0.4310
 5305TIP3    H237331   0.991   6.352   0.428 -0.7689 -1.0430 -2.3367
 5306TIP3   OH237332   0.723   1.657  12.333  0.1536 -0.0726  0.8526
 5306TIP3    H137333   0.700   1.594  12.264 -0.9721  0.5487  0.6322
 5306TIP3    H237334   0.797   1.706  12.297 -0.5084  0.3389  0.0067
 5307TIP3   OH237335   3.067   2.410   3.840 -0.8585 -0.9719 -0.0041
 5307TIP3    H137336   3.121   2.383   3.914 -0.9582 -0.3895  0.2873
 5307TIP3    H237337   3.109   2.370   3.764  1.5124  1.4906 -0.1343
 5308TIP3   OH237338   4.396   1.164   3.453  0.4378  0.6630  0.2451
 5308TIP3    H137339   4.360   1.137   3.369  1.8431 -0.0412 -0.1569
 5308TIP3    H237340   4.340   1.122   3.518 -0.8796  1.4995 -0.2995
 5309TIP3   OH237341   4.120   0.301   0.322  0.3442  0.2194  0.1265
 5309TIP3    H137342   4.191   0.352   0.359 -0.0329  0.1926  0.9004
 5309TIP3    H237343   4.148   0.282   0.232  1.8599 -0.8423  0.7982
 5310TIP3   OH237344   5.861   5.432   0.093  0.4076 -0.1383 -0.1602
 5310TIP3    H137345   5.788   5.374   0.068 -0.8512  2.2535 -2.4431
 5310TIP3    H237346   5.852   5.441   0.188 -1.3953 -1.0319 -0.2043
 5311TIP3   OH237347   4.117   2.070   1.377  0.1520 -0.5428 -0.1421
 5311TIP3    H137348   4.097   2.043   1.467 -1.3174 -1.9317 -0.8285
 5311TIP3    H237349   4.077   2.157   1.369  0.5247 -0.2910  0.6204
 5312TIP3   OH237350   0.642   5.323  12.079  0.0027  0.0546 -0.0387
 5312TIP3    H137351   0.584   5.276  12.019 -0.2001  2.0174 -1.4901
 5312TIP3    H237352   0.720   5.342  12.027 -0.3788  2.2472  0.1030
 5313TIP3   OH237353   2.846   4.623  14.621  0.0797  0.2313  0.0627
 5313TIP3    H137354   2.927   4.577  14.600  0.7582  1.9981 -1.5630
 5313TIP3    H237355   2.810   4.647  14.536 -0.9644  1.4139  0.8074
 5314TIP3   OH237356   2.863   1.102  13.014 -0.3091  0.1786  0.1050
 5314TIP3    H137357   2.885   1.009  13.002  0.1850  0.2532  0.4629
 5314TIP3    H237358   2.946   1.145  13.031 -0.7507  0.3924  1.8660
 5315TIP3   OH237359   4.536   5.275   0.822 -0.8595  0.6959  0.8067
 5315TIP3    H137360   4.557   5.309   0.734  0.9157 -0.2582  0.8140
 5315TIP3    H237361   4.552   5.181   0.816 -3.0529  0.2126  1.5391
 5316TIP3   OH237362   4.663   4.904   6.046 -0.2907 -0.0602  0.1070
 5316TIP3    H137363   4.701   4.850   6.115 -2.3645 -2.0018 -0.1447
 5316TIP3    H237364   4.628   4.980   6.092  0.1558 -0.3311  0.9139
 5317TIP3   OH237365   6.255   3.029  14.230  0.8271 -0.0865  0.5275
 5317TIP3    H137366   6.296   3.106  14.192 -0.5552  0.9517  1.0647
 5317TIP3    H237367   6.198   2.996  14.161 -0.0658  0.5494  0.9397
 5318TIP3   OH237368   1.770   3.548  15.346  0.5586  0.7599 -0.0639
 5318TIP3    H137369   1.678   3.527  15.360  0.4415  1.3120  0.0287
 5318TIP3    H237370   1.769   3.636  15.310  1.1101  1.3270  1.2525
 5319TIP3   OH237371   4.249   0.125   1.402  0.1180 -0.1543  0.2957
 5319TIP3    H137372   4.251   0.077   1.485  3.1935 -1.4071 -0.3528
 5319TIP3    H237373   4.241   0.057   1.335  0.8472  0.5456 -0.5337
 5320TIP3   OH237374   4.260   5.742   0.907  0.5738  0.4895 -0.0430
 5320TIP3    H137375   4.240   5.771   0.818  0.0587  0.7350  0.1505
 5320TIP3    H237376   4.183   5.694   0.935  1.3623 -0.9700 -0.2963
 5321TIP3   OH237377   3.207   6.399  15.777 -0.3377  0.0648  0.0053
 5321TIP3    H137378   3.126   6.447  15.794  0.2778  2.3958 -2.7232
 5321TIP3    H237379   3.187   6.342  15.704  0.3319  0.2559 -0.3378
 5322TIP3   OH237380   5.192   1.649   0.491 -0.0490  0.3753 -0.5465
 5322TIP3    H137381   5.172   1.707   0.564 -1.1024  1.6872 -1.7965
 5322TIP3    H237382   5.286   1.633   0.497  0.0178  1.1020  0.6093
 5323TIP3   OH237383   0.250   3.993   5.926  0.4763  0.5732 -0.5659
 5323TIP3    H137384   0.196   3.988   6.005  1.2498  1.5916  0.0606
 5323TIP3    H237385   0.290   3.906   5.920 -2.4753 -0.8138 -2.0395
 5324TIP3   OH237386   3.192   4.206  16.916 -0.6187 -0.1151  0.3575
 5324TIP3    H137387   3.277   4.248  16.907 -0.5008 -0.3956  0.1462
 5324TIP3    H237388   3.211   4.118  16.949 -0.6669 -0.8160 -1.3624
 5325TIP3   OH237389   6.288   0.035  12.230 -0.5825 -0.5317 -0.1782
 5325TIP3    H137390   6.363   0.059  12.176  0.3077  1.4768  1.8056
 5325TIP3    H237391   6.288  -0.060  12.231 -0.6602 -0.6863 -3.6499
 5326TIP3   OH237392   2.311   4.750   0.551 -0.1110 -0.5133  0.4212
 5326TIP3    H137393   2.250   4.793   0.491  0.3055  0.0201  0.3698
 5326TIP3    H237394   2.393   4.745   0.502  0.6218  1.1509  1.3991
 5327TIP3   OH237395   6.432   6.292   1.489 -0.1277  0.2455 -0.1592
 5327TIP3    H137396   6.479   6.375   1.488 -3.0946  2.0309 -1.4833
 5327TIP3    H237397   6.422   6.272   1.583  0.3488  1.5522  0.1931
 5328TIP3   OH237398   6.214   5.040   0.887  0.5503  0.5315 -0.3503
 5328TIP3    H137399   6.173   4.980   0.824 -0.0503  1.6946 -1.1125
 5328TIP3    H237400   6.223   4.988   0.967 -0.5913 -0.3640 -0.7621
 5329TIP3   OH237401   0.312   0.745  15.894 -0.0568 -0.2756  0.5315
 5329TIP3    H137402   0.408   0.751  15.889  0.1461 -2.4489  0.6131
 5329TIP3    H237403   0.292   0.743  15.987  0.0057 -1.4136  0.5423
 5330TIP3   OH237404   4.601   6.209   2.701  0.2993 -0.1110 -0.1190
 5330TIP3    H137405   4.623   6.132   2.753  0.0097 -1.0774 -1.3854
 5330TIP3    H237406   4.685   6.253   2.688  0.3158  0.3957  1.5035
 5331TIP3   OH237407   3.348   0.273  13.667 -0.4492 -0.2986  0.1814
 5331TIP3    H137408   3.332   0.346  13.727 -0.1541 -0.6012  0.6338
 5331TIP3    H237409   3.262   0.234  13.654 -0.4890 -0.3405  0.5530
 5332TIP3   OH237410   1.193   2.472  13.339 -0.2782 -0.4426 -0.1485
 5332TIP3    H137411   1.159   2.385  13.315  2.5824 -2.3835  2.0959
 5332TIP3    H237412   1.145   2.496  13.418  1.5850 -1.9997  1.5628
 5333TIP3   OH237413   5.592   6.636  15.028 -0.1935  0.1266  0.2405
 5333TIP3    H137414   5.606   6.614  15.120 -0.1435  2.9398  0.9828
 5333TIP3    H237415   5.680   6.631  14.989  0.2623  1.5521  1.0185
 5334TIP3   OH237416   4.201   4.218   0.752 -0.0908  0.5646 -0.5100
 5334TIP3    H137417   4.179   4.301   0.710 -1.0341  0.5182 -0.1167
 5334TIP3    H237418   4.227   4.242   0.841 -2.2212  0.3054  0.2400
 5335TIP3   OH237419   0.822   0.013   3.036  0.3105 -0.6372  0.0714
 5335TIP3    H137420   0.815  -0.073   3.077 -2.4856  0.1103  1.4900
 5335TIP3    H237421   0.786   0.073   3.102 -1.4806  1.0770 -2.2723
 5336TIP3   OH237422   3.955   3.003  12.903 -0.4701  0.3789  0.0826
 5336TIP3    H137423   3.992   3.033  12.820 -0.8585 -2.0142 -1.0568
 5336TIP3    H237424   3.881   3.061  12.919  0.3937  1.6909 -0.5535
 5337TIP3   OH237425   3.753   2.291  13.141  0.7747 -0.5242  0.1439
 5337TIP3    H137426   3.704   2.209  13.149 -1.3709  0.4985 -1.6056
 5337TIP3    H237427   3.845   2.264  13.152  0.0732 -2.9494  0.8417
 5338TIP3   OH237428   2.840   1.847   2.960  0.0009  0.8562 -0.4373
 5338TIP3    H137429   2.776   1.913   2.987 -0.0380  0.1996  1.2013
 5338TIP3    H237430   2.787   1.775   2.927  0.0382  1.5278 -2.0640
 5339TIP3   OH237431   6.666   1.208  15.535  0.0411 -0.3843 -0.5317
 5339TIP3    H137432   6.751   1.171  15.512  0.9640  1.6433 -0.5932
 5339TIP3    H237433   6.632   1.149  15.603  1.7652 -0.9092 -0.0718
 5340TIP3   OH237434   4.113   4.616   3.041 -0.3734  0.2272 -0.0945
 5340TIP3    H137435   4.102   4.624   2.947  2.3578  2.3757 -0.3865
 5340TIP3    H237436   4.045   4.673   3.078  0.4309  1.8350 -0.9777
 5341TIP3   OH237437   4.960   5.729  12.042 -0.3838 -0.2925  0.5532
 5341TIP3    H137438   4.882   5.770  12.005 -0.4033 -0.1285  0.7702
 5341TIP3    H237439   5.026   5.798  12.040 -0.1168 -0.5603 -0.0317
 5342TIP3   OH237440   2.180   3.237   3.385 -0.0391  0.3492  0.5562
 5342TIP3    H137441   2.213   3.166   3.440  1.9256  1.3454  0.7606
 5342TIP3    H237442   2.247   3.249   3.318 -1.4110  0.5511 -0.8308
 5343TIP3   OH237443   6.387   6.218   0.982 -0.0382  0.0831  0.3498
 5343TIP3    H137444   6.376   6.294   1.040 -0.4853 -1.1372  1.9243
 5343TIP3    H237445   6.457   6.167   1.022  0.1980 -0.4053 -0.6429
 5344TIP3   OH237446   2.965   4.681   1.269 -0.1331  0.0827  0.0484
 5344TIP3    H137447   2.958   4.673   1.364 -1.7280  2.0990  0.1981
 5344TIP3    H237448   2.915   4.607   1.235  0.1150 -0.4370  0.7865
 5345TIP3   OH237449   3.712   4.325  10.555 -0.0741 -0.3712 -0.6854
 5345TIP3    H137450   3.674   4.242  10.525 -3.0353 -0.6857  3.1083
 5345TIP3    H237451   3.697   4.386  10.483 -0.0080 -2.4926 -2.6318
 5346TIP3   OH237452   3.741   2.224  13.896  0.5090  0.0886  0.1892
 5346TIP3    H137453   3.772   2.282  13.826  0.2959 -2.0270 -1.7782
 5346TIP3    H237454   3.807   2.234  13.965  1.0002  1.8811 -0.4631
 5347TIP3   OH237455   2.925   6.270   2.355  0.0660 -0.0253  0.0173
 5347TIP3    H137456   2.926   6.175   2.369  0.0747  0.1499  1.2875
 5347TIP3    H237457   2.932   6.308   2.442 -0.7382  1.1531 -0.3940
 5348TIP3   OH237458   6.743   6.257  12.744  0.1156  0.3201  0.4231
 5348TIP3    H137459   6.814   6.304  12.701 -1.4431  0.9607 -1.6279
 5348TIP3    H237460   6.689   6.326  12.782 -1.4340  0.1979 -1.3956
 5349TIP3   OH237461   6.166   5.041  14.994 -0.0078 -0.4270  0.2139
 5349TIP3    H137462   6.134   4.954  14.970  1.4149 -0.9058 -0.0365
 5349TIP3    H237463   6.248   5.025  15.040 -0.0780  0.7626  0.8015
 5350TIP3   OH237464   0.988   2.627  14.097 -0.6255  0.4075 -0.1850
 5350TIP3    H137465   1.037   2.699  14.058 -1.1098  0.4483 -0.7347
 5350TIP3    H237466   0.982   2.561  14.028  1.1519 -0.8662  0.7724
 5351TIP3   OH237467   5.943   2.065   4.569  0.9384 -0.8225  0.3702
 5351TIP3    H137468   5.988   2.017   4.499 -0.8057 -1.2532 -0.4997
 5351TIP3    H237469   5.885   2.001   4.609  0.1944  0.0090  0.6532
 5352TIP3   OH237470   3.936   3.278  13.910  0.2042  0.5071  0.1336
 5352TIP3    H137471   3.969   3.253  13.824 -0.7460 -0.0971 -0.0648
 5352TIP3    H237472   3.848   3.241  13.915  0.1696  0.6859  1.2940
 5353TIP3   OH237473   5.016   1.606  11.472  0.0545  0.4523  0.5831
 5353TIP3    H137474   5.040   1.515  11.453 -0.6454  0.3662  0.0544
 5353TIP3    H237475   5.017   1.612  11.568  0.2263 -0.0761  0.6173
 5354TIP3   OH237476   5.045   5.553   0.530  0.2694  0.2162  0.2422
 5354TIP3    H137477   4.999   5.621   0.578  3.0810  1.8958  0.8116
 5354TIP3    H237478   5.059   5.589   0.443  1.7458  0.3997  0.5315
 5355TIP3   OH237479   6.396   0.020   3.447 -0.0107  0.2848 -0.0992
 5355TIP3    H137480   6.304   0.004   3.424 -0.1569 -0.2525  0.8074
 5355TIP3    H237481   6.445  -0.001   3.368 -0.8343  2.7745 -1.3705
 5356TIP3   OH237482   6.093   4.249   0.997 -0.2337  0.0490 -0.5438
 5356TIP3    H137483   6.067   4.167   0.955 -1.4138  0.0663  0.0972
 5356TIP3    H237484   6.066   4.317   0.935 -1.9497  0.0726  0.1529
 5357TIP3   OH237485   1.090   1.840  16.901 -0.0168 -0.1003 -0.6977
 5357TIP3    H137486   1.159   1.899  16.932  1.5836 -0.9008 -2.5967
 5357TIP3    H237487   1.036   1.895  16.845 -0.7283  0.4234  0.4578
 5358TIP3   OH237488   5.288   0.417  12.045 -0.2440 -0.0993  0.0050
 5358TIP3    H137489   5.273   0.326  12.071  1.1085 -0.8176 -1.5539
 5358TIP3    H237490   5.260   0.421  11.954  0.3438  0.8829 -0.1459
 5359TIP3   OH237491   4.437   2.278  11.883  0.0580  0.0898 -0.2438
 5359TIP3    H137492   4.486   2.245  11.808  0.8586  0.7958 -0.0483
 5359TIP3    H237493   4.456   2.372  11.885 -0.5856  0.2178  0.3765
 5360TIP3   OH237494   0.467   5.709  14.406 -0.3020  0.3506 -0.4576
 5360TIP3    H137495   0.515   5.666  14.476  1.0208  0.5208 -1.2162
 5360TIP3    H237496   0.424   5.783  14.449  0.5488  0.4998  0.1793
 5361TIP3   OH237497   4.078   3.748   0.045 -0.3005 -0.1081 -0.4956
 5361TIP3    H137498   4.119   3.821  -0.001 -0.6109 -0.6373 -1.6566
 5361TIP3    H237499   4.013   3.789   0.102 -0.9640  0.5022 -1.6513
 5362TIP3   OH237500   2.320   4.553   2.523  0.0227  0.2217  0.4902
 5362TIP3    H137501   2.266   4.506   2.587  1.0747 -0.7681  0.6851
 5362TIP3    H237502   2.407   4.555   2.562  1.3063 -2.5113 -1.8138
 5363TIP3   OH237503   1.403   2.172   2.003  0.5680  0.5007 -0.2016
 5363TIP3    H137504   1.393   2.083   1.972  0.0600  1.6190 -3.6893
 5363TIP3    H237505   1.481   2.170   2.059 -1.1539 -2.5911  2.4049
 5364TIP3   OH237506   0.515   3.562  12.021  0.5091 -0.0563 -0.2025
 5364TIP3    H137507   0.441   3.583  12.078  1.3910  0.4269  0.7921
 5364TIP3    H237508   0.591   3.560  12.079  0.7839 -4.8895 -0.3428
 5365TIP3   OH237509   3.647   5.215  13.092 -0.4739 -0.1526  0.1568
 5365TIP3    H137510   3.686   5.128  13.078  0.7656  0.3044  0.6385
 5365TIP3    H237511   3.575   5.198  13.153 -1.1866 -1.0480 -0.9029
 5366TIP3   OH237512   4.251   3.395   4.123  0.2105  0.1030  0.0792
 5366TIP3    H137513   4.204   3.315   4.145 -0.7685  0.7829  0.5441
 5366TIP3    H237514   4.336   3.386   4.166 -0.5361  0.0466  1.6049
 5367TIP3   OH237515   3.185   0.187   6.822 -0.0905 -0.2716 -0.1865
 5367TIP3    H137516   3.202   0.139   6.741  0.8819  0.4986 -0.4527
 5367TIP3    H237517   3.164   0.119   6.886 -1.4433 -0.8573 -1.2021
 5368TIP3   OH237518   6.556   0.372  13.017 -0.1893  0.5223  0.7392
 5368TIP3    H137519   6.503   0.445  12.983 -1.0189 -0.0041  0.8842
 5368TIP3    H237520   6.528   0.363  13.108  0.6358  0.6587  1.0161
 5369TIP3   OH237521   3.369   5.208  12.139 -0.3444  0.2618 -0.6844
 5369TIP3    H137522   3.341   5.117  12.135 -1.3064  0.4966  0.1258
 5369TIP3    H237523   3.312   5.247  12.205  1.4778  0.9597  0.5387
 5370TIP3   OH237524   3.224   1.301  16.178  0.3728 -0.3557  0.2865
 5370TIP3    H137525   3.291   1.260  16.232 -1.4545 -4.2242 -0.0873
 5370TIP3    H237526   3.142   1.286  16.226 -0.5614  2.3490 -0.2791
 5371TIP3   OH237527   2.024   0.969  13.214 -0.1576 -0.5784 -0.8608
 5371TIP3    H137528   2.024   1.017  13.131 -1.1554 -0.7015 -0.9408
 5371TIP3    H237529   1.942   0.919  13.213 -0.5389 -0.0174  0.5136
 5372TIP3   OH237530   2.201   3.926   5.608 -0.4657 -0.0332 -0.4698
 5372TIP3    H137531   2.193   3.910   5.702  1.3100 -0.3816 -0.3441
 5372TIP3    H237532   2.260   4.001   5.602 -0.7030  0.0929 -1.3111
 5373TIP3   OH237533   4.685   0.311  14.493  0.0876  0.4741 -0.1549
 5373TIP3    H137534   4.591   0.292  14.498  0.1341  0.3844  0.5752
 5373TIP3    H237535   4.709   0.292  14.402 -0.7063  1.0225 -0.4865
 5374TIP3   OH237536   6.045   5.024   3.007  0.0132 -0.6257  0.5940
 5374TIP3    H137537   5.988   5.040   2.932 -0.0596  1.6023  1.0717
 5374TIP3    H237538   6.065   4.930   3.002 -2.5310 -1.1890 -0.3792
 5375TIP3   OH237539   1.673   0.290  15.339  0.0991 -0.3004 -0.0288
 5375TIP3    H137540   1.619   0.219  15.304 -1.9033  0.7176  0.8500
 5375TIP3    H237541   1.610   0.358  15.363  1.8160  1.0370  0.8657
 5376TIP3   OH237542   2.896   6.220  12.637  0.0775 -0.2335 -0.0701
 5376TIP3    H137543   2.812   6.255  12.609 -1.2980 -2.5971  0.7900
 5376TIP3    H237544   2.906   6.138  12.588  1.7748 -0.1396  0.0423
 5377TIP3   OH237545   3.150   1.048   3.975 -0.2864  0.0116  0.1053
 5377TIP3    H137546   3.122   0.984   4.040  0.6767  0.3481  0.8908
 5377TIP3    H237547   3.237   1.018   3.948 -0.2324  0.4572 -0.2199
 5378TIP3   OH237548   6.247   0.639  11.462 -0.0234 -0.0878 -0.1417
 5378TIP3    H137549   6.337   0.663  11.440 -0.0107 -1.1657 -1.4188
 5378TIP3    H237550   6.256   0.581  11.538  0.0705  2.2960  1.7881
 5379TIP3   OH237551   3.925   4.405   3.907  0.4460  0.1132 -0.2928
 5379TIP3    H137552   3.978   4.472   3.949 -1.9017 -0.1031  3.5129
 5379TIP3    H237553   3.974   4.324   3.920  0.8074  0.3751 -0.0044
 5380TIP3   OH237554   3.012   1.372  13.207  0.3548 -0.4899 -0.0354
 5380TIP3    H137555   3.070   1.444  13.180  0.7349 -0.5835  0.5068
 5380TIP3    H237556   3.071   1.308  13.248 -0.1532 -0.4864  0.7363
 5381TIP3   OH237557   2.179   5.331   2.783  0.0340  0.7322  0.1672
 5381TIP3    H137558   2.252   5.271   2.772  0.0555  0.7088  0.4317
 5381TIP3    H237559   2.213   5.401   2.839 -0.2592  0.5124  0.6341
 5382TIP3   OH237560   4.737   4.176   2.905 -0.3621 -0.3881  0.1680
 5382TIP3    H137561   4.704   4.103   2.957 -1.6429  1.0361  1.4061
 5382TIP3    H237562   4.660   4.230   2.886  0.6328  0.9341 -0.2764
 5383TIP3   OH237563   3.776   3.585   5.542 -0.0241 -0.1785 -0.0714
 5383TIP3    H137564   3.771   3.555   5.452  0.2448 -1.4348  0.3111
 5383TIP3    H237565   3.696   3.551   5.583 -0.0252  0.1697  0.2259
 5384TIP3   OH237566   1.609   1.492   4.284  0.3493 -0.3849 -0.2119
 5384TIP3    H137567   1.608   1.408   4.331  0.5162  0.0012  0.4967
 5384TIP3    H237568   1.516   1.515   4.275  0.2985  1.0150  2.6931
 5385TIP3   OH237569   3.190   4.210   2.434 -0.3636  0.1163 -0.0604
 5385TIP3    H137570   3.127   4.282   2.430 -2.9285 -1.9357  0.3785
 5385TIP3    H237571   3.135   4.131   2.436  2.2672 -2.0348 -2.9946
 5386TIP3   OH237572   2.233   0.680  11.702 -0.2978 -0.0882  0.0878
 5386TIP3    H137573   2.183   0.662  11.622 -0.0998  0.0048 -0.0579
 5386TIP3    H237574   2.266   0.594  11.729  0.3117 -0.0090 -0.3832
 5387TIP3   OH237575   2.836   3.331   1.903 -0.1398  0.2553 -0.1387
 5387TIP3    H137576   2.833   3.418   1.863 -3.1672 -0.0609 -0.8235
 5387TIP3    H237577   2.883   3.277   1.840 -1.6070  0.5882 -1.5814
 5388TIP3   OH237578   6.564   2.795   2.724  0.0693  0.1129 -0.3706
 5388TIP3    H137579   6.611   2.766   2.802 -1.7602  1.0219  1.1591
 5388TIP3    H237580   6.619   2.863   2.686  2.2300 -2.0929 -1.4533
 5389TIP3   OH237581   5.587   6.154  12.485  0.3477 -0.3965 -0.4542
 5389TIP3    H137582   5.638   6.141  12.405 -0.4764  1.2751 -1.2960
 5389TIP3    H237583   5.574   6.066  12.520  1.6067 -1.0611 -1.5923
 5390TIP3   OH237584   4.361   1.928   1.385 -0.1301 -0.2593 -0.1125
 5390TIP3    H137585   4.404   1.898   1.304 -1.0980 -3.2221  0.3236
 5390TIP3    H237586   4.275   1.957   1.356 -0.3527 -0.9932 -0.2067
 5391TIP3   OH237587   0.392   5.263   3.263 -0.6124  0.3201  0.5052
 5391TIP3    H137588   0.309   5.272   3.309 -1.1076  2.6562 -0.6512
 5391TIP3    H237589   0.367   5.236   3.174 -0.2340  1.4205  0.0381
 5392TIP3   OH237590   5.529   5.203   6.518  0.1220 -0.3873  0.3085
 5392TIP3    H137591   5.490   5.281   6.559  2.4125  2.2856 -2.1193
 5392TIP3    H237592   5.581   5.163   6.588 -0.3304  0.8318  1.3893
 5393TIP3   OH237593   5.108   2.560   4.897  0.0427  0.0611  0.0295
 5393TIP3    H137594   5.023   2.526   4.926 -0.9930 -0.9827 -3.6300
 5393TIP3    H237595   5.161   2.481   4.883  0.4143  0.4702 -0.9200
 5394TIP3   OH237596   4.346   0.916  16.724 -0.2149 -0.0116  0.9205
 5394TIP3    H137597   4.369   0.830  16.688  0.2982  0.9267 -1.1843
 5394TIP3    H237598   4.355   0.905  16.818  0.8059 -2.0068  0.6648
 5395TIP3   OH237599   3.025   1.742   3.373 -0.2421  0.2185  0.5314
 5395TIP3    H137600   3.069   1.823   3.346 -0.6443  0.2951  0.0842
 5395TIP3    H237601   3.096   1.677   3.376 -0.0357  0.4209  0.1727
 5396TIP3   OH237602   1.107   6.303   3.098  0.2113 -0.7065  0.1568
 5396TIP3    H137603   1.183   6.300   3.041  0.2964  1.8670  0.0127
 5396TIP3    H237604   1.138   6.267   3.181  2.1501  1.7775  0.6176
 5397TIP3   OH237605   0.278   3.823   2.048  0.0142  0.1904 -0.5466
 5397TIP3    H137606   0.312   3.756   2.108  0.4909  0.4758 -0.4946
 5397TIP3    H237607   0.193   3.788   2.019  0.4157 -0.6137 -0.8050
 5398TIP3   OH237608   2.305   0.096  16.718 -0.2557 -0.2600 -0.2695
 5398TIP3    H137609   2.376   0.095  16.783 -0.7959 -3.5963  0.4755
 5398TIP3    H237610   2.350   0.092  16.634  0.4682 -0.8838  0.1329
 5399TIP3   OH237611   6.255   3.874  14.147 -0.3995  0.3563 -0.4191
 5399TIP3    H137612   6.185   3.841  14.202 -0.5653  0.8616 -0.3148
 5399TIP3    H237613   6.278   3.959  14.186  0.8981 -0.1994  0.0938
 5400TIP3   OH237614   6.683   6.072  15.311  0.6262  0.0737 -0.4623
 5400TIP3    H137615   6.757   6.131  15.322  0.4503  0.1769  0.2203
 5400TIP3    H237616   6.714   6.004  15.251  1.2582  0.1283 -0.1945
 5401TIP3   OH237617   5.282   2.241  11.193 -0.2502  0.2557  0.2332
 5401TIP3    H137618   5.333   2.162  11.174 -1.5101 -0.4737 -0.2267
 5401TIP3    H237619   5.345   2.300  11.234  1.9034  0.6917 -3.2015
 5402TIP3   OH237620   5.010   4.134  10.490  0.3392 -0.0661  0.1053
 5402TIP3    H137621   5.019   4.060  10.429  0.5877  0.1326 -0.1006
 5402TIP3    H237622   5.074   4.116  10.559  2.1260  1.1503 -1.1622
 5403TIP3   OH237623   3.553   6.725  14.302  0.0754 -0.0654  0.8551
 5403TIP3    H137624   3.462   6.755  14.311 -1.2712 -3.7717  1.5100
 5403TIP3    H237625   3.579   6.701  14.391  0.9507 -0.9144  0.3896
 5404TIP3   OH237626   3.859   4.659  12.887 -0.2981 -0.2834 -0.1746
 5404TIP3    H137627   3.819   4.644  12.801 -0.6567  1.6172 -0.3923
 5404TIP3    H237628   3.921   4.587  12.898 -0.8297 -1.0060 -1.6674
 5405TIP3   OH237629   2.901   3.557   2.893 -0.0506 -0.1086 -0.1290
 5405TIP3    H137630   2.808   3.554   2.915 -0.1678  0.9505 -0.4014
 5405TIP3    H237631   2.933   3.636   2.937  0.8208 -0.7063  0.3170
 5406TIP3   OH237632   6.673   5.043  13.857 -0.3301  0.2822  0.3229
 5406TIP3    H137633   6.579   5.056  13.845 -0.4053 -0.2869  0.2696
 5406TIP3    H237634   6.713   5.074  13.776 -0.6228 -1.1374 -0.3899
 5407TIP3   OH237635   5.517   3.766  14.104 -0.5338 -0.0651 -0.5335
 5407TIP3    H137636   5.458   3.706  14.058 -1.5813  0.6922 -0.2160
 5407TIP3    H237637   5.460   3.835  14.136  0.7186  1.4094 -1.3811
 5408TIP3   OH237638   5.720   5.018   4.638 -0.0813 -0.5127 -0.4653
 5408TIP3    H137639   5.756   5.069   4.710 -0.8697 -1.3322  0.5353
 5408TIP3    H237640   5.641   5.066   4.612 -1.2056 -1.5008  0.9275
 5409TIP3   OH237641   4.210   2.387  14.149  0.5000 -0.0744 -0.0391
 5409TIP3    H137642   4.207   2.455  14.216 -2.1551 -0.2304  0.0719
 5409TIP3    H237643   4.180   2.308  14.193  1.0896 -0.7622 -0.8208
 5410TIP3   OH237644   3.714   2.416  14.509  0.4324 -0.2218 -0.7015
 5410TIP3    H137645   3.769   2.427  14.587 -0.5729  0.2115 -0.0264
 5410TIP3    H237646   3.750   2.340  14.464  0.4518 -1.0549  0.6877
 5411TIP3   OH237647   5.883   0.836  14.368 -0.0753 -0.1139  0.2102
 5411TIP3    H137648   5.838   0.765  14.321 -0.6938 -0.6935  1.6193
 5411TIP3    H237649   5.952   0.791  14.418  0.7689  0.5288 -0.3405
 5412TIP3   OH237650   2.920   3.243   4.679  0.0545 -0.0422 -0.0726
 5412TIP3    H137651   2.961   3.157   4.671 -0.0826 -0.1323  0.1985
 5412TIP3    H237652   2.826   3.226   4.681  0.0400  0.0783  0.4084
 5413TIP3   OH237653   1.814   4.665  14.900  0.0840 -0.2744  0.0375
 5413TIP3    H137654   1.881   4.689  14.964 -0.5650 -0.6496  0.8617
 5413TIP3    H237655   1.849   4.587  14.858  0.3003 -0.2979  0.2593
 5414TIP3   OH237656   6.496   5.572   5.125 -0.4856 -0.1622 -0.6888
 5414TIP3    H137657   6.436   5.613   5.063  0.2520  1.5222 -0.3546
 5414TIP3    H237658   6.475   5.613   5.209  0.9035  0.2729 -0.5147
 5415TIP3   OH237659   0.619   1.768  15.665  0.2399 -0.3379 -0.0405
 5415TIP3    H137660   0.693   1.709  15.654 -0.1849 -0.8817 -0.0593
 5415TIP3    H237661   0.656   1.845  15.708  1.2775  0.4475 -2.2388
 5416TIP3   OH237662   2.434   4.455  10.960  0.0950 -0.0837  0.1058
 5416TIP3    H137663   2.365   4.519  10.941 -0.0858  0.4226  2.2587
 5416TIP3    H237664   2.387   4.372  10.972  0.4069 -1.0486 -3.7452
 5417TIP3   OH237665   2.504   0.610   6.719  0.3371  0.4502  0.0645
 5417TIP3    H137666   2.479   0.553   6.646 -0.0551  0.2077  0.3822
 5417TIP3    H237667   2.474   0.697   6.692  0.8267  0.4915 -0.3675
 5418TIP3   OH237668   5.176   6.301  14.686 -0.0449  0.2736 -0.5490
 5418TIP3    H137669   5.105   6.298  14.622 -1.2292  0.3137  0.7128
 5418TIP3    H237670   5.215   6.388  14.677 -0.9911  0.7165 -0.4001
 5419TIP3   OH237671   2.006   5.333  11.707  0.2554  0.0755  0.3215
 5419TIP3    H137672   2.092   5.349  11.668  0.2585  0.4237  0.4660
 5419TIP3    H237673   1.987   5.242  11.686  1.1442 -0.3288  1.2338
 5420TIP3   OH237674   0.363   6.686  12.145  0.3574  0.3097 -0.2711
 5420TIP3    H137675   0.426   6.756  12.160  1.5198 -0.7588 -0.0701
 5420TIP3    H237676   0.373   6.664  12.053 -0.9047  1.2163 -0.6676
 5421TIP3   OH237677   0.860   5.947  16.722  0.2889 -0.4267  0.1742
 5421TIP3    H137678   0.835   5.994  16.642 -0.9951 -2.0643 -0.4620
 5421TIP3    H237679   0.860   5.855  16.696 -0.0635 -0.9930  2.0452
 5422TIP3   OH237680   6.504   1.265   5.900  0.0992  0.5312  0.2741
 5422TIP3    H137681   6.589   1.299   5.926  1.9033 -1.8343 -1.9184
 5422TIP3    H237682   6.479   1.318   5.824 -0.0860  0.8170  0.5323
 5423TIP3   OH237683   2.409   1.747  12.607  0.6616  0.0910 -0.1481
 5423TIP3    H137684   2.495   1.787  12.617  0.3747  0.4165  1.2429
 5423TIP3    H237685   2.347   1.816  12.632 -0.1029  0.2539 -2.2571
 5424TIP3   OH237686   0.447   2.405  14.314  0.2719  0.3895 -0.4918
 5424TIP3    H137687   0.533   2.379  14.346 -0.0030  1.9381  1.7263
 5424TIP3    H237688   0.443   2.372  14.224  1.4721 -3.4814  0.7165
 5425TIP3   OH237689   0.998   2.827   5.184  0.4782  0.6728  0.3347
 5425TIP3    H137690   1.041   2.909   5.159  1.5347  0.2945  0.8846
 5425TIP3    H237691   0.934   2.853   5.251  1.5249  0.9198  1.2606
 5426TIP3   OH237692   1.127   0.001   1.543 -0.5208 -0.3203 -0.0047
 5426TIP3    H137693   1.176   0.063   1.489 -0.7437 -1.1695 -1.2065
 5426TIP3    H237694   1.063  -0.039   1.483 -2.9041  0.9202  1.5301
 5427TIP3   OH237695   4.606   5.743   2.953 -0.0333  0.1748 -0.2476
 5427TIP3    H137696   4.646   5.662   2.921 -0.0678 -0.6637  1.7169
 5427TIP3    H237697   4.670   5.778   3.015 -0.1198  1.5583 -0.9067
 5428TIP3   OH237698   2.639   4.666  10.427 -0.6260  0.2046 -0.3441
 5428TIP3    H137699   2.657   4.714  10.346  2.5326  0.1471  0.1994
 5428TIP3    H237700   2.722   4.624  10.448 -2.0898 -1.9074  1.5814
 5429TIP3   OH237701   4.339   2.102  13.002 -0.0208  0.4127  0.3706
 5429TIP3    H137702   4.309   2.152  12.926 -2.1334 -2.9913 -1.2919
 5429TIP3    H237703   4.421   2.062  12.973  1.0350  1.7951  1.2751
 5430TIP3   OH237704   2.706   0.446  14.183 -0.3710  0.3162  0.2627
 5430TIP3    H137705   2.768   0.372  14.185 -1.2488 -0.4527 -0.2481
 5430TIP3    H237706   2.675   0.454  14.273  0.3825  0.6348  0.5009
 5431TIP3   OH237707   2.798   5.401  14.262  0.0249 -0.0945 -0.2399
 5431TIP3    H137708   2.819   5.487  14.226  1.0379 -0.5031 -0.6646
 5431TIP3    H237709   2.862   5.342  14.222 -0.4831 -1.0003  0.2524
 5432TIP3   OH237710   1.545   4.996  11.286  0.3760 -0.4616  0.4057
 5432TIP3    H137711   1.636   4.966  11.289  0.3822 -0.5315 -0.3351
 5432TIP3    H237712   1.530   5.035  11.372  0.9086 -1.0155  0.7548
 5433TIP3   OH237713   1.620   3.681   2.237  0.0579 -0.5028 -0.1745
 5433TIP3    H137714   1.603   3.716   2.324  1.1497 -1.8821  0.6228
 5433TIP3    H237715   1.534   3.664   2.200 -0.4496  1.0704  0.1878
 5434TIP3   OH237716   0.730   2.344   2.241  0.6808  0.0144  0.6641
 5434TIP3    H137717   0.664   2.403   2.204  0.8826 -0.4044 -0.4009
 5434TIP3    H237718   0.800   2.342   2.176  1.5390  0.0740  1.5615
 5435TIP3   OH237719   0.318   3.496  11.065 -0.3898  1.3401 -0.2958
 5435TIP3    H137720   0.390   3.442  11.099 -2.0552 -0.5793  0.3467
 5435TIP3    H237721   0.300   3.460  10.978 -3.1007 -0.9066  1.0650
 5436TIP3   OH237722   0.631   2.480   4.875 -0.4722  0.0633  0.7548
 5436TIP3    H137723   0.674   2.464   4.959 -0.1871  0.6986  0.7340
 5436TIP3    H237724   0.649   2.572   4.856  0.8279 -0.4710 -0.7862
 5437TIP3   OH237725   4.604   2.784   2.904  0.7276 -0.1670 -0.4637
 5437TIP3    H137726   4.641   2.847   2.966  3.3261 -0.4082 -1.6455
 5437TIP3    H237727   4.663   2.709   2.909  0.8317 -0.3239 -2.9724
 5438TIP3   OH237728   1.914   2.056   1.409  0.2593 -0.1965  0.4171
 5438TIP3    H137729   1.877   1.981   1.455 -0.0086 -0.1413  0.2932
 5438TIP3    H237730   1.891   2.131   1.463  0.2776 -0.1723  0.3916
 5439TIP3   OH237731   0.995   3.404  14.104  0.4801 -0.4468 -0.3111
 5439TIP3    H137732   0.963   3.347  14.174  0.2423 -3.1442 -2.4329
 5439TIP3    H237733   1.088   3.381  14.096  0.2984 -0.8848 -1.4313
 5440TIP3   OH237734   2.521   3.828   3.338 -0.4593 -0.0258 -0.1081
 5440TIP3    H137735   2.500   3.735   3.337  0.2595 -0.1887 -0.5594
 5440TIP3    H237736   2.470   3.863   3.411  0.0535 -0.9654  0.7362
 5441TIP3   OH237737   2.154   1.269  13.473  0.4118 -0.0751  0.1430
 5441TIP3    H137738   2.183   1.299  13.387  1.4786 -0.7500  0.2449
 5441TIP3    H237739   2.198   1.185  13.485 -2.5777 -1.8212 -0.1893
 5442TIP3   OH237740   3.666   6.721  16.446  0.2487  0.1455 -0.0823
 5442TIP3    H137741   3.734   6.775  16.485  0.0671 -0.5771  1.2929
 5442TIP3    H237742   3.604   6.783  16.407 -0.3369  0.9940  2.0674
 5443TIP3   OH237743   3.055   0.511  16.309 -0.0207  0.9453 -0.3713
 5443TIP3    H137744   3.091   0.445  16.368 -0.1947 -1.1103 -2.4079
 5443TIP3    H237745   3.004   0.568  16.365  1.1106  0.0528  1.6586
 5444TIP3   OH237746   0.594   3.606  11.760 -0.4659 -0.4738 -0.1950
 5444TIP3    H137747   0.572   3.576  11.848 -0.5286  2.4421  0.8981
 5444TIP3    H237748   0.667   3.549  11.733 -0.2211 -1.2178  1.8648
 5445TIP3   OH237749   5.011   4.016  13.851  0.0202  0.0173 -0.3094
 5445TIP3    H137750   5.064   4.050  13.779 -0.4055  0.0545 -0.6045
 5445TIP3    H237751   5.010   3.921  13.838  0.5074 -0.0431  0.0389
 5446TIP3   OH237752   3.699   6.174  13.688 -0.2386  0.3488 -0.1651
 5446TIP3    H137753   3.724   6.123  13.611 -0.3018 -0.8241  0.5671
 5446TIP3    H237754   3.734   6.261  13.671  3.0642 -0.7885  0.0952
 5447TIP3   OH237755   0.968   0.793  16.571  0.7757  0.1619  0.1871
 5447TIP3    H137756   1.027   0.848  16.520  0.3103  2.0916  1.5934
 5447TIP3    H237757   1.026   0.744  16.629  1.1125  0.6554  0.2766
 5448TIP3   OH237758   2.046   6.714   1.055 -0.2814 -0.0855  1.2385
 5448TIP3    H137759   2.061   6.781   0.988 -1.4700 -0.8359  0.1796
 5448TIP3    H237760   2.059   6.631   1.009  0.0152 -0.6129  2.2409
 5449TIP3   OH237761   5.793   6.328  14.198 -0.3046 -0.4528 -0.0871
 5449TIP3    H137762   5.770   6.243  14.159  4.1270 -1.2300 -1.6239
 5449TIP3    H237763   5.764   6.393  14.134 -0.6489 -1.0745 -0.5798
 5450TIP3   OH237764   2.693   5.281  12.468 -0.1961 -0.0693 -0.2906
 5450TIP3    H137765   2.754   5.288  12.542 -0.3178 -1.7592  0.0078
 5450TIP3    H237766   2.748   5.277  12.391  0.1752 -2.3504  0.0288
 5451TIP3   OH237767   5.758   3.526   5.278  0.6622  0.1054 -0.6956
 5451TIP3    H137768   5.799   3.576   5.349  0.2137 -0.0496 -0.3282
 5451TIP3    H237769   5.831   3.483   5.234  0.9906  0.5760 -0.6235
 5452TIP3   OH237770   2.993   6.052   5.806 -0.9313  0.4180  0.2668
 5452TIP3    H137771   3.024   6.000   5.880  2.0581  2.0408  0.3265
 5452TIP3    H237772   2.972   6.138   5.844 -3.1791  0.1434 -0.2343
 5453TIP3   OH237773   0.089   1.888   4.965  0.2103 -0.4214  0.1347
 5453TIP3    H137774   0.119   1.944   5.037  0.8057 -0.4344 -0.0930
 5453TIP3    H237775   0.111   1.799   4.993 -2.4990 -0.8047  1.3797
 5454TIP3   OH237776   0.745   6.125  15.084  0.0641  0.4473 -0.0699
 5454TIP3    H137777   0.771   6.212  15.114  1.4121  0.3666 -0.9185
 5454TIP3    H237778   0.672   6.142  15.024 -0.4324  0.8879  0.6479
 5455TIP3   OH237779   1.043   4.937  14.596  0.1457  0.6203 -0.4595
 5455TIP3    H137780   0.964   4.885  14.583  1.2954 -1.6950  1.0985
 5455TIP3    H237781   1.112   4.890  14.549  0.8726  1.8392 -0.6601
 5456TIP3   OH237782   1.424   0.747  16.063  0.1954 -0.4419 -0.4941
 5456TIP3    H137783   1.340   0.778  16.028 -0.9992 -0.6949  1.9379
 5456TIP3    H237784   1.452   0.817  16.122  0.4691 -1.4067  0.5367
 5457TIP3   OH237785   1.784   0.448  16.415  0.7612  0.6589 -0.0248
 5457TIP3    H137786   1.710   0.411  16.367 -0.3809  0.2960  1.9066
 5457TIP3    H237787   1.839   0.372  16.437  1.7907  0.9289 -1.4743
 5458TIP3   OH237788   0.690   5.515   0.083 -0.1150  0.4920  0.0986
 5458TIP3    H137789   0.609   5.484   0.123 -0.1955  0.4978 -0.0623
 5458TIP3    H237790   0.680   5.611   0.082 -1.2563  0.4105 -2.3369
 5459TIP3   OH237791   5.616   6.077   5.871  0.6540 -0.6711  0.8776
 5459TIP3    H137792   5.585   5.987   5.862  2.5664 -1.4518  1.4932
 5459TIP3    H237793   5.698   6.069   5.920  0.5630  1.4739  1.4896
 5460TIP3   OH237794   6.383   4.765   1.877  0.0959 -0.0163  0.3174
 5460TIP3    H137795   6.294   4.734   1.861  0.8016 -1.7030 -0.5828
 5460TIP3    H237796   6.412   4.714   1.953  1.0476 -1.1453 -0.7731
 5461TIP3   OH237797   1.678   1.568   3.680  0.3439 -0.2906  0.1113
 5461TIP3    H137798   1.707   1.643   3.731  2.4023  0.1575 -1.6095
 5461TIP3    H237799   1.586   1.587   3.660  0.3261  0.8739  1.1866
 5462TIP3   OH237800   5.463   0.470  15.041 -0.5164  0.3388 -0.0646
 5462TIP3    H137801   5.441   0.493  14.950 -0.9552  1.0332  0.2063
 5462TIP3    H237802   5.531   0.403  15.033 -0.9546 -0.0256 -0.9099
 5463TIP3   OH237803   4.822   4.743   5.767 -0.1570 -0.4722  0.8992
 5463TIP3    H137804   4.834   4.832   5.735 -0.0214  0.1125  2.4968
 5463TIP3    H237805   4.734   4.742   5.804 -0.3185 -1.1333  0.5247
 5464TIP3   OH237806   2.529   0.249   5.444 -0.4451 -0.0631 -0.2559
 5464TIP3    H137807   2.450   0.194   5.448  0.2333 -1.0444  0.2483
 5464TIP3    H237808   2.537   0.285   5.532 -0.8900  0.8703 -0.5886
 5465TIP3   OH237809   0.743   2.763   4.826  0.8729  0.2035  0.8691
 5465TIP3    H137810   0.763   2.763   4.920 -0.1073 -1.0177  1.1056
 5465TIP3    H237811   0.729   2.855   4.804  0.1248  0.4179  2.1584
 5466TIP3   OH237812   2.907   5.001   1.996  0.6364 -0.0067 -0.8189
 5466TIP3    H137813   2.849   5.020   1.922 -0.2266  1.1013  0.0994
 5466TIP3    H237814   2.962   5.078   2.004 -0.2279  0.5084  0.5330
 5467TIP3   OH237815   3.518   6.013  16.252  0.3629 -0.2338 -0.2673
 5467TIP3    H137816   3.599   6.057  16.279 -0.1510  0.1082  0.7384
 5467TIP3    H237817   3.533   5.990  16.160  1.5509 -0.0575 -0.1314
 5468TIP3   OH237818   4.018   1.385  14.519 -0.1242 -0.2001  0.0500
 5468TIP3    H137819   4.052   1.343  14.598  2.7537  1.8715  0.0414
 5468TIP3    H237820   4.023   1.316  14.452 -0.9120 -1.4479  1.2137
 5469TIP3   OH237821   1.232   4.748  16.180 -0.0057 -0.2241 -0.0176
 5469TIP3    H137822   1.155   4.719  16.131 -0.6949 -3.7504  2.7139
 5469TIP3    H237823   1.196   4.801  16.252  0.4818  0.8359 -0.5440
 5470TIP3   OH237824   1.015   0.745   2.390 -0.3490  0.1218  0.0649
 5470TIP3    H137825   1.090   0.686   2.392  1.1159  1.9034  0.5683
 5470TIP3    H237826   1.010   0.775   2.299 -0.4714 -0.0180  0.0253
 5471TIP3   OH237827   0.530   6.273  14.380  0.1894  0.3476 -0.2655
 5471TIP3    H137828   0.495   6.295  14.294 -0.1959 -0.0206 -0.2027
 5471TIP3    H237829   0.482   6.196  14.408  1.2420 -0.3441 -0.2944
 5472TIP3   OH237830   3.393   2.168   1.309  0.3439  0.7272  0.1266
 5472TIP3    H137831   3.351   2.084   1.291  1.0441  0.3236  0.3085
 5472TIP3    H237832   3.441   2.190   1.229  0.0073  1.0514  0.0119
 5473TIP3   OH237833   4.236   1.716  13.102 -0.1442 -0.4859  0.1567
 5473TIP3    H137834   4.163   1.717  13.040  1.6924 -2.7643 -2.3572
 5473TIP3    H237835   4.227   1.632  13.147  0.4467 -0.4271  0.3883
 5474TIP3   OH237836   0.623   0.794  13.167  0.5892  0.4378 -0.0582
 5474TIP3    H137837   0.570   0.727  13.123  1.3585 -1.2145  1.3892
 5474TIP3    H237838   0.573   0.875  13.157 -1.0882 -0.6211 -0.6908
 5475TIP3   OH237839   6.637   1.636   0.206  0.4223  0.0014 -0.2100
 5475TIP3    H137840   6.672   1.596   0.126  0.2636  0.3389 -0.4488
 5475TIP3    H237841   6.694   1.711   0.223 -1.2329  1.7173 -1.6614
 5476TIP3   OH237842   0.350   2.430  14.703  0.1707 -0.3603  0.0136
 5476TIP3    H137843   0.400   2.353  14.731 -1.6181 -2.0247 -1.1297
 5476TIP3    H237844   0.300   2.456  14.781  0.7422 -0.3625  0.3902
 5477TIP3   OH237845   4.935   2.601  12.813 -0.1507  0.2171 -0.3577
 5477TIP3    H137846   4.966   2.518  12.850 -2.5497 -0.8827 -0.6288
 5477TIP3    H237847   4.971   2.668  12.871  2.8506 -0.8390 -0.8083
 5478TIP3   OH237848   2.113   1.559   2.594  0.4646 -0.0164 -0.2999
 5478TIP3    H137849   2.031   1.603   2.573  1.0851  1.8183  0.8872
 5478TIP3    H237850   2.090   1.493   2.659 -0.5226 -1.7435 -2.2852
 5479TIP3   OH237851   5.498   1.323   5.184 -0.3044  0.4812 -0.2266
 5479TIP3    H137852   5.441   1.249   5.162 -1.3730  0.8977  1.0264
 5479TIP3    H237853   5.538   1.299   5.267  0.1121  0.8809 -0.3087
 5480TIP3   OH237854   1.497   4.519  15.562 -0.5391 -0.0091 -0.5877
 5480TIP3    H137855   1.526   4.489  15.476 -0.9764  1.0308 -1.1176
 5480TIP3    H237856   1.507   4.615  15.559  0.8146 -0.0494  1.0400
 5481TIP3   OH237857   0.343   0.104   0.048  0.1110 -0.3712  0.3575
 5481TIP3    H137858   0.434   0.118   0.021 -0.0686  0.2995  0.0857
 5481TIP3    H237859   0.328   0.010   0.033  0.0462 -0.0648 -1.8129
 5482TIP3   OH237860   6.303   4.376  11.552  0.5619  0.4424  0.1257
 5482TIP3    H137861   6.209   4.362  11.545  0.6246  0.5590 -1.1477
 5482TIP3    H237862   6.313   4.470  11.565  0.6088  1.1193 -3.7563
 5483TIP3   OH237863   5.747   4.622   5.840  0.9191  0.0563 -0.5672
 5483TIP3    H137864   5.800   4.601   5.918  0.6126 -0.8017 -0.5816
 5483TIP3    H237865   5.762   4.548   5.781 -0.2734 -0.1791 -0.5850
 5484TIP3   OH237866   6.474   6.151  13.052  0.1241 -0.3649 -0.2873
 5484TIP3    H137867   6.386   6.186  13.041 -0.7590 -1.6333  2.0055
 5484TIP3    H237868   6.516   6.210  13.114  0.6323 -0.1767 -0.8074
 5485TIP3   OH237869   3.387   0.586  16.934  0.3436  0.4329  0.6169
 5485TIP3    H137870   3.432   0.505  16.955  0.6011  0.3422 -0.2410
 5485TIP3    H237871   3.445   0.655  16.964  0.9559  0.3131 -0.2484
 5486TIP3   OH237872   5.599   5.822  12.566 -0.2535 -0.0721  0.2584
 5486TIP3    H137873   5.650   5.814  12.647 -0.3811 -0.1784  0.3282
 5486TIP3    H237874   5.510   5.839  12.595 -0.1276  0.8881  0.1226
 5487TIP3   OH237875   0.741   5.324   2.514  0.6536  0.2396 -0.2850
 5487TIP3    H137876   0.647   5.310   2.503  1.0319 -2.6777 -0.7309
 5487TIP3    H237877   0.768   5.369   2.434 -0.3036  0.9771 -0.2190
 5488TIP3   OH237878   6.215   2.762   2.372  0.0193 -0.2388 -0.0751
 5488TIP3    H137879   6.284   2.818   2.338  0.8840 -0.4521  1.2191
 5488TIP3    H237880   6.250   2.729   2.455 -0.8015 -2.0046 -0.3723
 5489TIP3   OH237881   1.249   0.790  13.251  0.0413  0.1489 -0.2438
 5489TIP3    H137882   1.223   0.883  13.249 -1.9369 -0.3527 -0.2931
 5489TIP3    H237883   1.260   0.767  13.159  0.1325  0.2382 -0.2555
 5490TIP3   OH237884   4.722   4.338   2.219  0.1522  0.0598 -0.8846
 5490TIP3    H137885   4.728   4.425   2.178 -0.2367  1.0343  1.0085
 5490TIP3    H237886   4.656   4.292   2.168 -0.2662  1.1843 -1.3918
 5491TIP3   OH237887   2.931   1.909  15.436  0.0888  0.0811 -0.4457
 5491TIP3    H137888   2.961   2.000  15.435 -1.8274  0.7551 -0.4638
 5491TIP3    H237889   2.972   1.869  15.359  1.7139  0.6212  0.0796
 5492TIP3   OH237890   2.319   4.263  11.287  0.1479  0.0946  0.6126
 5492TIP3    H137891   2.324   4.234  11.196 -3.1856 -0.7099  0.5280
 5492TIP3    H237892   2.279   4.189  11.333  1.7268  0.5096  2.7579
 5493TIP3   OH237893   6.556   5.421  16.683  0.5950 -0.1174  0.2049
 5493TIP3    H137894   6.494   5.414  16.755 -0.2927  1.5219 -0.3385
 5493TIP3    H237895   6.505   5.400  16.605  1.1441 -0.3679 -0.0962
 5494TIP3   OH237896   0.130   6.431  11.228 -0.1517 -0.7275  0.2916
 5494TIP3    H137897   0.178   6.407  11.308  1.3339 -0.2457 -0.4254
 5494TIP3    H237898   0.086   6.513  11.250  2.8950  1.2285 -0.2922
 5495TIP3   OH237899   0.417   0.013   3.949 -0.0441 -0.0092 -0.2225
 5495TIP3    H137900   0.341  -0.017   3.900 -1.8829  1.5962  1.4726
 5495TIP3    H237901   0.391   0.098   3.985  2.6853  0.7641  0.1538
 5496TIP3   OH237902   1.148   2.297   1.952  0.2748 -0.1055  0.1186
 5496TIP3    H137903   1.151   2.313   1.857  1.1976 -0.0698  0.1496
 5496TIP3    H237904   1.216   2.231   1.967 -1.0388 -1.4222  0.5105
 5497TIP3   OH237905   0.145   1.521   3.266  0.0249 -0.1731 -0.3221
 5497TIP3    H137906   0.200   1.493   3.194 -0.3726  0.0751 -0.7309
 5497TIP3    H237907   0.169   1.464   3.339  1.0807  0.1892 -0.3819
 5498TIP3   OH237908   1.075   3.100  15.019 -0.5410 -0.3234 -0.7223
 5498TIP3    H137909   1.021   3.043  15.073  0.8033 -2.0996 -1.1673
 5498TIP3    H237910   1.162   3.059  15.019 -0.0491  0.5727 -2.7578
 5499TIP3   OH237911   4.569   6.045  12.471  0.1681 -0.0921  0.1421
 5499TIP3    H137912   4.485   6.002  12.454  0.5016 -0.8758  0.4073
 5499TIP3    H237913   4.624   6.020  12.397  0.7318 -1.1299  0.8928
 5500TIP3   OH237914   4.885   3.941   4.509 -0.2368  0.3948 -0.2748
 5500TIP3    H137915   4.961   3.959   4.455  0.9734 -1.6821  0.6250
 5500TIP3    H237916   4.835   3.876   4.460 -0.1187 -0.0971  0.2499
 5501TIP3   OH237917   6.194   1.329   4.511 -0.3008  0.3715 -0.5536
 5501TIP3    H137918   6.281   1.298   4.536 -0.0306 -0.5578 -2.4320
 5501TIP3    H237919   6.207   1.367   4.424 -1.3152  2.6370  0.2172
 5502TIP3   OH237920   6.342   6.090   2.352 -0.4975 -0.4072 -0.2687
 5502TIP3    H137921   6.411   6.045   2.401  0.5225 -1.0931 -2.2181
 5502TIP3    H237922   6.368   6.183   2.356 -0.3534 -0.4704  0.3543
 5503TIP3   OH237923   4.653   4.242  15.805 -0.5870  0.5099 -0.1298
 5503TIP3    H137924   4.682   4.161  15.763  0.8993 -0.6140  2.7591
 5503TIP3    H237925   4.579   4.216  15.860  0.5227  0.8140  1.5952
 5504TIP3   OH237926   1.209   5.353   4.764 -0.2042 -0.1228  0.3508
 5504TIP3    H137927   1.155   5.398   4.699 -0.0225  1.2353  1.1029
 5504TIP3    H237928   1.214   5.263   4.732 -2.7374 -0.2660  0.1285
 5505TIP3   OH237929   2.959   5.657  15.911 -0.1218 -0.5586  0.0528
 5505TIP3    H137930   2.916   5.625  15.990 -0.6072  1.2323  0.5609
 5505TIP3    H237931   2.888   5.682  15.853  0.2432 -1.0056 -0.6071
 5506TIP3   OH237932   5.278   3.005   4.941  0.2929 -0.3807  0.0936
 5506TIP3    H137933   5.245   2.992   4.852  0.3830  0.9478 -0.1543
 5506TIP3    H237934   5.338   3.079   4.933  1.4923 -1.2069  0.9839
 5507TIP3   OH237935   0.480   0.348   4.429 -0.6080  0.3650 -0.0262
 5507TIP3    H137936   0.536   0.272   4.415  1.6356  2.1439 -1.5523
 5507TIP3    H237937   0.511   0.386   4.512 -0.9278  0.2621  0.1422
 5508TIP3   OH237938   1.812   1.525   1.671 -0.1577 -0.4056 -0.0545
 5508TIP3    H137939   1.863   1.499   1.594 -0.5911 -0.1326 -0.4351
 5508TIP3    H237940   1.862   1.598   1.709 -0.2930 -0.0994 -0.4604
 5509TIP3   OH237941   3.410   1.827   4.808 -0.2873 -0.2751  0.2215
 5509TIP3    H137942   3.438   1.843   4.898 -1.2345  0.5890  0.3838
 5509TIP3    H237943   3.486   1.849   4.755 -0.0217  0.1374  0.7622
 5510TIP3   OH237944   2.932   4.604  13.506 -0.0479  0.1566 -0.4480
 5510TIP3    H137945   2.887   4.687  13.491 -0.4958 -0.1378 -0.7485
 5510TIP3    H237946   3.024   4.624  13.489  0.2576  1.2445  2.0053
 5511TIP3   OH237947   3.627   0.871   1.924 -0.2959 -0.0924 -0.6437
 5511TIP3    H137948   3.702   0.928   1.942  0.6477 -1.6552  0.6487
 5511TIP3    H237949   3.555   0.910   1.974  0.3960 -0.1365  0.4213
 5512TIP3   OH237950   1.355   2.071   0.212 -0.4092  0.2282 -0.4810
 5512TIP3    H137951   1.293   2.131   0.253  0.5291  0.8475  0.0546
 5512TIP3    H237952   1.440   2.095   0.249  0.0852 -0.9501 -0.8048
 5513TIP3   OH237953   2.912   5.946  15.503  0.0358 -0.2363  0.1630
 5513TIP3    H137954   2.828   5.967  15.544  0.2621  1.5476 -0.1978
 5513TIP3    H237955   2.893   5.944  15.409  0.1919 -0.9430  0.1392
 5514TIP3   OH237956   1.044   1.395  14.204  0.0410  0.4952 -0.3290
 5514TIP3    H137957   1.111   1.447  14.248 -1.2121  1.2478  0.7733
 5514TIP3    H237958   0.996   1.352  14.275 -0.1583 -0.6564 -1.1336
 5515TIP3   OH237959   1.446   5.260  15.894 -0.3707 -0.1759 -0.2548
 5515TIP3    H137960   1.505   5.189  15.869 -0.8780 -1.3353  1.7067
 5515TIP3    H237961   1.466   5.278  15.985 -0.5661  1.9477 -0.5728
 5516TIP3   OH237962   5.556   4.756  13.583 -0.0824  0.4568 -1.1212
 5516TIP3    H137963   5.478   4.705  13.564 -0.2091  0.6501 -1.1184
 5516TIP3    H237964   5.628   4.702  13.549  0.1790 -1.4695  2.0821
 5517TIP3   OH237965   4.672   2.814   0.170 -0.1341 -0.6578  0.3864
 5517TIP3    H137966   4.682   2.895   0.119 -1.0921 -1.4539 -1.1066
 5517TIP3    H237967   4.711   2.835   0.255  0.5046  1.0622 -0.2914
 5518TIP3   OH237968   3.736   4.251  13.873 -0.2001 -0.3782 -0.0180
 5518TIP3    H137969   3.749   4.321  13.938  1.4467 -1.5383  0.9790
 5518TIP3    H237970   3.706   4.177  13.925  0.8273 -1.2322 -0.6179
 5519TIP3   OH237971   5.433   6.449  13.510 -0.3923 -0.1516  0.1450
 5519TIP3    H137972   5.363   6.391  13.542 -0.3847  0.4455  1.2936
 5519TIP3    H237973   5.508   6.391  13.496 -0.6169 -0.5448  0.5428
 5520TIP3   OH237974   1.936   3.847  16.091  0.1915  1.0247  0.2194
 5520TIP3    H137975   1.999   3.784  16.124 -0.1929  0.2588 -0.4813
 5520TIP3    H237976   1.936   3.834  15.996 -3.1538 -1.0874  0.3555
 5521TIP3   OH237977   5.537   5.637   3.487 -0.1531  0.3706  0.5717
 5521TIP3    H137978   5.617   5.599   3.449 -0.2025 -0.4957  1.2911
 5521TIP3    H237979   5.544   5.618   3.581 -1.5942 -0.4547  0.5411
 5522TIP3   OH237980   1.555   3.487   5.427  0.5279  0.6306  0.0183
 5522TIP3    H137981   1.607   3.469   5.505 -0.3023 -1.9338  0.0774
 5522TIP3    H237982   1.467   3.504   5.461  0.1740 -0.4491 -0.3120
 5523TIP3   OH237983   5.384   1.378   5.685  0.0579  0.2039  0.3425
 5523TIP3    H137984   5.418   1.293   5.714  0.6208  0.4914  0.5408
 5523TIP3    H237985   5.462   1.429   5.665 -0.3055  0.1840 -1.2307
 5524TIP3   OH237986   3.446   1.948  11.915  0.2798 -0.0037 -0.3976
 5524TIP3    H137987   3.472   1.984  11.830 -0.2991  2.4743  0.3822
 5524TIP3    H237988   3.518   1.890  11.939  1.9105  1.5353 -1.2823
 5525TIP3   OH237989   3.195   2.070   1.718 -0.2893  0.0746  0.2143
 5525TIP3    H137990   3.246   2.042   1.642  1.2568  0.5768  1.0055
 5525TIP3    H237991   3.111   2.025   1.709  1.0363 -2.5136 -0.0631
 5526TIP3   OH237992   0.516   2.755   5.127  0.9014 -0.2293  0.0329
 5526TIP3    H137993   0.431   2.767   5.169  1.7045 -1.6181  2.2011
 5526TIP3    H237994   0.505   2.793   5.040 -1.8198 -0.0578  0.3689
 5527TIP3   OH237995   5.803   5.643  16.813  0.2876 -0.0388 -0.0241
 5527TIP3    H137996   5.898   5.632  16.812  0.2967 -0.7289  2.2034
 5527TIP3    H237997   5.787   5.720  16.759  2.0744 -0.1366 -0.7567
 5528TIP3   OH237998   5.967   4.407   0.784 -0.3119 -0.3984 -0.9927
 5528TIP3    H137999   5.910   4.479   0.811 -0.8187 -1.3950  0.6871
 5528TIP3    H238000   6.051   4.449   0.763 -0.6062  0.6771 -0.0814
 5529TIP3   OH238001   5.009   1.692  14.398  0.3867 -0.0086 -0.2009
 5529TIP3    H138002   5.057   1.706  14.316 -1.5390 -1.5436 -1.7223
 5529TIP3    H238003   5.070   1.646  14.454  1.3458 -0.1502 -1.3198
 5530TIP3   OH238004   3.355   1.322   0.402  0.7299  0.4119  0.4671
 5530TIP3    H138005   3.363   1.227   0.411  0.0709  0.4664  1.8516
 5530TIP3    H238006   3.373   1.356   0.490 -0.5293  1.4678  0.3368
 5531TIP3   OH238007   2.573   5.792  13.246 -0.6478 -0.1504 -0.0230
 5531TIP3    H138008   2.557   5.722  13.182 -1.7209  1.8003 -2.0213
 5531TIP3    H238009   2.507   5.779  13.313  0.7110 -2.4413  1.0080
 5532TIP3   OH238010   0.790   3.132   6.158  0.5418  0.2249 -0.1777
 5532TIP3    H138011   0.883   3.135   6.182  0.9383  1.8194 -1.6664
 5532TIP3    H238012   0.791   3.135   6.062 -1.0050 -3.3188 -0.4681
 5533TIP3   OH238013   0.262   6.609   2.839 -0.3552 -0.4033  0.4437
 5533TIP3    H138014   0.347   6.594   2.797 -0.6654 -1.8629  0.2541
 5533TIP3    H238015   0.263   6.551   2.915 -0.6502  0.6105  1.2333
 5534TIP3   OH238016   0.859   2.516   5.715  0.0264 -0.0783 -0.2656
 5534TIP3    H138017   0.900   2.432   5.695 -0.0037  0.1720 -1.4628
 5534TIP3    H238018   0.906   2.579   5.661  1.2252  0.9877  1.8964
 5535TIP3   OH238019   5.969   2.119  11.447 -0.7422 -0.2887  0.0705
 5535TIP3    H138020   5.921   2.038  11.428 -0.0110 -0.2621 -2.1844
 5535TIP3    H238021   5.999   2.150  11.361  0.9676  1.1486  1.1125
 5536TIP3   OH238022   5.965   5.235  15.391 -0.0437  0.3913  0.6088
 5536TIP3    H138023   5.875   5.261  15.414 -0.4190  0.1523 -0.5223
 5536TIP3    H238024   6.010   5.227  15.475 -1.2264 -0.0046  1.2220
 5537TIP3   OH238025   3.345   6.232  16.892  0.3924 -0.2214 -0.5508
 5537TIP3    H138026   3.431   6.269  16.873 -0.4876  2.9608  1.0155
 5537TIP3    H238027   3.346   6.214  16.986 -0.8994  0.7262 -0.3238
 5538TIP3   OH238028   5.072   1.207   2.829  0.2386 -0.2100  0.3164
 5538TIP3    H138029   5.122   1.238   2.754 -1.3083  0.3246 -0.5337
 5538TIP3    H238030   4.985   1.246   2.819  0.5228  1.5486  3.4744
 5539TIP3   OH238031   2.274   6.133  11.740  0.0428 -0.6285 -0.5536
 5539TIP3    H138032   2.186   6.144  11.775 -0.5991  1.0507 -2.5067
 5539TIP3    H238033   2.302   6.047  11.771 -1.5229 -0.4362  1.6451
 5540TIP3   OH238034   5.570   5.310   0.087  0.2832 -0.1330 -0.4216
 5540TIP3    H138035   5.527   5.287   0.169 -0.6363 -0.8619 -1.0840
 5540TIP3    H238036   5.618   5.232   0.061  0.0927 -0.1063 -0.8702
 5541TIP3   OH238037   2.698   4.843   5.024 -0.2247  0.1092 -0.2447
 5541TIP3    H138038   2.712   4.751   5.046  2.3511  0.4300 -0.2701
 5541TIP3    H238039   2.650   4.840   4.941 -2.3015 -1.1310  0.8990
 5542TIP3   OH238040   3.995   5.407   5.222 -0.4484  0.0002  0.5142
 5542TIP3    H138041   3.948   5.420   5.304 -1.5320  1.1740 -0.2528
 5542TIP3    H238042   3.926   5.393   5.157  0.3884 -0.9826 -0.1966
 5543TIP3   OH238043   3.057   1.172  15.788  0.2173  0.2293  0.0192
 5543TIP3    H138044   3.117   1.172  15.713 -1.2982  2.5889 -1.2941
 5543TIP3    H238045   2.970   1.162  15.750 -0.4207 -2.0667  1.8216
 5544TIP3   OH238046   4.944   5.186  13.337  0.7123 -0.3955  0.0776
 5544TIP3    H138047   4.913   5.227  13.417  0.3751  1.4044 -0.9336
 5544TIP3    H238048   5.040   5.189  13.344  0.7072 -1.6012  1.0392
 5545TIP3   OH238049   2.857   5.789   4.837 -0.0835 -0.1072  0.0756
 5545TIP3    H138050   2.867   5.694   4.850 -0.0634 -0.6733 -3.2801
 5545TIP3    H238051   2.762   5.803   4.838 -0.2187 -0.6333 -1.6972
 5546TIP3   OH238052   0.958   4.329   5.092  0.0439  0.1070  0.2244
 5546TIP3    H138053   1.045   4.366   5.107 -0.3896  1.2182  0.1145
 5546TIP3    H238054   0.909   4.350   5.172  0.1476 -1.3830  0.7007
 5547TIP3   OH238055   1.513   1.659   4.664  0.0390  0.1743 -0.1146
 5547TIP3    H138056   1.488   1.569   4.684 -2.5882  0.5936 -1.1029
 5547TIP3    H238057   1.541   1.656   4.572 -1.2565  0.5340 -0.5391
 5548TIP3   OH238058   4.949   4.380   1.933  0.1654  0.2169  0.2505
 5548TIP3    H138059   4.868   4.413   1.894  0.7439 -1.6349 -2.8918
 5548TIP3    H238060   4.976   4.310   1.874  2.8511 -0.7907  2.4968
 5549TIP3   OH238061   5.168   5.629  15.999 -0.3351 -0.1190  0.5364
 5549TIP3    H138062   5.249   5.680  16.000 -1.1270  1.1823  0.4199
 5549TIP3    H238063   5.189   5.550  16.049  0.7442  0.6038  1.2708
 5550TIP3   OH238064   4.587   4.018  16.347 -0.1064  0.2302  0.2930
 5550TIP3    H138065   4.540   4.100  16.362 -0.4162  0.2978 -0.9083
 5550TIP3    H238066   4.534   3.951  16.390 -0.3348  0.5403  0.4992
 5551TIP3   OH238067   3.825   0.124   4.517 -0.3472 -0.3403 -0.2840
 5551TIP3    H138068   3.908   0.173   4.521 -0.8992  0.5439  1.3956
 5551TIP3    H238069   3.783   0.155   4.436  0.4785  0.0022 -0.5956
 5552TIP3   OH238070   6.227   6.691  15.350 -0.3278 -0.0807 -0.4516
 5552TIP3    H138071   6.275   6.715  15.430  0.0039  0.3262 -0.7682
 5552TIP3    H238072   6.295   6.679  15.284 -0.5442 -1.2103 -0.4827
 5553TIP3   OH238073   0.244   1.154  14.630 -0.1638 -0.3161  0.2402
 5553TIP3    H138074   0.217   1.190  14.546  1.4045  0.0231 -0.1525
 5553TIP3    H238075   0.196   1.071  14.638  0.1784 -0.6839 -1.3093
 5554TIP3   OH238076   0.145   4.062  10.656  0.0789 -0.1227  0.1244
 5554TIP3    H138077   0.148   4.026  10.745 -0.1877  0.0239  0.1924
 5554TIP3    H238078   0.171   3.989  10.600 -0.0555 -0.3049  0.2969
 5555TIP3   OH238079   3.559   5.436  10.693 -0.1224 -0.0290 -0.0777
 5555TIP3    H138080   3.654   5.437  10.680 -0.2219 -0.7329 -0.9764
 5555TIP3    H238081   3.537   5.343  10.695 -1.0882  0.0861 -2.4210
 5556TIP3   OH238082   6.677   5.043   4.025  0.1762  0.4741 -0.2414
 5556TIP3    H138083   6.713   5.036   3.937 -1.1853 -1.9731 -0.7125
 5556TIP3    H238084   6.644   5.132   4.031  1.7839  1.2171 -1.5561
 5557TIP3   OH238085   4.105   1.769  12.732 -0.1861 -0.0369  0.0089
 5557TIP3    H138086   4.016   1.799  12.713 -0.1241  0.1255 -0.0255
 5557TIP3    H238087   4.094   1.695  12.792 -0.4266 -0.9296 -1.0912
 5558TIP3   OH238088   0.172   1.032  17.010 -0.0038 -0.4898 -0.2994
 5558TIP3    H138089   0.168   0.977  16.931 -0.2730 -0.0039 -0.6320
 5558TIP3    H238090   0.139   0.976  17.080  3.6946 -2.2598  0.2694
 5559TIP3   OH238091   6.676   5.923  17.201 -0.3575  0.4944 -0.4117
 5559TIP3    H138092   6.732   5.867  17.146 -0.3500  0.4528 -0.3624
 5559TIP3    H238093   6.627   5.976  17.139 -1.7925 -0.9063 -0.5489
 5560TIP3   OH238094   1.068   6.151  15.533 -0.6325 -0.3171 -0.6044
 5560TIP3    H138095   1.022   6.099  15.467 -1.5434 -0.4713  0.1366
 5560TIP3    H238096   1.020   6.135  15.614 -0.4838  1.0953 -0.2073
 5561TIP3   OH238097   1.677   6.639   1.941 -0.4477 -0.1924 -0.0281
 5561TIP3    H138098   1.687   6.697   2.016  3.0377 -0.3057 -0.2677
 5561TIP3    H238099   1.738   6.672   1.876 -1.1493 -1.8896 -1.6627
 5562TIP3   OH238100   5.243   6.450  13.148  0.1387  0.4082  0.2027
 5562TIP3    H138101   5.226   6.543  13.130 -2.0164  0.1137  0.5202
 5562TIP3    H238102   5.250   6.444  13.243 -1.1317  0.0771  0.2998
 5563TIP3   OH238103   2.732   1.338   2.184  0.5402 -0.5094  0.1301
 5563TIP3    H138104   2.658   1.352   2.243 -0.0156  0.7264 -0.7951
 5563TIP3    H238105   2.802   1.393   2.221  0.5931 -0.6963  0.3102
 5564TIP3   OH238106   6.250   3.532   3.706  0.1611  0.3805 -0.3452
 5564TIP3    H138107   6.270   3.547   3.799  1.4208  1.7482 -0.8027
 5564TIP3    H238108   6.199   3.608   3.680 -2.9393 -1.4429 -0.0813
 5565TIP3   OH238109   3.648   1.196  11.933  0.2758  1.0584 -0.2705
 5565TIP3    H138110   3.709   1.228  11.868  0.1936  0.4535 -0.6543
 5565TIP3    H238111   3.575   1.258  11.931 -0.6662 -0.0251 -2.1915
 5566TIP3   OH238112   5.703   4.439   5.233  0.5824 -0.3265  0.3777
 5566TIP3    H138113   5.770   4.373   5.248  0.0128 -0.5234  2.3014
 5566TIP3    H238114   5.720   4.506   5.299 -0.6258 -0.0147  0.3999
 5567TIP3   OH238115   2.787   3.520  13.391 -0.0879  0.0678  0.1988
 5567TIP3    H138116   2.803   3.454  13.324 -0.1911 -1.1057  1.3005
 5567TIP3    H238117   2.722   3.578  13.352  0.3139 -0.2238 -0.9442
 5568TIP3   OH238118   6.073   3.367  13.048 -0.1948 -0.2707  0.2544
 5568TIP3    H138119   6.039   3.455  13.060 -0.5133 -0.3298 -0.1901
 5568TIP3    H238120   5.998   3.310  13.067 -0.3943 -0.4009 -0.8449
 5569TIP3   OH238121   3.303   2.079   0.169  0.4192 -0.0413 -1.0254
 5569TIP3    H138122   3.272   2.080   0.079 -0.6086  0.0367 -0.6827
 5569TIP3    H238123   3.367   2.151   0.173 -0.7086  1.0224 -1.3099
 5570TIP3   OH238124   4.491   1.534  17.289 -0.2876 -0.3163  0.1887
 5570TIP3    H138125   4.503   1.490  17.205  1.6694 -0.3526  0.4470
 5570TIP3    H238126   4.576   1.527  17.332 -0.6525  1.5169  1.3013
 5571TIP3   OH238127   4.198   3.198   5.977 -0.4553 -0.5770  0.0209
 5571TIP3    H138128   4.173   3.151   5.898 -0.3421  0.0302 -0.3737
 5571TIP3    H238129   4.255   3.137   6.024 -0.6181 -0.9828 -0.3052
 5572TIP3   OH238130   2.142   1.817  16.465 -0.1734 -0.7125  0.2545
 5572TIP3    H138131   2.149   1.724  16.489  0.1970 -0.8151 -0.2105
 5572TIP3    H238132   2.117   1.815  16.372 -1.6850 -0.3323  0.6434
 5573TIP3   OH238133   4.954   0.306  10.763 -0.3292  0.5323  0.1647
 5573TIP3    H138134   4.924   0.290  10.852 -0.0042 -2.3104 -0.1559
 5573TIP3    H238135   5.014   0.380  10.771  0.7881 -0.5297  2.5782
 5574TIP3   OH238136   4.999   6.752   1.453  0.7344 -0.1513 -0.0930
 5574TIP3    H138137   4.929   6.773   1.514 -2.0556  0.7992 -3.3396
 5574TIP3    H238138   5.013   6.658   1.464 -0.6275 -0.2506  1.0101
 5575TIP3   OH238139   3.533   0.491   0.587  0.2636  0.6364 -0.2049
 5575TIP3    H138140   3.598   0.461   0.651 -0.1705  0.5161  0.1861
 5575TIP3    H238141   3.501   0.574   0.622 -0.0216  0.5391 -0.2264
 5576TIP3   OH238142   1.681   1.085   2.459  0.5729 -0.5442 -0.2251
 5576TIP3    H138143   1.618   1.121   2.522 -1.7521 -2.9134 -1.0036
 5576TIP3    H238144   1.628   1.063   2.383  3.0042  0.4983 -2.3660
 5577TIP3   OH238145   5.061   3.437   4.913  0.1449  0.3931  0.2522
 5577TIP3    H138146   5.033   3.357   4.958 -1.9839  1.7724  1.5122
 5577TIP3    H238147   5.144   3.460   4.954  1.4395 -1.7436 -0.9551
 5578TIP3   OH238148   3.259   4.177   0.758 -0.0292  0.1064 -0.2024
 5578TIP3    H138149   3.242   4.234   0.833  1.5015  1.4512 -0.8365
 5578TIP3    H238150   3.180   4.123   0.751  0.0555 -0.5792  2.8049
 5579TIP3   OH238151   4.958   0.422  13.702 -0.1918 -0.6759  0.3316
 5579TIP3    H138152   4.939   0.333  13.673 -0.2211 -0.4776 -0.2899
 5579TIP3    H238153   5.054   0.428  13.699 -0.2364  0.0112 -1.9174
 5580TIP3   OH238154   0.581   6.625   2.816  0.0839 -0.1568 -0.5707
 5580TIP3    H138155   0.652   6.630   2.880 -0.4963  0.4413  0.0566
 5580TIP3    H238156   0.619   6.583   2.739  1.2686  0.6657 -0.4558
 5581TIP3   OH238157   2.485   4.410   3.239 -0.4093  0.6464 -0.6411
 5581TIP3    H138158   2.429   4.333   3.230  1.9855 -1.1061 -1.8035
 5581TIP3    H238159   2.490   4.425   3.333 -1.7462  0.0399 -0.4448
 5582TIP3   OH238160   2.811   2.206  14.973  0.4028 -0.0880  0.1619
 5582TIP3    H138161   2.804   2.267  15.047  2.0533 -1.1628  1.2667
 5582TIP3    H238162   2.874   2.140  15.002 -1.3082 -2.3603 -0.9478
 5583TIP3   OH238163   6.245   5.633   5.276  0.5474  0.4422 -0.3259
 5583TIP3    H138164   6.287   5.565   5.327  0.6347  0.1099 -0.8297
 5583TIP3    H238165   6.214   5.697   5.340  2.2148  0.9317  0.0311
 5584TIP3   OH238166   2.506   3.799   4.394  0.8282  0.0374  0.2371
 5584TIP3    H138167   2.579   3.795   4.333 -1.4109  0.2567 -2.6812
 5584TIP3    H238168   2.497   3.892   4.415 -0.1831  0.3926 -1.5790
 5585TIP3   OH238169   2.140   1.911  15.820 -0.0005 -0.0099  0.0586
 5585TIP3    H138170   2.094   1.894  15.738 -2.0436 -1.9766  1.4868
 5585TIP3    H238171   2.230   1.930  15.794 -0.5744 -0.5625 -2.5994
 5586TIP3   OH238172   5.820   4.089  16.668  0.1705 -0.0900 -0.0764
 5586TIP3    H138173   5.842   4.054  16.755 -0.5222 -0.4185 -0.0205
 5586TIP3    H238174   5.904   4.113  16.630  0.4562  0.4051  0.8308
 5587TIP3   OH238175   1.448   1.496  11.802 -0.6186 -0.3711 -0.3706
 5587TIP3    H138176   1.476   1.503  11.893 -1.9856  0.3399  0.0321
 5587TIP3    H238177   1.496   1.566  11.757 -0.8986  0.1110  0.0701
 5588TIP3   OH238178   0.495   2.592   3.946  1.0461 -0.7688  0.0638
 5588TIP3    H138179   0.508   2.500   3.921  1.9605 -0.4265 -0.7836
 5588TIP3    H238180   0.582   2.623   3.968  0.7027 -0.1585  0.5736
 5589TIP3   OH238181   2.075   0.059  13.454  0.1841  0.2760  0.2210
 5589TIP3    H138182   2.140   0.074  13.523  0.1044  2.1691 -0.0418
 5589TIP3    H238183   2.040  -0.028  13.472  0.2348  0.6710  2.5221
 5590TIP3   OH238184   4.120   0.932   6.656 -0.5738  0.2518  0.2320
 5590TIP3    H138185   4.131   0.986   6.733 -0.4518 -0.2889  0.6013
 5590TIP3    H238186   4.190   0.959   6.597  1.5736 -1.7213  1.7100
 5591TIP3   OH238187   5.982   3.647  11.186 -0.3227 -0.3972 -0.0493
 5591TIP3    H138188   5.915   3.641  11.254  1.0482 -0.3743  1.3619
 5591TIP3    H238189   5.997   3.556  11.159 -0.4302 -0.4747  0.1464
 5592TIP3   OH238190   6.321   3.468   3.091  0.1983 -0.3056 -0.0421
 5592TIP3    H138191   6.349   3.474   3.000 -2.5976 -3.1770 -1.2921
 5592TIP3    H238192   6.390   3.419   3.135  0.5483 -0.8574 -1.1823
 5593TIP3   OH238193   4.771   5.848  11.165  0.3790 -0.0541 -0.3200
 5593TIP3    H138194   4.713   5.773  11.152  0.7516 -0.3087 -0.5052
 5593TIP3    H238195   4.715   5.924  11.148 -0.3464 -0.2286  1.1236
 5594TIP3   OH238196   4.967   6.098   4.261 -0.3681  0.0814  0.4183
 5594TIP3    H138197   4.879   6.118   4.290 -0.4690  1.2410 -0.5903
 5594TIP3    H238198   4.987   6.166   4.197  0.9896 -0.5740  0.1060
 5595TIP3   OH238199   0.064   5.798   6.109  0.1990 -0.6739  0.2813
 5595TIP3    H138200   0.141   5.840   6.149  0.4018 -2.0279  1.3751
 5595TIP3    H238201   0.031   5.864   6.047 -0.3706  1.7175  2.9327
 5596TIP3   OH238202   1.855   1.211   3.390 -0.7672  0.2337 -0.2186
 5596TIP3    H138203   1.919   1.150   3.427 -0.6686 -1.1186 -2.3836
 5596TIP3    H238204   1.881   1.219   3.298 -1.4596  2.7233 -0.2690
 5597TIP3   OH238205   3.617   5.988  11.940 -0.3750  0.0590  0.1151
 5597TIP3    H138206   3.605   5.917  12.003 -1.0936 -0.2743 -0.3895
 5597TIP3    H238207   3.532   6.031  11.935 -0.1739  0.4253 -0.2287
 5598TIP3   OH238208   0.386   2.372   4.989  0.2050 -0.3598  0.5415
 5598TIP3    H138209   0.469   2.394   4.946 -0.4833  0.0264 -0.6541
 5598TIP3    H238210   0.323   2.434   4.952 -0.5779 -0.5159  1.5833
 5599TIP3   OH238211   3.880   1.008  14.193 -0.0711 -0.6494 -0.9323
 5599TIP3    H138212   3.845   1.031  14.106 -1.3649  0.3090 -0.1945
 5599TIP3    H238213   3.805   1.017  14.252  0.7384 -1.4832  0.2729
 5600TIP3   OH238214   6.334   3.972   6.083  0.2294  0.3243 -0.6553
 5600TIP3    H138215   6.420   4.014   6.084  0.9074 -0.8085  2.8972
 5600TIP3    H238216   6.353   3.879   6.072 -0.3899 -0.0566  1.1817
 5601TIP3   OH238217   4.069   4.367   4.734 -0.1089  0.4907  0.2046
 5601TIP3    H138218   4.113   4.324   4.661 -1.6291  1.1423 -1.1625
 5601TIP3    H238219   4.064   4.300   4.802 -2.7080 -1.7821 -1.9712
 5602TIP3   OH238220   3.450   3.811   4.924  0.1812 -0.0320 -0.1867
 5602TIP3    H138221   3.466   3.789   5.016  0.9254 -1.7201 -0.6688
 5602TIP3    H238222   3.386   3.882   4.926  1.2049  0.9067  1.6595
 5603TIP3   OH238223   6.620   0.818   4.870  0.1777  0.2868 -0.4133
 5603TIP3    H138224   6.534   0.780   4.888 -0.8696  1.8665 -1.8300
 5603TIP3    H238225   6.625   0.894   4.928  1.2025 -0.5104  0.5907
 5604TIP3   OH238226   3.230   0.160   5.924 -0.5598  0.2795 -0.0051
 5604TIP3    H138227   3.232   0.084   5.866  1.5827  0.9639 -0.9212
 5604TIP3    H238228   3.145   0.154   5.969 -1.1224 -1.7392 -1.2249
 5605TIP3   OH238229   3.637   6.697  15.481  0.1809 -0.2824 -0.4373
 5605TIP3    H138230   3.571   6.637  15.446  0.3663 -0.7362 -0.0139
 5605TIP3    H238231   3.588   6.756  15.538  0.4083 -1.9968  1.6673
 5606TIP3   OH238232   5.973   1.154  12.320  0.1170  0.4199  0.2982
 5606TIP3    H138233   6.045   1.207  12.356  0.9725 -1.1142  0.9746
 5606TIP3    H238234   6.016   1.096  12.257 -0.9478  1.1608 -1.1544
 5607TIP3   OH238235   0.631   2.955   0.680 -0.0365  0.7419  0.0174
 5607TIP3    H138236   0.713   2.958   0.729  0.4671  0.5351 -0.8158
 5607TIP3    H238237   0.640   3.021   0.612 -0.0759 -0.1189 -0.8350
 5608TIP3   OH238238   3.324   5.393   5.215  0.5394 -0.2046 -0.5329
 5608TIP3    H138239   3.280   5.331   5.157  0.5077 -0.1303 -0.5892
 5608TIP3    H238240   3.255   5.428   5.271  0.7851 -1.2879  0.4824
 5609TIP3   OH238241   5.432   4.353   6.556  0.1049 -0.1842  0.0469
 5609TIP3    H138242   5.340   4.339   6.578  0.0192  0.5847  0.2164
 5609TIP3    H238243   5.475   4.269   6.574 -0.3156 -0.1483  1.3145
 5610TIP3   OH238244   6.487   5.131  13.118 -0.1857 -0.0574 -0.1347
 5610TIP3    H138245   6.488   5.200  13.053  2.1160 -0.3256 -0.4651
 5610TIP3    H238246   6.395   5.104  13.123 -0.6454  0.9209 -2.2200
 5611TIP3   OH238247   0.270   1.171   4.473  0.3859 -0.7250 -0.1914
 5611TIP3    H138248   0.352   1.126   4.494  0.4875 -1.3796 -1.8455
 5611TIP3    H238249   0.264   1.241   4.538  1.6441 -1.4017  0.6983
 5612TIP3   OH238250   4.351   2.080   5.064 -0.7526  0.0333  0.3887
 5612TIP3    H138251   4.307   2.048   5.142 -1.2343  0.9043  0.4824
 5612TIP3    H238252   4.357   2.175   5.076  0.2676  0.0479 -0.0761
 5613TIP3   OH238253   4.048   2.174  13.743  0.4496 -0.5062  0.0202
 5613TIP3    H138254   4.141   2.162  13.725  0.1610 -2.2469 -0.4857
 5613TIP3    H238255   4.025   2.100  13.799 -0.3438  0.7101  1.3867
 5614TIP3   OH238256   4.899   2.390   4.288  0.4493 -0.3441 -0.5255
 5614TIP3    H138257   4.856   2.436   4.216  2.8627  2.6465 -0.2498
 5614TIP3    H238258   4.879   2.297   4.273 -2.4891  0.4797 -2.6566
 5615TIP3   OH238259   6.391   6.438   5.622  0.4544  0.3153  0.1331
 5615TIP3    H138260   6.365   6.479   5.704 -1.8655 -1.7215  0.5255
 5615TIP3    H238261   6.431   6.355   5.648 -2.6031 -1.5700 -0.7110
 5616TIP3   OH238262   6.420   3.463  16.218 -0.5645 -0.4538  0.5852
 5616TIP3    H138263   6.386   3.445  16.306 -1.4905  1.6045  0.6919
 5616TIP3    H238264   6.449   3.554  16.221 -0.3019 -0.4453 -1.1497
 5617TIP3   OH238265   3.049   3.973   2.454 -0.0502 -0.0849  0.3482
 5617TIP3    H138266   3.024   3.915   2.526  0.2477  0.5418  0.9709
 5617TIP3    H238267   2.966   3.992   2.410  0.0298 -2.2463 -0.8836
 5618TIP3   OH238268   2.368   3.162  15.179  0.3598  0.4867 -0.1743
 5618TIP3    H138269   2.383   3.114  15.097  0.4518 -0.1220  0.1989
 5618TIP3    H238270   2.273   3.161  15.191  0.3926 -0.0123  0.0745
 5619TIP3   OH238271   3.648   2.057   0.524  0.2076  0.3943 -0.1974
 5619TIP3    H138272   3.685   2.138   0.557 -0.1159 -0.0023  1.2056
 5619TIP3    H238273   3.680   1.990   0.584 -0.3280 -0.3746 -0.7532
 5620TIP3   OH238274   6.196   2.607  11.091  0.5807  0.1306  0.1408
 5620TIP3    H138275   6.148   2.606  11.009  1.9315  3.1855 -0.8458
 5620TIP3    H238276   6.266   2.543  11.080 -0.1766 -0.6013 -0.4495
 5621TIP3   OH238277   2.864   2.915  12.195 -0.7255  0.3921 -0.1156
 5621TIP3    H138278   2.827   3.000  12.172  0.9321  0.6512 -2.0183
 5621TIP3    H238279   2.926   2.935  12.265 -0.2004  0.7928 -0.6874
 5622TIP3   OH238280   1.752   6.570   0.779  0.2897 -0.3488 -0.0343
 5622TIP3    H138281   1.730   6.658   0.750  0.9746 -0.3015 -0.4337
 5622TIP3    H238282   1.778   6.524   0.699  1.6765 -0.3762  0.3990
 5623TIP3   OH238283   5.391   3.824  13.182  0.5480 -0.2459  0.1015
 5623TIP3    H138284   5.462   3.825  13.119 -0.2068  1.7930 -0.8113
 5623TIP3    H238285   5.318   3.868  13.137 -0.2952  0.4871  2.0657
 5624TIP3   OH238286   4.416   0.861  17.344  0.3325 -0.1999 -0.1220
 5624TIP3    H138287   4.340   0.806  17.326 -1.4113  1.7519  0.8603
 5624TIP3    H238288   4.435   0.847  17.436  0.5736  0.0119 -0.1387
 5625TIP3   OH238289   0.277   3.202  13.987  0.5927  0.1428 -0.4243
 5625TIP3    H138290   0.331   3.219  13.911  1.4774 -2.1409 -0.3877
 5625TIP3    H238291   0.212   3.139  13.957  0.2040  0.1219  0.4226
 5626TIP3   OH238292   6.539   5.496  13.094 -0.5736  0.3999  0.3854
 5626TIP3    H138293   6.618   5.550  13.103  1.2563 -1.7794 -1.5918
 5626TIP3    H238294   6.476   5.554  13.051  0.4136  1.7581  0.6862
 5627TIP3   OH238295   2.009   0.494  12.607 -0.1348  0.3247  0.0430
 5627TIP3    H138296   2.032   0.586  12.592  0.5147  0.0267 -0.9103
 5627TIP3    H238297   2.076   0.445  12.559 -1.0356 -0.6307 -0.2745
 5628TIP3   OH238298   6.134   1.709  14.178  0.0129 -0.3033  0.0407
 5628TIP3    H138299   6.089   1.775  14.231  0.4120  1.1169 -1.2868
 5628TIP3    H238300   6.131   1.745  14.089  1.9245 -1.1817 -0.4174
 5629TIP3   OH238301   1.532   1.199   2.665  0.2254  0.5841  0.2039
 5629TIP3    H138302   1.441   1.222   2.649 -0.2576 -0.9547  0.5048
 5629TIP3    H238303   1.530   1.152   2.749  1.4452  1.3173  0.6760
 5630TIP3   OH238304   3.025   2.703  15.915  0.4957 -0.0106  0.4902
 5630TIP3    H138305   2.931   2.723  15.913  0.6656  0.8448  0.7752
 5630TIP3    H238306   3.039   2.659  15.999  0.3433 -0.1992  0.4177
 5631TIP3   OH238307   0.267   5.888  16.804 -0.0203  1.0238 -0.1941
 5631TIP3    H138308   0.352   5.890  16.848 -0.8777  0.1132  1.6209
 5631TIP3    H238309   0.243   5.980  16.793  0.0563  1.2927  1.6428
 5632TIP3   OH238310   6.619   2.447   4.135  0.4294 -0.0455 -1.0054
 5632TIP3    H138311   6.537   2.494   4.124 -0.5998 -1.5054  0.1120
 5632TIP3    H238312   6.594   2.354   4.139  2.3174 -0.6809 -2.4726
 5633TIP3   OH238313   4.543   6.651   6.228  0.0995  0.4271 -0.0374
 5633TIP3    H138314   4.512   6.569   6.191 -0.7550  1.2719 -1.2951
 5633TIP3    H238315   4.470   6.683   6.280  0.1822  0.6963 -0.0827
 5634TIP3   OH238316   1.232   4.793  15.232  0.2308  0.1536 -0.3081
 5634TIP3    H138317   1.147   4.754  15.213  0.4177  0.4647 -1.9019
 5634TIP3    H238318   1.233   4.803  15.327 -1.1768 -0.5962 -0.1876
 5635TIP3   OH238319   6.319   1.519  14.016 -0.2575  0.1263 -0.0728
 5635TIP3    H138320   6.258   1.453  14.049  1.0692 -2.3656 -2.1547
 5635TIP3    H238321   6.264   1.580  13.967 -1.3056 -0.8918 -0.2192
 5636TIP3   OH238322   0.777   4.778   0.498  0.1229  0.4644 -0.2667
 5636TIP3    H138323   0.850   4.757   0.556  1.3691  2.5305 -0.9552
 5636TIP3    H238324   0.813   4.843   0.438 -2.4889  2.1815 -0.1394
 5637TIP3   OH238325   0.312   1.559  12.335  0.5478 -0.1674  0.5265
 5637TIP3    H138326   0.233   1.543  12.386  0.1503 -0.1432 -0.0675
 5637TIP3    H238327   0.383   1.530  12.391  0.0816 -0.6663  0.8738
 5638TIP3   OH238328   0.244   1.187  11.233 -0.4294  0.0602 -0.3626
 5638TIP3    H138329   0.263   1.210  11.324  1.4742  0.6396 -0.8455
 5638TIP3    H238330   0.320   1.220  11.184 -1.2209 -0.5873 -2.1104
 5639TIP3   OH238331   6.607   0.207   4.800 -0.1323  0.0038 -0.0012
 5639TIP3    H138332   6.564   0.148   4.862 -0.4047  0.4935  0.2768
 5639TIP3    H238333   6.536   0.259   4.762  0.2637  1.4229  1.0953
 5640TIP3   OH238334   2.928   3.368  15.750 -0.4768 -0.3496  1.1031
 5640TIP3    H138335   2.899   3.314  15.823 -0.5458 -1.3548  0.3433
 5640TIP3    H238336   2.957   3.306  15.683 -1.0395  0.5217  0.0050
 5641TIP3   OH238337   3.714   6.237   0.525 -0.5230 -0.6385  0.1438
 5641TIP3    H138338   3.699   6.157   0.474 -2.1206  0.3381 -1.0323
 5641TIP3    H238339   3.640   6.240   0.586 -0.8184  0.1971 -0.2305
 5642TIP3   OH238340   3.384   1.432  15.736 -0.0032  0.1491  0.3950
 5642TIP3    H138341   3.443   1.360  15.712 -2.1031 -1.8279  0.7665
 5642TIP3    H238342   3.356   1.410  15.825 -1.1714  1.1121  0.2862
 5643TIP3   OH238343   4.232   5.029  15.409  0.5551 -0.4327  0.6089
 5643TIP3    H138344   4.285   4.986  15.342 -0.7550  0.3704 -1.0306
 5643TIP3    H238345   4.177   4.959  15.444  1.1437 -0.8282  0.7693
 5644TIP3   OH238346   0.478   5.823  14.799  0.2784 -0.0888  0.2544
 5644TIP3    H138347   0.448   5.849  14.712  0.0601  0.7485  0.5737
 5644TIP3    H238348   0.572   5.841  14.799  0.0213  1.3865  0.6941
 5645TIP3   OH238349   3.685   1.312  14.449  0.2510  0.3619 -0.5435
 5645TIP3    H138350   3.598   1.315  14.489 -0.3236 -1.6254 -1.4929
 5645TIP3    H238351   3.688   1.227  14.406  1.1824  1.8872 -3.8277
 5646TIP3   OH238352   6.199   0.817   5.994 -0.3676  0.6703  0.0126
 5646TIP3    H138353   6.213   0.808   6.088 -0.4015  1.0155  0.0514
 5646TIP3    H238354   6.257   0.888   5.968 -1.7289  1.8603  0.1053
 5647TIP3   OH238355   4.074   5.286   4.403  0.2393  0.5282 -0.6137
 5647TIP3    H138356   4.157   5.270   4.359  1.1034  0.3613  0.9869
 5647TIP3    H238357   4.075   5.229   4.480 -0.1787  2.3703  0.8496
 5648TIP3   OH238358   2.226   3.735   4.660 -0.1268 -0.5421 -0.5295
 5648TIP3    H138359   2.307   3.698   4.695 -0.4976 -1.2489 -0.4002
 5648TIP3    H238360   2.205   3.680   4.585 -0.5105 -0.3843 -0.5389
 5649TIP3   OH238361   1.386   2.347   1.239  0.1941  0.0958  0.7061
 5649TIP3    H138362   1.293   2.369   1.243  0.4951  1.5641  0.2836
 5649TIP3    H238363   1.394   2.287   1.164 -0.5392 -0.8426  1.3626
 5650TIP3   OH238364   1.918   3.645   3.612  0.5935 -0.0890 -0.3397
 5650TIP3    H138365   1.975   3.580   3.652 -0.2272 -0.9614 -0.5503
 5650TIP3    H238366   1.878   3.690   3.687  2.9603  1.8933 -0.1368
 5651TIP3   OH238367   1.886   6.028   2.634 -0.6827  0.1982  0.4757
 5651TIP3    H138368   1.921   5.949   2.592 -0.3713  0.1275  0.8629
 5651TIP3    H238369   1.801   6.000   2.669 -1.2827  0.4488 -0.7242
 5652TIP3   OH238370   1.815   6.648  12.607 -0.0247  0.3017 -0.2201
 5652TIP3    H138371   1.796   6.579  12.670  1.3701 -0.1876 -0.2976
 5652TIP3    H238372   1.732   6.694  12.596 -0.5230 -0.1727  1.2701
 5653TIP3   OH238373   1.951   1.449   0.382  0.3035 -0.0704  0.3328
 5653TIP3    H138374   1.910   1.468   0.466  1.7983  2.7409  0.5677
 5653TIP3    H238375   1.967   1.355   0.383 -2.1412 -0.5492  2.0053
 5654TIP3   OH238376   6.053   3.984   2.418 -0.4069 -0.5122  0.7260
 5654TIP3    H138377   5.988   4.035   2.369 -2.1390 -1.4541  1.9136
 5654TIP3    H238378   6.137   4.023   2.394 -1.4692  1.4276 -0.1149
 5655TIP3   OH238379   6.229   4.943   6.035  0.1594  0.4027 -0.1301
 5655TIP3    H138380   6.183   4.949   6.119  0.6466 -0.8502  0.2466
 5655TIP3    H238381   6.264   5.031   6.021 -1.2797  1.0711  0.1729
 5656TIP3   OH238382   3.318   4.251   5.177 -0.3073 -0.1269  0.5375
 5656TIP3    H138383   3.275   4.170   5.147 -0.2299  0.5256 -1.5271
 5656TIP3    H238384   3.411   4.229   5.182 -0.2841 -0.1805 -0.0417
 5657TIP3   OH238385   0.044   5.615   2.706  0.2551 -0.1221  1.0779
 5657TIP3    H138386   0.081   5.532   2.737  0.6024 -0.3588  0.0771
 5657TIP3    H238387  -0.027   5.588   2.647  0.7057  0.2740  0.3429
 5658TIP3   OH238388   2.000   6.132   4.116 -0.3981  0.2910  0.0930
 5658TIP3    H138389   2.045   6.110   4.198 -0.0144 -2.9537 -0.8588
 5658TIP3    H238390   1.913   6.094   4.125 -0.6462  0.6501 -0.6971
 5659TIP3   OH238391   2.362   5.905   1.602  0.3515 -0.4942  0.1899
 5659TIP3    H138392   2.444   5.862   1.578 -1.6152 -3.2195 -2.3970
 5659TIP3    H238393   2.319   5.844   1.661 -0.0640  0.7201  1.1967
 5660TIP3   OH238394   2.776   6.594  14.586 -0.1630  0.0086 -0.0076
 5660TIP3    H138395   2.701   6.600  14.645  1.4186  0.1404  2.0808
 5660TIP3    H238396   2.811   6.506  14.599  0.0808 -0.0521 -0.9500
 5661TIP3   OH238397   1.605   1.114   3.185  0.0163  0.2805 -0.0946
 5661TIP3    H138398   1.598   1.071   3.270 -2.0751 -0.1482 -0.4217
 5661TIP3    H238399   1.589   1.207   3.203  0.2734  0.2946  0.0639
 5662TIP3   OH238400   6.198   1.702   5.572 -0.0930 -0.2179  0.0400
 5662TIP3    H138401   6.232   1.787   5.543  0.3631  0.1311  1.4802
 5662TIP3    H238402   6.133   1.725   5.639 -0.9449 -0.9864 -0.4971
 5663TIP3   OH238403   1.087   0.047   4.272  0.9401  0.5139 -0.3413
 5663TIP3    H138404   1.131  -0.037   4.263  3.2152  1.4971  0.5976
 5663TIP3    H238405   1.060   0.051   4.364 -1.7594 -0.3022 -1.0305
 5664TIP3   OH238406   3.922   4.866  11.154  0.1602  0.2685 -0.0689
 5664TIP3    H138407   3.896   4.875  11.063  0.1849  0.4613 -0.0553
 5664TIP3    H238408   3.842   4.879  11.204  0.1203  0.0279 -0.0692
 5665TIP3   OH238409   5.325   3.635  15.330 -0.7970 -1.2626 -0.2712
 5665TIP3    H138410   5.335   3.544  15.358  2.2754 -0.4955  1.6808
 5665TIP3    H238411   5.279   3.678  15.402 -0.2899 -0.8991 -0.1535
 5666TIP3   OH238412   5.901   5.344   2.769 -0.2289  0.9289 -0.5707
 5666TIP3    H138413   5.903   5.249   2.782 -0.1484  0.9503 -0.4280
 5666TIP3    H238414   5.892   5.381   2.857 -0.4268  1.0497 -0.6401
 5667TIP3   OH238415   2.555   5.226  16.488 -0.2399  0.2034 -0.6484
 5667TIP3    H138416   2.548   5.160  16.419 -1.2969 -2.6056  1.9293
 5667TIP3    H238417   2.649   5.233  16.506 -0.1813 -2.0600  0.2118
 5668TIP3   OH238418   1.598   4.847  13.778 -0.4924 -0.0636  0.3637
 5668TIP3    H138419   1.542   4.905  13.726 -1.3890 -0.1758  1.1865
 5668TIP3    H238420   1.555   4.843  13.864 -0.2590 -1.6638  0.4277
 5669TIP3   OH238421   2.331   5.659  11.695  0.5032  0.0334 -0.1509
 5669TIP3    H138422   2.310   5.570  11.726  0.6111 -0.2938 -0.9970
 5669TIP3    H238423   2.246   5.702  11.685  0.3302 -0.5837 -1.4987
 5670TIP3   OH238424   1.650   2.278  16.343 -0.7373 -0.0339  0.2903
 5670TIP3    H138425   1.648   2.357  16.290  1.5429 -1.2639 -1.8264
 5670TIP3    H238426   1.559   2.265  16.370 -1.2936  2.9084  0.2110
 5671TIP3   OH238427   3.200   1.031   2.028  0.0850 -0.3979  0.2174
 5671TIP3    H138428   3.126   1.059   2.082 -2.8472 -0.9915 -3.1484
 5671TIP3    H238429   3.199   0.935   2.033  0.6963 -0.4091  0.2163
 5672TIP3   OH238430   0.943   2.387   2.749 -0.5670 -0.3744  0.0974
 5672TIP3    H138431   0.948   2.425   2.661 -1.6673  1.2749  0.6906
 5672TIP3    H238432   0.994   2.447   2.804 -0.2271 -1.1590  0.6495
 5673TIP3   OH238433   5.463   2.374   0.697  0.4904  0.2892 -0.8727
 5673TIP3    H138434   5.440   2.373   0.790  1.0724 -1.4193 -0.7149
 5673TIP3    H238435   5.387   2.412   0.654  0.4934  1.7854  0.3491
 5674TIP3   OH238436   3.702   1.333   4.223 -0.4776  0.5620  0.1358
 5674TIP3    H138437   3.795   1.350   4.234 -0.4152  0.6537 -0.4973
 5674TIP3    H238438   3.681   1.267   4.289  0.3058 -0.3715 -0.5286
 5675TIP3   OH238439   6.683   4.032   5.702 -0.1989  0.1454 -0.0206
 5675TIP3    H138440   6.700   3.941   5.723 -0.0176  0.7133  2.6052
 5675TIP3    H238441   6.613   4.059   5.762  0.6147  2.0494  0.1627
 5676TIP3   OH238442   4.831   0.431  16.742  0.7398  0.5405  0.5837
 5676TIP3    H138443   4.794   0.499  16.799  1.2075  0.5614  0.8671
 5676TIP3    H238444   4.881   0.375  16.801  1.3140  0.6202  0.1837
 5677TIP3   OH238445   3.722   4.416   5.620  0.5111  0.1610 -0.3264
 5677TIP3    H138446   3.719   4.495   5.674  1.2395  0.3080 -0.4988
 5677TIP3    H238447   3.738   4.448   5.531  1.0571 -0.1884 -0.3593
 5678TIP3   OH238448   1.404   0.709  12.236  0.0828 -0.2945 -0.0257
 5678TIP3    H138449   1.470   0.768  12.274 -1.4513  0.6885  1.2402
 5678TIP3    H238450   1.387   0.745  12.149  1.1323 -0.5198 -0.3404
 5679TIP3   OH238451   5.235   0.882   2.769  0.0171  0.2774 -0.0758
 5679TIP3    H138452   5.331   0.886   2.764  0.0478 -0.3246 -0.0535
 5679TIP3    H238453   5.205   0.920   2.687  0.3607 -2.5269 -1.6416
 5680TIP3   OH238454   2.424   6.422   3.861 -0.2701  0.4195 -0.0324
 5680TIP3    H138455   2.358   6.363   3.897 -0.1184  0.2857  0.0269
 5680TIP3    H238456   2.449   6.381   3.778  0.8783 -0.3576  0.6804
 5681TIP3   OH238457   3.864   5.027  12.801 -0.2519 -0.1144  0.0500
 5681TIP3    H138458   3.808   5.089  12.754 -0.3318 -0.2838 -0.0795
 5681TIP3    H238459   3.925   5.082  12.849 -0.6326  0.0799  0.3179
 5682TIP3   OH238460   6.164   6.282  12.809 -0.3600  0.7521 -0.2871
 5682TIP3    H138461   6.162   6.350  12.742  0.4407  0.7898 -0.2899
 5682TIP3    H238462   6.171   6.330  12.892 -1.4782  0.7098 -0.1538
 5683TIP3   OH238463   1.022   0.046   3.829 -0.2103  0.2458 -0.3289
 5683TIP3    H138464   1.094  -0.000   3.873  0.1096 -0.1383 -1.2440
 5683TIP3    H238465   1.035   0.138   3.853  0.7715  0.2192 -0.7310
 5684TIP3   OH238466   0.962   2.905  13.167  0.1363 -0.7180 -0.2310
 5684TIP3    H138467   0.907   2.826  13.164 -1.6069  0.4184  0.5626
 5684TIP3    H238468   0.976   2.921  13.260 -2.6325  1.8775 -0.0999
 5685TIP3   OH238469   2.229   3.081  11.045  0.6531  0.4834 -0.1851
 5685TIP3    H138470   2.324   3.095  11.050  1.0114 -1.6513 -0.2976
 5685TIP3    H238471   2.201   3.134  10.970  2.1912 -0.7570 -1.7235
 5686TIP3   OH238472   6.589   0.025  12.432  0.0569  0.5238  0.6433
 5686TIP3    H138473   6.672   0.012  12.478 -0.3880 -0.6977  1.1564
 5686TIP3    H238474   6.556  -0.064  12.418 -0.3128  0.8940 -1.1702
 5687TIP3   OH238475   6.376   5.525   0.552  0.2493  0.3217  0.4003
 5687TIP3    H138476   6.356   5.525   0.459 -0.3826  0.5472  0.5331
 5687TIP3    H238477   6.357   5.436   0.581  0.0010  0.3784  0.4098
 5688TIP3   OH238478   1.488   3.183  12.054  0.0814  0.0254 -0.3824
 5688TIP3    H138479   1.431   3.181  11.977  0.6728 -0.1128 -0.8304
 5688TIP3    H238480   1.454   3.115  12.112  0.2200 -0.5507 -0.9648
 5689TIP3   OH238481   3.884   0.491  15.894  0.2794 -0.5127  0.2910
 5689TIP3    H138482   3.959   0.550  15.906 -0.9123  0.8427  1.4914
 5689TIP3    H238483   3.822   0.541  15.841  0.8304 -2.2584 -2.1985
 5690TIP3   OH238484   1.789   4.676  15.266 -0.4982 -0.2531 -0.9594
 5690TIP3    H138485   1.774   4.590  15.227  0.0902 -0.2587 -1.1768
 5690TIP3    H238486   1.871   4.707  15.227 -0.8083  0.4923 -1.0312
 5691TIP3   OH238487   2.650   5.489   6.441  0.8724  0.0435  0.5044
 5691TIP3    H138488   2.587   5.536   6.496  0.1149 -0.6385  0.2393
 5691TIP3    H238489   2.718   5.554   6.421  0.5079  0.6496  1.2068
 5692TIP3   OH238490   6.636   6.620   6.644  0.0818  0.3622  0.7577
 5692TIP3    H138491   6.606   6.534   6.613 -1.8202  1.5610 -0.9268
 5692TIP3    H238492   6.567   6.681   6.618  1.3226  2.4248  2.0046
 5693TIP3   OH238493   6.637   4.953  14.431  0.1088  0.5273 -0.0844
 5693TIP3    H138494   6.691   5.029  14.410  0.1597  0.4092 -0.3835
 5693TIP3    H238495   6.666   4.886  14.370  0.3356  0.1416  0.4377
 5694TIP3   OH238496   4.024   3.695  10.995  0.0954 -0.2929  0.1139
 5694TIP3    H138497   4.036   3.785  10.967  0.5758 -0.2404  0.4752
 5694TIP3    H238498   3.932   3.676  10.975 -0.7381  1.0833  2.2896
 5695TIP3   OH238499   5.917   2.656   5.151 -0.3815 -0.0470  0.4735
 5695TIP3    H138500   5.967   2.599   5.209 -1.1364 -0.2280  0.9698
 5695TIP3    H238501   5.858   2.703   5.210 -0.5832  0.3796 -0.0627
 5696TIP3   OH238502   1.141   1.046  14.393  0.1263  0.1661  0.1458
 5696TIP3    H138503   1.127   0.973  14.452 -1.7984 -0.1464 -0.6320
 5696TIP3    H238504   1.061   1.051  14.341  1.7392  0.3755 -2.5103
 5697TIP3   OH238505   5.973   1.659  13.556  0.1721 -0.4134 -0.5048
 5697TIP3    H138506   6.022   1.619  13.484  1.4051 -0.2710  0.2135
 5697TIP3    H238507   5.933   1.737  13.517  0.2977 -0.6841 -1.1882
 5698TIP3   OH238508   5.132   2.897  14.224 -0.0613 -0.5987 -0.1051
 5698TIP3    H138509   5.172   2.980  14.199  1.5941 -1.6596 -1.1701
 5698TIP3    H238510   5.152   2.888  14.317 -0.6036  0.3565  0.1180
 5699TIP3   OH238511   4.857   6.716   5.911  0.6686 -0.1796 -0.2412
 5699TIP3    H138512   4.820   6.773   5.843  0.5032  1.0235  0.8082
 5699TIP3    H238513   4.875   6.634   5.867 -0.5340  0.1794 -1.4661
 5700TIP3   OH238514   4.977   4.905   1.115 -0.0238 -0.1611  0.2952
 5700TIP3    H138515   4.976   4.811   1.134 -1.1812  0.2401  2.4997
 5700TIP3    H238516   4.922   4.914   1.037  0.8023 -1.3776 -0.4679
 5701TIP3   OH238517   1.815   6.496  14.496 -0.0398  0.1285  0.0343
 5701TIP3    H138518   1.857   6.563  14.549  0.8511  1.5701 -2.3746
 5701TIP3    H238519   1.769   6.544  14.428 -0.1293 -1.6812 -1.2479
 5702TIP3   OH238520   6.180   1.341  15.237  0.0337  0.5183  0.1897
 5702TIP3    H138521   6.170   1.378  15.324 -1.5105 -0.1471  0.3218
 5702TIP3    H238522   6.095   1.301  15.217 -0.3994  2.4788 -2.4770
 5703TIP3   OH238523   4.089   0.854   3.091 -0.7658  0.1009  0.1677
 5703TIP3    H138524   4.144   0.791   3.046 -0.4197  0.8972 -0.5617
 5703TIP3    H238525   4.029   0.886   3.024 -0.3544  1.1770  0.2772
 5704TIP3   OH238526   5.832   6.030   1.291 -0.0388  0.1552  0.4419
 5704TIP3    H138527   5.904   5.975   1.258 -2.1696 -3.0880  0.7683
 5704TIP3    H238528   5.849   6.036   1.385 -0.5994 -1.3915  0.6728
 5705TIP3   OH238529   4.956   6.125  12.781  0.3514 -0.9009 -0.0069
 5705TIP3    H138530   5.041   6.156  12.814 -1.2947  3.7908  0.5705
 5705TIP3    H238531   4.892   6.174  12.832 -2.5615 -0.1756 -3.9473
 5706TIP3   OH238532   1.573   4.538  16.863  0.3901 -0.2482 -0.0612
 5706TIP3    H138533   1.656   4.499  16.889 -0.3738 -1.6661  0.3371
 5706TIP3    H238534   1.544   4.587  16.940  1.8775  2.1866 -0.9054
 5707TIP3   OH238535   0.474   3.964   4.499 -0.2370 -0.5800  0.2803
 5707TIP3    H138536   0.532   3.889   4.492  0.2050 -0.2000 -0.1763
 5707TIP3    H238537   0.413   3.954   4.425  0.5788  0.1495 -0.5027
 5708TIP3   OH238538   3.614   4.556  11.335 -0.2827  0.5296  0.0056
 5708TIP3    H138539   3.685   4.545  11.272 -0.9162  0.8904 -0.7928
 5708TIP3    H238540   3.624   4.482  11.395  0.7242  0.5487 -0.1237
 5709TIP3   OH238541   6.260   4.281   5.062 -0.3559  0.2002 -0.7425
 5709TIP3    H138542   6.349   4.315   5.072  0.4464 -1.9786  0.0412
 5709TIP3    H238543   6.256   4.251   4.971  0.1563 -0.7842 -0.4573
 5710TIP3   OH238544   6.683   2.216  12.696  0.1291  0.5517 -0.0591
 5710TIP3    H138545   6.718   2.305  12.702 -3.1301  1.9130  1.3187
 5710TIP3    H238546   6.690   2.181  12.785 -0.0002  0.0108 -0.2541
 5711TIP3   OH238547   4.294   1.809  12.298 -0.2524  0.3798 -0.3208
 5711TIP3    H138548   4.357   1.773  12.237 -1.0658 -0.4201 -0.7188
 5711TIP3    H238549   4.238   1.735  12.322  1.2420  0.1307  3.0142
 5712TIP3   OH238550   0.096   0.741   5.043  0.7279 -0.3250  0.6712
 5712TIP3    H138551   0.039   0.735   4.967  0.4005  1.0089  0.7814
 5712TIP3    H238552   0.111   0.835   5.054  0.6404 -0.4779  2.3385
 5713TIP3   OH238553   1.829   6.274   2.803  0.7066  0.5824  0.0632
 5713TIP3    H138554   1.895   6.208   2.782  0.7794  0.7520 -0.2601
 5713TIP3    H238555   1.798   6.304   2.717  0.2567  0.5509  0.2125
 5714TIP3   OH238556   6.091   6.696   5.332 -0.4688 -0.4868  0.2176
 5714TIP3    H138557   6.065   6.605   5.345  1.5557 -1.2967 -0.9042
 5714TIP3    H238558   6.120   6.725   5.418 -2.4656 -0.3762  0.9065
 5715TIP3   OH238559   6.318   5.202   0.683 -0.1646 -0.1356 -0.3393
 5715TIP3    H138560   6.304   5.116   0.721  0.2455  0.0220  0.1780
 5715TIP3    H238561   6.413   5.210   0.674 -0.0905  0.8064  0.9362
 5716TIP3   OH238562   4.018   1.745   2.656 -0.0775  0.0394  0.2819
 5716TIP3    H138563   4.100   1.712   2.694  0.1383 -0.1842 -0.3682
 5716TIP3    H238564   3.949   1.708   2.711  0.1034 -2.3290 -0.9796
 5717TIP3   OH238565   1.664   0.962  12.836  0.3953 -0.1550 -0.2262
 5717TIP3    H138566   1.652   0.921  12.750 -1.1162 -1.4177  0.5388
 5717TIP3    H238567   1.576   0.987  12.864  0.9697  1.1503  0.5570
 5718TIP3   OH238568   1.271   4.015  13.865  0.0282 -0.4338  1.1292
 5718TIP3    H138569   1.257   4.090  13.807  0.6828 -0.8195  0.4498
 5718TIP3    H238570   1.220   4.036  13.944  1.7810  1.6658  1.8007
 5719TIP3   OH238571   0.873   4.655   0.147  0.2802 -0.4028  0.6893
 5719TIP3    H138572   0.967   4.654   0.164  0.0208  0.5574  2.3829
 5719TIP3    H238573   0.845   4.565   0.161  0.7535 -0.4388  1.4553
 5720TIP3   OH238574   2.276   3.499  12.545  0.1240 -0.2900  0.2912
 5720TIP3    H138575   2.249   3.504  12.637  1.3621 -1.9334  0.8028
 5720TIP3    H238576   2.196   3.471  12.499 -0.3194 -0.2170  0.9932
 5721TIP3   OH238577   4.600   0.193   1.437  0.0112 -0.4454  0.2199
 5721TIP3    H138578   4.669   0.240   1.483 -1.5202  1.4516  0.7256
 5721TIP3    H238579   4.537   0.171   1.506 -0.8805 -0.2445 -0.5202
 5722TIP3   OH238580   4.741   2.222   0.480  0.1502 -0.7365 -0.4579
 5722TIP3    H138581   4.788   2.306   0.472  1.1140 -1.2362 -0.2293
 5722TIP3    H238582   4.696   2.212   0.396 -0.3049  0.1990 -0.3400
 5723TIP3   OH238583   4.428   4.050   2.185 -0.3526  0.1089  0.0433
 5723TIP3    H138584   4.462   4.033   2.273 -0.3403 -0.4740 -0.0657
 5723TIP3    H238585   4.350   3.994   2.178 -0.6519  0.5395 -0.1332
 5724TIP3   OH238586   2.487   3.148  16.407 -0.5308  0.3954  0.4426
 5724TIP3    H138587   2.429   3.126  16.479 -0.9263 -2.4660 -0.5902
 5724TIP3    H238588   2.440   3.215  16.358 -3.4164 -2.1660 -0.6545
 5725TIP3   OH238589   6.387   6.623   1.996 -0.3538  0.7829 -0.3537
 5725TIP3    H138590   6.470   6.642   1.952 -0.5373  0.7226 -0.7295
 5725TIP3    H238591   6.355   6.544   1.953 -1.8319  2.1748 -1.9727
 5726TIP3   OH238592   3.219   1.494  11.812 -0.0765  0.0780 -0.0426
 5726TIP3    H138593   3.146   1.437  11.838  2.0285 -2.9737 -0.3132
 5726TIP3    H238594   3.205   1.510  11.719 -0.8227  0.2422  0.0892
 5727TIP3   OH238595   0.411   3.774   4.068  0.1574 -0.5013  0.1997
 5727TIP3    H138596   0.347   3.833   4.108  0.2814 -0.7817  0.8345
 5727TIP3    H238597   0.479   3.831   4.032  0.5820 -0.2677  1.3310
 5728TIP3   OH238598   5.637   4.912  14.916  0.6708 -0.1183 -0.4798
 5728TIP3    H138599   5.679   4.991  14.951 -0.3866 -0.1078  0.8446
 5728TIP3    H238600   5.599   4.940  14.833 -1.0991  1.2634  0.7098
 5729TIP3   OH238601   1.738   6.114   0.842  0.2584 -0.1205 -0.3344
 5729TIP3    H138602   1.797   6.178   0.803  1.3909 -1.1546 -0.3791
 5729TIP3    H238603   1.711   6.153   0.925  0.5436  0.6116 -0.5832
 5730TIP3   OH238604   3.360   2.402  13.051 -0.4041  0.3616  0.0624
 5730TIP3    H138605   3.436   2.353  13.083 -0.2987  0.4017 -0.1269
 5730TIP3    H238606   3.291   2.384  13.115 -0.4677 -0.3180 -0.1913
 5731TIP3   OH238607   1.870   6.062   1.331  0.2793  0.3197 -0.8098
 5731TIP3    H138608   1.940   6.004   1.362 -0.5426  1.3975  3.8096
 5731TIP3    H238609   1.892   6.148   1.366 -3.0088  0.7983  0.4644
 5732TIP3   OH238610   2.683   5.045  12.826  0.2101  0.3414 -0.2530
 5732TIP3    H138611   2.642   4.964  12.857  1.0369  0.6028  1.6604
 5732TIP3    H238612   2.681   5.038  12.731 -1.7086 -0.9109 -0.1596
 5733TIP3   OH238613   3.096   2.550  15.537  0.1985  0.4255 -0.0035
 5733TIP3    H138614   3.166   2.490  15.510 -0.6213  0.3483 -2.1107
 5733TIP3    H238615   3.053   2.506  15.610 -0.2928 -1.5131 -1.4024
 5734TIP3   OH238616   3.020   2.545  13.615 -0.3882  0.1141 -0.6228
 5734TIP3    H138617   3.078   2.469  13.629 -0.8757 -0.0530  0.5719
 5734TIP3    H238618   2.945   2.509  13.568 -0.7657 -0.2263  0.2173
 5735TIP3   OH238619   4.893   5.232   0.263  0.1983  0.2946  0.0649
 5735TIP3    H138620   4.841   5.153   0.279  1.7458 -0.9191 -0.6595
 5735TIP3    H238621   4.916   5.264   0.350  2.3583 -2.0166  0.4326
 5736TIP3   OH238622   5.531   2.859   2.440  0.2954 -0.1110  0.0223
 5736TIP3    H138623   5.445   2.897   2.457  1.0868  1.2154  1.2764
 5736TIP3    H238624   5.581   2.929   2.398  1.1352 -0.4354  0.4460
 5737TIP3   OH238625   0.408   0.747   0.837 -0.0196  0.3172  0.4461
 5737TIP3    H138626   0.434   0.664   0.795  1.4553  1.6141 -1.4022
 5737TIP3    H238627   0.488   0.778   0.879 -0.1304  1.5209 -0.1955
 5738TIP3   OH238628   3.759   5.269  16.634  0.3881 -0.4242  0.2853
 5738TIP3    H138629   3.737   5.322  16.558 -0.0461  0.0948  0.7644
 5738TIP3    H238630   3.823   5.322  16.683  0.9556 -0.9177  0.0908
 5739TIP3   OH238631   5.385   1.679  15.929  0.5260 -0.1960  0.7379
 5739TIP3    H138632   5.291   1.666  15.924  0.3504  0.8783  1.0333
 5739TIP3    H238633   5.422   1.591  15.918 -0.3980 -0.3652 -1.5858
 5740TIP3   OH238634   4.028   0.316   1.413 -0.4214  0.4297  0.4840
 5740TIP3    H138635   3.979   0.264   1.476  0.2455 -0.1528  0.5325
 5740TIP3    H238636   4.093   0.256   1.377 -0.1128  1.0334  0.0041
 5741TIP3   OH238637   0.417   3.771   3.590  0.0430  0.1228  0.4282
 5741TIP3    H138638   0.377   3.752   3.675  1.2393  1.2801  1.2922
 5741TIP3    H238639   0.468   3.693   3.570  0.3877  0.1426  1.1834
 5742TIP3   OH238640   2.454   4.957  14.956 -0.1643  0.4683 -0.6422
 5742TIP3    H138641   2.541   4.997  14.962 -0.7309  1.7953 -0.7362
 5742TIP3    H238642   2.452   4.916  14.870  0.4081  0.3160 -0.5895
 5743TIP3   OH238643   4.209   5.036   2.771 -0.2254 -0.1485 -0.1266
 5743TIP3    H138644   4.268   5.008   2.841 -0.2285 -0.4185 -0.2290
 5743TIP3    H238645   4.263   5.092   2.715 -0.8171  1.9830  1.3233
 5744TIP3   OH238646   3.886   6.151   3.938  0.2562  0.1437 -0.7293
 5744TIP3    H138647   3.837   6.208   3.879 -0.8808  0.1792  0.1962
 5744TIP3    H238648   3.910   6.208   4.012 -0.2843 -0.3933 -0.1268
 5745TIP3   OH238649   5.457   6.063  16.287  0.0036  0.5591  0.0124
 5745TIP3    H138650   5.492   5.974  16.291 -2.5238 -0.4844  1.0200
 5745TIP3    H238651   5.445   6.089  16.378 -2.8633  0.3140 -0.1966
 5746TIP3   OH238652   2.133   6.678  12.072 -0.5867 -0.1983 -0.4102
 5746TIP3    H138653   2.059   6.619  12.057 -0.1308 -1.1596  0.9214
 5746TIP3    H238654   2.211   6.625  12.052 -0.1233 -0.4302  1.7810
 5747TIP3   OH238655   3.291   4.903   4.335 -0.7000  0.0646 -0.1545
 5747TIP3    H138656   3.372   4.936   4.296  0.6726 -0.5147  2.0499
 5747TIP3    H238657   3.257   4.976   4.387  0.0990 -0.5998  1.3677
 5748TIP3   OH238658   3.827   4.762   1.993  0.5834  0.2347 -0.5854
 5748TIP3    H138659   3.866   4.746   1.907  1.3813 -2.2285  0.1415
 5748TIP3    H238660   3.785   4.848   1.985  1.7277  0.6594 -3.0091
 5749TIP3   OH238661   5.979   0.491   3.149  0.1693  0.3775 -0.1271
 5749TIP3    H138662   6.021   0.437   3.216  1.8223  0.3326 -1.1556
 5749TIP3    H238663   5.890   0.457   3.143  0.4931 -0.7007  0.8620
 5750TIP3   OH238664   0.126   2.684  11.649 -0.2784 -0.2687 -0.1817
 5750TIP3    H138665   0.049   2.650  11.605 -0.2634 -0.4782 -0.0461
 5750TIP3    H238666   0.125   2.642  11.735 -0.1353 -0.1035 -0.0994
 5751TIP3   OH238667   4.465   2.802  12.761  0.7531  0.3355 -0.0443
 5751TIP3    H138668   4.507   2.774  12.842 -1.6042 -0.5865  0.9433
 5751TIP3    H238669   4.526   2.775  12.692  2.1312 -0.1843  1.3246
 5752TIP3   OH238670   4.797   5.059   6.318  0.1523  0.3241 -0.3716
 5752TIP3    H138671   4.862   5.128   6.325 -0.0277  0.4289  0.4075
 5752TIP3    H238672   4.813   5.002   6.394 -0.9514  0.6262  0.1228
 5753TIP3   OH238673   0.173   5.057  13.135 -0.4258 -0.0900 -0.1792
 5753TIP3    H138674   0.204   5.099  13.215 -1.4761  0.7908 -0.2138
 5753TIP3    H238675   0.248   5.060  13.076  0.2162 -0.3365  0.6145
 5754TIP3   OH238676   3.824   2.565   1.418 -0.2992  0.0734  0.6186
 5754TIP3    H138677   3.808   2.478   1.453 -2.2352 -0.4931 -1.4646
 5754TIP3    H238678   3.738   2.609   1.422 -0.0252  0.8364 -1.0037
 5755TIP3   OH238679   1.508   5.133   3.928 -0.2576  0.4210 -0.1540
 5755TIP3    H138680   1.444   5.062   3.924  0.6398 -0.3870 -0.9243
 5755TIP3    H238681   1.494   5.183   3.848 -0.1362  0.4126 -0.1818
 5756TIP3   OH238682   5.043   3.062   2.713  0.1783  0.2243  0.8870
 5756TIP3    H138683   5.137   3.063   2.696 -0.0007  1.0059 -0.1747
 5756TIP3    H238684   5.033   3.119   2.789  0.4237  1.4441  0.0383
 5757TIP3   OH238685   5.692   1.552  16.206  0.3130  0.2719 -0.4550
 5757TIP3    H138686   5.677   1.489  16.277 -1.1670  0.1847 -0.8163
 5757TIP3    H238687   5.654   1.634  16.238  2.6347  1.2029  0.2140
 5758TIP3   OH238688   2.661   1.292  16.449  0.4922 -0.4522  0.8234
 5758TIP3    H138689   2.739   1.242  16.426  0.4276  0.4587 -1.7051
 5758TIP3    H238690   2.694   1.381  16.466  0.1518 -0.3993  1.2421
 5759TIP3   OH238691   1.082   1.610   0.259 -0.3385  0.1667  0.8363
 5759TIP3    H138692   1.090   1.520   0.290 -1.8813  0.6369  2.7900
 5759TIP3    H238693   1.147   1.659   0.310 -0.3190  0.3533  0.6349
 5760TIP3   OH238694   3.879   5.982  14.524  0.6676 -0.1457 -0.0710
 5760TIP3    H138695   3.861   5.944  14.437 -0.1524  0.4548 -0.1670
 5760TIP3    H238696   3.956   5.934  14.555 -0.4116 -1.9921 -0.1313
 5761TIP3   OH238697   1.438   3.670   1.059  0.1110 -0.0987 -0.1908
 5761TIP3    H138698   1.477   3.605   1.117 -0.5801 -1.0782 -0.8003
 5761TIP3    H238699   1.389   3.728   1.117  0.1449 -0.5462  0.2854
 5762TIP3   OH238700   6.604   6.297  11.887  0.5382 -0.5053 -0.3405
 5762TIP3    H138701   6.662   6.318  11.814 -0.2374 -0.3149 -0.9146
 5762TIP3    H238702   6.624   6.206  11.908  1.2589 -0.3464 -0.3284
 5763TIP3   OH238703   3.861   5.894  11.778 -0.7124 -0.2288 -0.4517
 5763TIP3    H138704   3.828   5.814  11.821 -3.2061  1.4077  0.9199
 5763TIP3    H238705   3.790   5.957  11.786  1.8061  2.7892  0.2050
 5764TIP3   OH238706   0.959   0.374  16.767 -0.4830  0.5858 -0.2512
 5764TIP3    H138707   0.942   0.436  16.838  0.5819  0.5156  0.0743
 5764TIP3    H238708   0.907   0.407  16.693 -0.9266  1.1375  0.3027
 5765TIP3   OH238709   6.580   5.077   0.146  0.3983 -0.0734 -0.2154
 5765TIP3    H138710   6.564   5.005   0.085  1.8324 -1.1698  0.6172
 5765TIP3    H238711   6.676   5.082   0.151  0.3071  1.2476  0.5067
 5766TIP3   OH238712   3.249   5.815  15.025 -0.3186 -0.3885 -0.3215
 5766TIP3    H138713   3.281   5.850  14.943 -2.1508 -0.2516 -1.0318
 5766TIP3    H238714   3.159   5.789  15.007 -0.0852 -2.4032  1.0679
 5767TIP3   OH238715   6.624   4.973   1.469 -0.0110 -0.3050 -0.3554
 5767TIP3    H138716   6.691   4.908   1.490  0.5721  0.8713  1.6561
 5767TIP3    H238717   6.556   4.960   1.535 -1.1052 -0.5003 -1.4761
 5768TIP3   OH238718   0.564   4.068   1.523 -0.1746 -0.0602 -0.6451
 5768TIP3    H138719   0.553   4.097   1.613  0.5085 -1.7506  0.0412
 5768TIP3    H238720   0.475   4.051   1.492 -0.3996  0.3105 -0.2061
 5769TIP3   OH238721   4.090   3.511  13.373  0.4435  0.6630 -0.0342
 5769TIP3    H138722   4.121   3.569  13.304  0.6895 -0.4894 -0.9412
 5769TIP3    H238723   4.110   3.423  13.340 -0.8895  0.0188  0.7998
 5770TIP3   OH238724   5.189   1.558  11.256  0.1942  0.4312  0.1339
 5770TIP3    H138725   5.203   1.614  11.332  2.6204 -0.1154  0.1656
 5770TIP3    H238726   5.205   1.615  11.181  2.3712 -0.0423  0.1631
 5771TIP3   OH238727   3.677   0.216   1.818 -0.3182 -0.1614 -0.1632
 5771TIP3    H138728   3.685   0.167   1.736  0.6876  0.4787 -0.4597
 5771TIP3    H238729   3.618   0.162   1.872 -1.2865 -0.4210 -1.4178
 5772TIP3   OH238730   4.732   3.151   4.648 -0.0801  0.1318  0.3890
 5772TIP3    H138731   4.647   3.171   4.687 -1.1798 -3.9598  0.5315
 5772TIP3    H238732   4.714   3.139   4.555  0.2520 -0.9010  0.4413
 5773TIP3   OH238733   1.679   1.867  16.413 -0.1343 -0.5553 -0.5689
 5773TIP3    H138734   1.750   1.805  16.430  0.4063 -0.1071 -1.1513
 5773TIP3    H238735   1.661   1.905  16.499 -0.4345 -1.4697 -0.2157
 5774TIP3   OH238736   1.856   2.025   6.449  0.8862  0.8238  0.1077
 5774TIP3    H138737   1.916   2.068   6.387  0.7682  1.5399  0.4914
 5774TIP3    H238738   1.789   2.090   6.466  0.4083  0.2869  0.2757
 5775TIP3   OH238739   6.190   1.598   1.143  0.2028  0.0830  0.6159
 5775TIP3    H138740   6.194   1.649   1.062 -3.1714 -0.0112  0.2579
 5775TIP3    H238741   6.208   1.662   1.212  1.7201  0.4580 -0.0844
 5776TIP3   OH238742   5.459   6.136  11.536  0.2209  0.1060  0.5556
 5776TIP3    H138743   5.367   6.147  11.556  0.2776  1.6214  0.0765
 5776TIP3    H238744   5.466   6.156  11.442  1.1097  0.4748  0.6916
 5777TIP3   OH238745   0.587   1.700  16.409 -0.0680  0.1040  0.0597
 5777TIP3    H138746   0.603   1.625  16.352  2.3175  0.0899  0.6596
 5777TIP3    H238747   0.562   1.661  16.493  1.0398 -0.0505  0.3331
 5778TIP3   OH238748   4.907   4.708  10.556  0.6116 -0.1857 -0.2914
 5778TIP3    H138749   4.832   4.747  10.602 -0.0032 -2.7100  1.0343
 5778TIP3    H238750   4.977   4.773  10.566 -0.0595  0.2444  2.6382
 5779TIP3   OH238751   0.139   5.077  17.180 -0.0983  0.2594 -0.4500
 5779TIP3    H138752   0.216   5.097  17.126  1.9084 -2.7709  1.0146
 5779TIP3    H238753   0.174   5.032  17.256 -3.3404 -1.0222  0.4524
 5780TIP3   OH238754   0.341   4.145   5.720 -0.2956 -0.6954 -0.0205
 5780TIP3    H138755   0.312   4.235   5.737  2.2226  0.4012 -1.0698
 5780TIP3    H238756   0.302   4.094   5.791 -2.2883  1.0944  0.2717
 5781TIP3   OH238757   4.758   1.085   1.417  0.6750  0.3959 -0.0791
 5781TIP3    H138758   4.741   1.159   1.476 -1.7418  0.2342 -0.4689
 5781TIP3    H238759   4.825   1.034   1.462  1.9958  2.4831  0.4757
 5782TIP3   OH238760   6.059   5.554  14.954 -0.1265 -0.1920  0.2471
 5782TIP3    H138761   6.012   5.471  14.967  1.5269 -1.0129  1.2335
 5782TIP3    H238762   6.095   5.547  14.866 -2.6078  0.9017 -0.9708
 5783TIP3   OH238763   2.839   2.520   4.121  0.4148  0.3819  0.4280
 5783TIP3    H138764   2.750   2.502   4.089  0.5289  0.3422  0.1268
 5783TIP3    H238765   2.867   2.438   4.161  1.2836 -0.4707 -1.7583
 5784TIP3   OH238766   5.113   0.071   1.830 -0.0012  0.1535  0.3770
 5784TIP3    H138767   5.178   0.002   1.842  0.5349  0.3704 -1.0232
 5784TIP3    H238768   5.044   0.030   1.777  0.5027  0.7661 -0.7912
 5785TIP3   OH238769   2.491   3.699  14.942  0.1501  0.7083  0.5142
 5785TIP3    H138770   2.437   3.776  14.963 -0.7542  0.1746  0.2205
 5785TIP3    H238771   2.474   3.684  14.849 -0.6500 -0.5672  0.8398
 5786TIP3   OH238772   4.708   6.006   1.146 -0.2879  0.7846  0.7704
 5786TIP3    H138773   4.679   6.041   1.230  1.6265  1.0710  1.3759
 5786TIP3    H238774   4.747   5.921   1.168 -2.5282 -0.5988 -0.3099
 5787TIP3   OH238775   0.609   1.092   1.670  0.3121  0.6181  0.7309
 5787TIP3    H138776   0.653   1.172   1.700  1.7156  0.2885 -0.3636
 5787TIP3    H238777   0.629   1.087   1.577 -1.4249  0.0194  0.3626
 5788TIP3   OH238778   4.996   4.677   0.418 -0.4212 -0.1042 -0.3338
 5788TIP3    H138779   5.019   4.716   0.503 -0.4997 -0.6413 -0.0595
 5788TIP3    H238780   4.992   4.583   0.436 -0.1243 -0.2494 -1.0098
 5789TIP3   OH238781   2.298   0.507   5.915  0.3028  0.1811 -0.3734
 5789TIP3    H138782   2.373   0.557   5.883 -0.1638  0.5470 -0.9199
 5789TIP3    H238783   2.282   0.541   6.003 -0.1237  1.1297 -0.8090
 5790TIP3   OH238784   4.949   5.235  15.710 -0.0926  0.7128  0.1412
 5790TIP3    H138785   4.911   5.157  15.670  0.4628  1.2435 -1.4929
 5790TIP3    H238786   4.971   5.208  15.799  0.3993 -1.0960 -0.4886
 5791TIP3   OH238787   5.076   2.192   2.811  0.0549 -0.5884  0.0294
 5791TIP3    H138788   4.983   2.212   2.799  0.2158  0.7320  0.8288
 5791TIP3    H238789   5.110   2.264   2.863  1.4424 -1.2886  0.1478
 5792TIP3   OH238790   3.185   1.752   0.008  0.5149  0.0068  0.7693
 5792TIP3    H138791   3.199   1.773   0.100 -1.5545  0.1261  1.1044
 5792TIP3    H238792   3.114   1.688   0.008  0.8536 -0.4221 -0.7267
 5793TIP3   OH238793   3.084   0.308   4.313  0.9091 -1.0826  0.4155
 5793TIP3    H138794   3.161   0.261   4.345  0.2117 -1.4456  1.6526
 5793TIP3    H238795   3.010   0.256   4.345  0.1184  0.6421  1.5121
 5794TIP3   OH238796   1.390   4.661   0.315 -0.0847 -0.5888  0.5236
 5794TIP3    H138797   1.443   4.615   0.379 -0.3992 -1.2510  0.3227
 5794TIP3    H238798   1.300   4.643   0.341 -0.2386  1.1817  1.3328
 5795TIP3   OH238799   4.546   4.128  17.056 -0.3099  0.5763 -0.8549
 5795TIP3    H138800   4.636   4.138  17.026  0.4995 -0.0769  1.1596
 5795TIP3    H238801   4.527   4.209  17.104  0.4338 -0.5261  1.4784
 5796TIP3   OH238802   4.355   5.899  12.413 -0.0167  0.2791 -0.3566
 5796TIP3    H138803   4.270   5.923  12.450 -0.4065 -0.6330 -0.6124
 5796TIP3    H238804   4.342   5.809  12.382  0.8031  0.4140 -1.1297
 5797TIP3   OH238805   0.492   6.203   2.373  0.2074 -0.0326  0.0357
 5797TIP3    H138806   0.485   6.295   2.398 -1.0906 -0.3246  0.8138
 5797TIP3    H238807   0.445   6.156   2.441  1.9514 -1.4128  0.3702
 5798TIP3   OH238808   5.580   3.480  11.724  0.3347  0.1018  0.1943
 5798TIP3    H138809   5.591   3.386  11.736  1.5077  0.2698  0.5240
 5798TIP3    H238810   5.562   3.514  11.812  1.2413  0.3478  0.2925
 5799TIP3   OH238811   2.968   1.668   2.716 -0.3821 -0.7229  0.5593
 5799TIP3    H138812   2.874   1.650   2.725  0.1740 -3.9317  0.9828
 5799TIP3    H238813   2.995   1.696   2.804 -1.2165  2.4511 -0.0518
 5800TIP3   OH238814   4.655   5.349  16.384  0.6286 -0.3043  0.2502
 5800TIP3    H138815   4.728   5.379  16.439  1.6379 -0.4327 -0.9841
 5800TIP3    H238816   4.681   5.373  16.295 -0.4408 -1.1520 -0.3032
 5801TIP3   OH238817   0.792   0.435  15.440 -0.3187  0.2695  0.4002
 5801TIP3    H138818   0.731   0.467  15.507 -0.6736  3.7056 -1.3215
 5801TIP3    H238819   0.872   0.485  15.455 -0.2991  0.8784 -1.4670
 5802TIP3   OH238820   5.974   5.864   5.400  0.4829 -0.4543 -0.5766
 5802TIP3    H138821   5.925   5.822   5.329  0.3496  1.5993 -1.7770
 5802TIP3    H238822   6.027   5.931   5.356  0.4478  0.8541  1.2637
 5803TIP3   OH238823   3.508   6.119  17.305  0.7860  0.2676  0.3531
 5803TIP3    H138824   3.465   6.201  17.279 -0.3218 -0.4040 -0.0226
 5803TIP3    H238825   3.461   6.092  17.384  0.0865 -0.7777 -0.3869
 5804TIP3   OH238826   4.653   5.840  10.873 -0.1604 -0.3792 -0.1362
 5804TIP3    H138827   4.744   5.869  10.862  0.0271 -1.0615 -0.4633
 5804TIP3    H238828   4.617   5.898  10.940  0.7276 -0.5305  0.5028
 5805TIP3   OH238829   3.202   4.691  13.472  0.1263  0.2001  0.4909
 5805TIP3    H138830   3.207   4.768  13.414  0.9298 -1.1594 -1.3470
 5805TIP3    H238831   3.231   4.618  13.417 -1.4300 -1.5825  1.9322
 5806TIP3   OH238832   2.863   3.148  14.182  0.3233 -0.1181  0.1373
 5806TIP3    H138833   2.860   3.151  14.087 -0.1243  0.0215  0.1539
 5806TIP3    H238834   2.922   3.220  14.207 -1.5727  1.5816  0.0600
 5807TIP3   OH238835   3.374   6.647   4.261  0.7722 -0.4170 -0.0476
 5807TIP3    H138836   3.359   6.558   4.229 -0.0611 -0.0310 -0.7643
 5807TIP3    H238837   3.445   6.680   4.205 -0.9895  0.4170 -1.9091
 5808TIP3   OH238838   0.883   3.653  13.263 -0.2541 -0.1656 -0.5648
 5808TIP3    H138839   0.909   3.629  13.174 -0.2237  0.0720 -0.6218
 5808TIP3    H238840   0.944   3.606  13.319 -1.3201 -1.6663 -0.5930
 5809TIP3   OH238841   6.389   1.410   1.173  0.2451 -0.0102 -0.5810
 5809TIP3    H138842   6.337   1.465   1.114  0.8994  0.0539 -1.1087
 5809TIP3    H238843   6.371   1.445   1.260 -1.5276 -0.7384 -0.6041
 5810TIP3   OH238844   1.434   4.075  13.308 -0.7608  0.7234  0.0136
 5810TIP3    H138845   1.509   4.030  13.346  0.5553  2.2464 -0.6742
 5810TIP3    H238846   1.373   4.005  13.285  0.1325 -0.5020  1.2094
 5811TIP3   OH238847   1.272   1.813   0.344  0.1135  0.2232 -0.3412
 5811TIP3    H138848   1.326   1.877   0.296 -1.7098  1.4121 -0.9408
 5811TIP3    H238849   1.275   1.843   0.435 -0.1909  0.7925 -0.5099
 5812TIP3   OH238850   6.704   5.256  14.047 -0.0680 -0.3039 -0.0062
 5812TIP3    H138851   6.749   5.185  14.092  0.2995  1.1508  2.0506
 5812TIP3    H238852   6.658   5.213  13.975  0.6160 -2.5191  0.7914
 5813TIP3   OH238853   3.470   4.434   3.847  0.2100  0.0420 -0.8699
 5813TIP3    H138854   3.415   4.509   3.869  0.9269  0.0920  0.9160
 5813TIP3    H238855   3.508   4.407   3.930  1.8963 -0.7875 -1.8623
 5814TIP3   OH238856   4.488   4.464   2.452 -0.3492 -0.7593 -0.1564
 5814TIP3    H138857   4.496   4.558   2.472 -0.0082 -0.7618 -0.2712
 5814TIP3    H238858   4.551   4.422   2.510 -2.0242 -1.1419  1.4554
 5815TIP3   OH238859   2.325   6.210   5.876 -0.3355  0.0865 -0.2287
 5815TIP3    H138860   2.360   6.284   5.826  0.1159  0.3233  0.4249
 5815TIP3    H238861   2.395   6.187   5.937 -0.6388 -0.6012 -0.1295
 5816TIP3   OH238862   5.766   2.012   0.252  0.2202 -0.4587 -0.3762
 5816TIP3    H138863   5.693   2.070   0.270  1.3807 -0.1889  5.0637
 5816TIP3    H238864   5.775   2.013   0.156 -3.4925  3.5410 -0.9585
 5817TIP3   OH238865   3.118   5.279   2.665  0.1234 -0.0855 -0.0609
 5817TIP3    H138866   3.129   5.367   2.700  0.2133  0.0722 -0.4820
 5817TIP3    H238867   3.197   5.263   2.614 -0.2216 -0.1255 -0.5883
 5818TIP3   OH238868   0.407   5.236   0.662 -0.5321 -0.6987 -0.3342
 5818TIP3    H138869   0.467   5.171   0.697 -0.0642 -0.9268 -1.4980
 5818TIP3    H238870   0.342   5.186   0.613 -0.1524 -0.3074 -1.2664
 5819TIP3   OH238871   1.453   0.591   5.650  0.2910  0.1729  0.0643
 5819TIP3    H138872   1.415   0.542   5.723 -0.0963 -0.1835 -0.3643
 5819TIP3    H238873   1.541   0.613   5.679  0.7831 -1.5000 -0.0171
 5820TIP3   OH238874   3.557   0.302  16.527  0.1749 -1.1925  0.1517
 5820TIP3    H138875   3.598   0.387  16.536 -1.7759 -0.3894  2.2489
 5820TIP3    H238876   3.563   0.283  16.433 -0.0073  1.6002 -0.5131
 5821TIP3   OH238877   0.763   5.073   3.852  0.5194  0.2460  0.3642
 5821TIP3    H138878   0.768   4.979   3.837 -0.9347  0.1486  0.2959
 5821TIP3    H238879   0.835   5.110   3.800  0.8053 -0.7800  0.0049
 5822TIP3   OH238880   5.596   2.784   1.115  0.4126 -0.0982 -0.0451
 5822TIP3    H138881   5.526   2.731   1.077 -0.6784  0.1648  1.4811
 5822TIP3    H238882   5.551   2.839   1.180  2.3653 -2.1664  3.3286
 5823TIP3   OH238883   1.280   0.316  12.486 -0.7913  0.6639  0.3613
 5823TIP3    H138884   1.309   0.313  12.577  0.6538  0.1828 -0.0900
 5823TIP3    H238885   1.277   0.410  12.465 -1.0789  0.7747  0.8697
 5824TIP3   OH238886   4.562   5.345  15.978  0.3174 -0.0046 -0.0528
 5824TIP3    H138887   4.630   5.375  15.917  1.5363 -0.5229  0.9978
 5824TIP3    H238888   4.537   5.259  15.945  0.2546  0.1354 -0.3775
 5825TIP3   OH238889   0.187   4.510   3.013  0.5726 -0.0072  0.2405
 5825TIP3    H138890   0.260   4.527   2.953  1.1482  0.1809  0.9799
 5825TIP3    H238891   0.197   4.577   3.081 -0.5033  0.2434  0.1669
 5826TIP3   OH238892   4.541   3.244  11.168  0.6384  0.6546  0.3630
 5826TIP3    H138893   4.596   3.195  11.229 -1.2062  0.8762  2.2961
 5826TIP3    H238894   4.555   3.201  11.083  2.1931 -0.5706  1.1953
 5827TIP3   OH238895   6.341   5.892   3.108 -0.2194 -0.3756  0.2843
 5827TIP3    H138896   6.432   5.914   3.088 -0.2531 -0.4909  0.0029
 5827TIP3    H238897   6.347   5.817   3.168 -0.1499 -1.2647 -0.8116
 5828TIP3   OH238898   4.885   3.244   1.352  0.5883  0.2612 -0.5247
 5828TIP3    H138899   4.908   3.175   1.290  0.5959  1.5217 -1.9795
 5828TIP3    H238900   4.843   3.312   1.299  1.1873  1.6851  0.7394
 5829TIP3   OH238901   1.692   2.454   4.858  0.4220 -0.1387  0.0813
 5829TIP3    H138902   1.700   2.497   4.773  0.0511 -1.3762 -0.5925
 5829TIP3    H238903   1.782   2.453   4.892  0.6157  0.1400 -0.4114
 5830TIP3   OH238904   5.979   3.205  16.082  0.2176  0.0297  1.0147
 5830TIP3    H138905   5.971   3.126  16.136  0.0529 -1.2038 -0.7293
 5830TIP3    H238906   5.959   3.277  16.142  2.4103 -1.0175  3.2095
 5831TIP3   OH238907   4.873   4.099  11.980  0.1163 -0.3799 -0.0060
 5831TIP3    H138908   4.804   4.146  12.027  1.9585  0.3638  2.1429
 5831TIP3    H238909   4.920   4.166  11.931 -0.6822 -0.9017 -1.5684
 5832TIP3   OH238910   0.071   1.730  13.721  0.3965 -0.8169  0.6209
 5832TIP3    H138911  -0.013   1.693  13.695 -0.5607  1.4289  0.3140
 5832TIP3    H238912   0.060   1.754  13.813 -0.5236  2.4673 -0.2400
 5833TIP3   OH238913   2.421   3.087  15.956 -0.3187  0.2950  0.5763
 5833TIP3    H138914   2.330   3.117  15.959 -0.3078  0.4092 -0.2000
 5833TIP3    H238915   2.423   3.020  15.888  0.2127  0.4019  0.4776
 5834TIP3   OH238916   1.493   3.603   6.054  0.2275 -0.9098  0.0744
 5834TIP3    H138917   1.437   3.676   6.029  2.0541  0.7005  0.4210
 5834TIP3    H238918   1.566   3.606   5.992  0.8240 -1.8162  0.7038
 5835TIP3   OH238919   6.724   5.200   0.422 -0.0106 -0.0238 -0.1646
 5835TIP3    H138920   6.748   5.210   0.330 -1.1662  1.6334 -0.3374
 5835TIP3    H238921   6.656   5.133   0.422  2.5413 -2.8412  0.0225
 5836TIP3   OH238922   0.836   4.977  12.561  0.1629 -0.0364  0.2258
 5836TIP3    H138923   0.782   5.023  12.498 -1.1336  0.7192  1.8207
 5836TIP3    H238924   0.856   4.893  12.519 -1.6032 -0.0201 -0.7156
 5837TIP3   OH238925   5.007   0.479  14.293 -0.5192 -0.1371  0.6451
 5837TIP3    H138926   4.918   0.513  14.300 -0.1139  1.3757 -0.9864
 5837TIP3    H238927   4.999   0.386  14.314 -2.5656 -0.1231  0.0580
 5838TIP3   OH238928   3.567   2.079  17.211 -0.1567  0.3072  0.1084
 5838TIP3    H138929   3.477   2.051  17.199  0.0139 -0.1076 -0.2193
 5838TIP3    H238930   3.610   2.007  17.256  0.9329 -1.1815 -3.0041
 5839TIP3   OH238931   4.764   1.060  13.567  0.1184 -0.4141  0.5630
 5839TIP3    H138932   4.740   1.136  13.620  2.3348 -0.4912  1.8281
 5839TIP3    H238933   4.709   0.989  13.600  0.5720 -0.1564  1.9418
 5840TIP3   OH238934   1.380   5.951   5.046 -0.1828 -0.4640  0.0608
 5840TIP3    H138935   1.459   5.969   4.994  0.1301  0.3301  0.7889
 5840TIP3    H238936   1.357   5.860   5.024  0.9798 -0.7364 -0.0946
 5841TIP3   OH238937   3.476   1.781  16.950  0.5798 -0.1044  0.7722
 5841TIP3    H138938   3.411   1.846  16.925 -0.8571 -1.2336  1.4458
 5841TIP3    H238939   3.467   1.773  17.045  1.5317 -0.4690  0.8418
 5842TIP3   OH238940   1.044   2.663  15.116  0.8297  0.2375  0.2977
 5842TIP3    H138941   1.097   2.623  15.046  0.3226 -0.3487  0.2429
 5842TIP3    H238942   1.022   2.590  15.174  0.9885  0.6718  0.9056
 5843TIP3   OH238943   0.606   4.356   0.411 -0.2479  0.3025 -0.1971
 5843TIP3    H138944   0.626   4.263   0.403 -0.0751  0.3033  0.2246
 5843TIP3    H238945   0.615   4.390   0.322  1.8846  0.3578 -0.0079
 5844TIP3   OH238946   2.205   0.397   0.428 -0.2139 -0.0835  0.5778
 5844TIP3    H138947   2.162   0.434   0.351 -0.0046  0.7522  0.8548
 5844TIP3    H238948   2.227   0.307   0.402 -3.7656 -1.2230  1.0569
 5845TIP3   OH238949   1.487   0.081  15.335 -0.5197  0.4827  0.5565
 5845TIP3    H138950   1.393   0.067  15.351 -0.5743 -0.8875 -0.7566
 5845TIP3    H238951   1.530   0.012  15.385 -0.2945  0.3984  0.2498
 5846TIP3   OH238952   1.670   2.809  12.507  0.3687 -0.2692 -0.1326
 5846TIP3    H138953   1.720   2.811  12.589  0.4218  0.2325 -0.1685
 5846TIP3    H238954   1.718   2.870  12.450  0.1870 -0.4231 -0.4486
 5847TIP3   OH238955   1.417   4.513  13.639  0.1797 -0.0399  0.3492
 5847TIP3    H138956   1.368   4.590  13.668  0.8387  0.2657  0.6708
 5847TIP3    H238957   1.359   4.470  13.577  0.2438  1.3269 -0.7043
 5848TIP3   OH238958   5.498   6.207  15.268 -0.1029 -0.2079  0.1533
 5848TIP3    H138959   5.590   6.205  15.242 -0.0760 -1.5847  0.2684
 5848TIP3    H238960   5.492   6.143  15.340 -1.0351  0.2849  0.5297
 5849TIP3   OH238961   3.548   1.338  11.031  0.1709  0.1778  0.6914
 5849TIP3    H138962   3.469   1.320  10.980  0.4384  2.0420 -0.4412
 5849TIP3    H238963   3.554   1.263  11.091 -1.8264 -0.5638  0.0701
 5850TIP3   OH238964   2.467   0.552  12.935  0.1468  0.6002  0.5294
 5850TIP3    H138965   2.507   0.573  12.851 -0.0073  0.3888  0.4023
 5850TIP3    H238966   2.536   0.568  12.999 -0.0399  1.6998  0.4630
 5851TIP3   OH238967   3.800   3.677  14.542 -0.4779 -0.0931 -0.1459
 5851TIP3    H138968   3.831   3.639  14.459  2.8026 -0.7589  1.2366
 5851TIP3    H238969   3.716   3.718  14.519  1.2769  1.7505 -4.3249
 5852TIP3   OH238970   1.636   1.437  11.238  0.1636 -0.0638 -0.3100
 5852TIP3    H138971   1.662   1.354  11.280  1.6356 -0.1567 -1.3321
 5852TIP3    H238972   1.558   1.465  11.287  0.2049 -1.5521  0.6837
 5853TIP3   OH238973   0.029   0.448  15.930  1.0135 -0.1453  0.0202
 5853TIP3    H138974   0.104   0.389  15.916  0.5682 -0.6191 -0.4412
 5853TIP3    H238975  -0.028   0.400  15.991  0.1140 -0.7218 -1.2144
 5854TIP3   OH238976   5.773   4.005  11.453  0.2577  0.6818 -0.0129
 5854TIP3    H138977   5.734   4.092  11.460 -0.0862  0.6912 -1.5918
 5854TIP3    H238978   5.709   3.946  11.492 -0.1104  1.0061 -0.1256
 5855TIP3   OH238979   2.173   2.824  15.311  0.5741  0.0740 -0.4942
 5855TIP3    H138980   2.102   2.818  15.374  0.3173  0.4079 -0.7498
 5855TIP3    H238981   2.130   2.832  15.226  0.8996  1.1280 -0.5767
 5856TIP3   OH238982   5.480   4.639  12.605  0.1688  0.1907 -0.0688
 5856TIP3    H138983   5.541   4.577  12.645 -0.1123  0.4761  0.8318
 5856TIP3    H238984   5.527   4.722  12.603  0.1683  0.1850 -0.2849
 5857TIP3   OH238985   5.679   6.180  13.663  0.2306  0.1211  0.1570
 5857TIP3    H138986   5.727   6.258  13.632 -0.2190  0.4793  0.3493
 5857TIP3    H238987   5.738   6.139  13.726  0.1474  0.7581  0.6643
 5858TIP3   OH238988   2.798   0.678   5.646  0.0038  0.3099 -0.0152
 5858TIP3    H138989   2.832   0.590   5.628  1.5683  0.3674  2.2282
 5858TIP3    H238990   2.722   0.686   5.589  0.1707 -2.2536 -0.7453
 5859TIP3   OH238991   5.533   3.907  16.344 -0.0174 -0.0419  0.2215
 5859TIP3    H138992   5.497   3.973  16.285 -2.0317  2.3069  3.7004
 5859TIP3    H238993   5.457   3.862  16.380  1.2550 -3.4789 -0.9170
 5860TIP3   OH238994   0.665   3.363   2.611 -0.2442  1.0737 -0.4758
 5860TIP3    H138995   0.744   3.364   2.665 -0.7978 -0.1857  0.3892
 5860TIP3    H238996   0.693   3.401   2.527  1.2018  0.9063 -0.0929
 5861TIP3   OH238997   4.521   5.595  11.882  0.3632  0.0320 -0.2590
 5861TIP3    H138998   4.544   5.506  11.907 -1.5230 -0.2609  0.6652
 5861TIP3    H238999   4.495   5.637  11.964  1.0681  1.3992 -0.7047
 5862TIP3   OH239000   6.543   2.219  17.375 -0.2616 -0.0047 -0.2631
 5862TIP3    H139001   6.475   2.158  17.403  1.0752 -1.7125 -0.5592
 5862TIP3    H239002   6.573   2.183  17.291  1.7992 -0.0012  0.4279
 5863TIP3   OH239003   1.867   0.883   2.683  0.3889  0.3092  0.5015
 5863TIP3    H139004   1.816   0.902   2.761 -0.0268  2.6593 -0.2556
 5863TIP3    H239005   1.955   0.865   2.715  0.3460  1.7434  1.5073
 5864TIP3   OH239006   1.384   6.654  15.709 -0.2707 -0.1625  0.2236
 5864TIP3    H139007   1.326   6.706  15.765 -0.5707 -0.9169  0.6363
 5864TIP3    H239008   1.472   6.671  15.743 -0.5173 -1.2949  1.5463
 5865TIP3   OH239009   6.228   6.432   1.816  0.6450  0.2918 -0.4121
 5865TIP3    H139010   6.242   6.512   1.766  0.6764  0.3971 -0.2344
 5865TIP3    H239011   6.172   6.458   1.889 -1.4008 -0.3242 -1.6771
 5866TIP3   OH239012   3.337   5.816   3.381 -0.4921 -0.0897 -0.3149
 5866TIP3    H139013   3.418   5.827   3.332  0.5170 -0.2294  1.2479
 5866TIP3    H239014   3.365   5.805   3.472 -2.2251 -0.9490  0.1655
 5867TIP3   OH239015   4.638   6.661   5.688  0.6183 -0.1011 -0.3860
 5867TIP3    H139016   4.731   6.668   5.666  0.3487 -0.8667 -1.9155
 5867TIP3    H239017   4.602   6.602   5.621 -0.3077 -2.6280  2.1517
 5868TIP3   OH239018   0.132   4.456   3.694 -0.0126 -0.2644 -0.6417
 5868TIP3    H139019   0.072   4.413   3.633 -0.6752  0.1870 -0.3283
 5868TIP3    H239020   0.119   4.550   3.678 -1.1149 -0.0798  0.9935
 5869TIP3   OH239021   5.700   4.345   3.881 -0.2841  1.2915  0.5129
 5869TIP3    H139022   5.740   4.285   3.943 -0.5130  0.5803 -0.0170
 5869TIP3    H239023   5.773   4.383   3.833 -0.1318  1.5418  0.9432
 5870TIP3   OH239024   3.379   1.014  14.381 -1.0090  0.1233  0.6570
 5870TIP3    H139025   3.292   1.033  14.346 -0.2155 -0.2804 -1.7260
 5870TIP3    H239026   3.369   1.020  14.476 -3.5471  0.3841  0.4331
 5871TIP3   OH239027   4.259   0.651  12.947 -0.0562  0.3621 -0.3372
 5871TIP3    H139028   4.354   0.642  12.939  0.1099  1.3142  0.3947
 5871TIP3    H239029   4.239   0.619  13.035 -0.5458 -0.6649 -0.8026
 5872TIP3   OH239030   3.807   2.649  12.055 -0.1198  0.1052  0.3982
 5872TIP3    H139031   3.836   2.731  12.095 -1.2960  0.7701 -0.0714
 5872TIP3    H239032   3.716   2.639  12.084  0.2927 -1.5467  1.2247
 5873TIP3   OH239033   6.394   3.655   2.631  0.2983  0.4188  0.3135
 5873TIP3    H139034   6.333   3.710   2.680  0.0420 -1.0039  1.6663
 5873TIP3    H239035   6.380   3.680   2.539 -0.5251  1.8590  0.7965
 5874TIP3   OH239036   4.995   2.054  12.600 -0.4722 -0.0174  0.1366
 5874TIP3    H139037   4.940   2.076  12.676  0.4360  0.7656  0.5838
 5874TIP3    H239038   5.079   2.095  12.619 -0.1790  0.0443 -1.2217
 5875TIP3   OH239039   4.666   2.724   4.332  0.0764  0.0202  0.0128
 5875TIP3    H139040   4.692   2.788   4.266  0.0633  0.9332  0.8696
 5875TIP3    H239041   4.746   2.674   4.350  0.1494 -0.0422 -0.4683
 5876TIP3   OH239042   3.721   3.197  14.653  0.1719  0.5624 -0.6842
 5876TIP3    H139043   3.727   3.198  14.557  1.9048 -0.8698 -0.6428
 5876TIP3    H239044   3.766   3.278  14.680  2.5555 -0.5290 -1.0657
 5877TIP3   OH239045   5.017   1.419  14.274  0.1784 -0.3360 -0.5559
 5877TIP3    H139046   5.045   1.506  14.244 -0.0001 -0.2178 -0.3841
 5877TIP3    H239047   5.091   1.362  14.255  1.0245  0.1938  0.9333
 5878TIP3   OH239048   4.131   1.331  11.009 -0.2253 -0.2862  0.0534
 5878TIP3    H139049   4.088   1.274  10.945 -1.5227 -1.4794  1.8905
 5878TIP3    H239050   4.213   1.287  11.030 -1.0038 -1.3107  1.1073
 5879TIP3   OH239051   2.199   5.414  12.275 -0.1483 -0.3721 -0.1413
 5879TIP3    H139052   2.109   5.445  12.265 -0.2018 -0.1724  0.8669
 5879TIP3    H239053   2.242   5.440  12.194 -1.0709 -0.7490 -0.7694
 5880TIP3   OH239054   1.275   1.387   1.063 -0.2406  0.1197 -0.3389
 5880TIP3    H139055   1.269   1.481   1.047 -1.0429 -0.0568 -1.1545
 5880TIP3    H239056   1.260   1.378   1.157  0.4049  0.8470 -0.1549
 5881TIP3   OH239057   2.431   5.664   4.081  0.0170 -0.6163 -0.8432
 5881TIP3    H139058   2.443   5.632   3.992 -0.3850  0.7059 -1.3993
 5881TIP3    H239059   2.343   5.702   4.081 -0.2945 -1.2800  0.3420
 5882TIP3   OH239060   6.514   4.755   3.763 -0.3000  0.2327 -0.0326
 5882TIP3    H139061   6.525   4.797   3.848  2.2426 -1.0861  0.3747
 5882TIP3    H239062   6.539   4.664   3.777 -3.7982 -1.1274 -1.3115
 5883TIP3   OH239063   3.939   5.166  12.115 -0.0538 -0.1229  0.0058
 5883TIP3    H139064   3.887   5.161  12.196  0.2634 -2.0041  0.1308
 5883TIP3    H239065   3.885   5.122  12.049  0.2428  0.2784 -0.5179
 5884TIP3   OH239066   5.825   5.817   5.149 -0.5028  0.8778  0.4404
 5884TIP3    H139067   5.797   5.728   5.169  1.1563  0.6101  1.7716
 5884TIP3    H239068   5.774   5.841   5.071 -1.5779 -0.9081  0.5364
 5885TIP3   OH239069   2.314   4.826   5.089  0.1042 -0.2250  0.4508
 5885TIP3    H139070   2.322   4.835   4.994 -2.5901 -0.3160  0.1235
 5885TIP3    H239071   2.397   4.858   5.123  0.7340  0.8632 -1.8809
 5886TIP3   OH239072   1.717   0.013  11.991 -0.2225 -0.5942  0.4521
 5886TIP3    H139073   1.728   0.079  11.922  1.2725 -2.0845 -0.8364
 5886TIP3    H239074   1.771   0.045  12.063 -1.0474  0.5211  0.6018
 5887TIP3   OH239075   6.244   6.695   1.707  0.4998  0.5098 -0.4976
 5887TIP3    H139076   6.332   6.719   1.679  1.4455 -0.5745  1.3497
 5887TIP3    H239077   6.232   6.742   1.790 -0.0021 -0.6337  0.0945
 5888TIP3   OH239078   5.772   5.427   6.438 -0.0465 -0.1579 -0.3505
 5888TIP3    H139079   5.829   5.350   6.428 -0.2132 -0.0955 -2.0463
 5888TIP3    H239080   5.820   5.497   6.394  0.1278  0.7478  1.2317
 5889TIP3   OH239081   5.335   1.393  17.308  0.1531 -0.1936 -0.2367
 5889TIP3    H139082   5.322   1.349  17.224 -1.9758 -1.9696  0.9212
 5889TIP3    H239083   5.377   1.326  17.363 -1.0468 -0.0402  0.9043
 5890TIP3   OH239084   2.653   5.714   0.639 -0.1063 -0.2957  0.2393
 5890TIP3    H139085   2.682   5.636   0.592 -0.5827 -1.2362  1.4433
 5890TIP3    H239086   2.727   5.774   0.635 -0.6905  0.3826 -3.1320
 5891TIP3   OH239087   0.231   4.909   3.929  1.1042 -0.0316  0.4184
 5891TIP3    H139088   0.163   4.963   3.890  0.2137  0.1155  2.0585
 5891TIP3    H239089   0.188   4.826   3.948  1.9247 -0.6314 -0.2768
 5892TIP3   OH239090   2.805   2.088  14.091 -0.5045 -0.0931  0.4308
 5892TIP3    H139091   2.796   2.062  13.999  0.3322 -4.4480  1.4021
 5892TIP3    H239092   2.894   2.121  14.097 -0.9679  1.4576 -0.4804
 5893TIP3   OH239093   2.224   3.193  11.663  0.2564  0.4365  0.0378
 5893TIP3    H139094   2.182   3.230  11.585  3.1629 -1.9886 -2.9194
 5893TIP3    H239095   2.172   3.115  11.684  0.5681  0.0205 -0.7128
 5894TIP3   OH239096   0.662   2.336  11.754  0.4350 -0.2791 -0.5513
 5894TIP3    H139097   0.756   2.351  11.752  0.2598  1.2122  0.5581
 5894TIP3    H239098   0.641   2.330  11.848 -0.7460  0.7151 -0.7306
 5895TIP3   OH239099   0.288   3.880  16.033 -0.0776 -0.6302 -0.3340
 5895TIP3    H139100   0.324   3.968  16.038 -2.4651  0.5955 -2.3285
 5895TIP3    H239101   0.225   3.875  16.106 -1.0464 -0.0575 -1.1002
 5896TIP3   OH239102   4.127   1.812   5.503  1.0276 -0.2180 -0.2156
 5896TIP3    H139103   4.100   1.765   5.424  2.2726 -0.2760 -0.6222
 5896TIP3    H239104   4.153   1.744   5.565 -0.2012 -0.1876  0.3750
 5897TIP3   OH239105   4.738   5.565   2.463 -0.2630 -0.2485  0.0961
 5897TIP3    H139106   4.808   5.506   2.490  0.8870  1.2360  0.4963
 5897TIP3    H239107   4.716   5.538   2.373 -1.2130 -2.5499  0.9509
 5898TIP3   OH239108   0.498   5.813  16.971 -0.2637 -0.3108  0.1306
 5898TIP3    H139109   0.518   5.733  17.020  0.3709 -0.5995 -0.5852
 5898TIP3    H239110   0.532   5.884  17.027 -0.2233 -0.5816  0.4550
 5899TIP3   OH239111   5.200   2.221  15.436 -0.0829  0.2972 -0.2124
 5899TIP3    H139112   5.245   2.139  15.454 -0.8221  0.2695  1.7684
 5899TIP3    H239113   5.243   2.285  15.494 -0.9376  0.8168 -0.1400
 5900TIP3   OH239114   0.825   3.040   4.705  0.1400  0.3786 -0.0455
 5900TIP3    H139115   0.900   3.034   4.764  0.1602  0.5331 -0.0557
 5900TIP3    H239116   0.820   3.132   4.681  0.3161  0.2636 -0.5295
 5901TIP3   OH239117   3.029   0.178  10.966  0.3503  0.0190  0.1612
 5901TIP3    H139118   3.091   0.250  10.955 -2.5426  2.9062  1.2676
 5901TIP3    H239119   2.974   0.181  10.887 -0.0098 -0.8106  0.3637
 5902TIP3   OH239120   4.226   6.011  14.115 -0.6024  0.1023  0.6752
 5902TIP3    H139121   4.250   6.076  14.182 -1.1242  0.7992  0.1987
 5902TIP3    H239122   4.158   6.054  14.063 -1.0103 -0.8569  0.3906
 5903TIP3   OH239123   1.171   5.395   3.416  0.2798  0.0154 -0.2119
 5903TIP3    H139124   1.164   5.470   3.475  2.0528 -0.7899  1.0919
 5903TIP3    H239125   1.144   5.320   3.468 -1.5089 -0.3146 -1.5135
 5904TIP3   OH239126   3.950   4.822  13.749 -0.3807 -0.0924 -0.4062
 5904TIP3    H139127   3.943   4.855  13.839 -2.4164 -0.7679 -0.2779
 5904TIP3    H239128   4.042   4.796  13.740 -0.3540 -0.9939  1.8488
 5905TIP3   OH239129   4.839   6.478   0.016 -0.4871 -0.0267 -0.4311
 5905TIP3    H139130   4.827   6.503  -0.076 -0.4524  0.3080 -0.3466
 5905TIP3    H239131   4.750   6.474   0.051 -0.4619  0.5401 -0.3007
 5906TIP3   OH239132   2.539   5.592  13.552  0.9124 -0.1940  0.0215
 5906TIP3    H139133   2.576   5.554  13.631 -0.6611 -0.9060  0.4575
 5906TIP3    H239134   2.488   5.667  13.582  0.6080 -0.2477 -0.3473
 5907TIP3   OH239135   2.836   0.613   4.374 -0.3305 -0.1574 -0.0155
 5907TIP3    H139136   2.851   0.667   4.451  1.8536 -0.9420  0.2043
 5907TIP3    H239137   2.774   0.546   4.403 -0.8522  0.5625  0.5434
 5908TIP3   OH239138   3.156   0.453   5.649 -0.1568  0.3086  0.3685
 5908TIP3    H139139   3.154   0.422   5.740 -0.0127  2.2419  1.0916
 5908TIP3    H239140   3.171   0.548   5.657 -0.4999  0.5762 -1.6718
 5909TIP3   OH239141   6.406   4.993   5.290 -0.0783  0.4099 -0.3056
 5909TIP3    H139142   6.326   4.962   5.247  0.8869 -0.0392 -1.8731
 5909TIP3    H239143   6.391   5.086   5.305 -0.5211  0.5618 -1.5462
 5910TIP3   OH239144   3.792   1.793  10.782 -0.3185  0.3361 -0.1482
 5910TIP3    H139145   3.698   1.784  10.765 -0.3536  0.5130 -0.0447
 5910TIP3    H239146   3.799   1.798  10.877 -0.3438  1.8795 -0.2029
 5911TIP3   OH239147   4.610   1.554  13.866  0.0478  0.5407  0.8194
 5911TIP3    H139148   4.698   1.549  13.829 -0.1996 -0.5554  0.3163
 5911TIP3    H239149   4.553   1.567  13.790 -0.1824  1.8038  1.1999
 5912TIP3   OH239150   3.807   0.272  12.521 -1.1866  0.0084 -0.4181
 5912TIP3    H139151   3.832   0.265  12.613 -1.1167 -0.1634 -0.4474
 5912TIP3    H239152   3.771   0.186  12.500 -2.5480  0.5003 -0.1625
 5913TIP3   OH239153   4.028   4.827   0.663  0.1228  0.0011 -0.2711
 5913TIP3    H139154   4.107   4.862   0.705 -0.6512 -0.0317  1.2394
 5913TIP3    H239155   4.062   4.763   0.600  1.2627 -1.6628  1.8921
 5914TIP3   OH239156   4.954   6.208  13.397 -0.2320  0.0208  0.2247
 5914TIP3    H139157   4.965   6.126  13.446  2.2518  0.6248  0.8317
 5914TIP3    H239158   5.013   6.269  13.441 -0.0374  1.3830 -1.8313
 5915TIP3   OH239159   0.839   1.993  12.816 -0.4172  0.2087  0.3790
 5915TIP3    H139160   0.748   1.998  12.788 -0.8351 -0.3536  1.5656
 5915TIP3    H239161   0.886   1.960  12.740 -1.1641  0.6803 -0.3092
 5916TIP3   OH239162   2.440   2.871   0.967 -0.2008 -0.4085 -0.2637
 5916TIP3    H139163   2.471   2.958   0.991  0.1560 -0.9158  1.2539
 5916TIP3    H239164   2.425   2.876   0.873  1.8280  0.6776 -0.5952
 5917TIP3   OH239165   6.379   5.896   4.146  0.4343 -0.0099  0.4457
 5917TIP3    H139166   6.391   5.948   4.226 -0.5857 -1.1844  1.4056
 5917TIP3    H239167   6.433   5.818   4.160  2.3207  0.9046 -1.1816
 5918TIP3   OH239168   0.548   4.810  13.642  0.0201  0.0587  0.0160
 5918TIP3    H139169   0.472   4.863  13.618 -0.2543 -0.4865 -0.3338
 5918TIP3    H239170   0.576   4.845  13.727 -2.1767 -1.3895  1.4293
 5919TIP3   OH239171   3.949   4.353   0.486 -0.3194  0.4043 -0.1952
 5919TIP3    H139172   3.865   4.355   0.440 -0.2633  1.2436 -0.2627
 5919TIP3    H239173   3.946   4.429   0.545  0.8184  1.0452 -0.9429
 5920TIP3   OH239174   5.491   4.472   2.200 -0.0719  0.3233 -0.0663
 5920TIP3    H139175   5.457   4.518   2.124 -0.3810  0.2802  0.0472
 5920TIP3    H239176   5.545   4.402   2.163 -0.7865 -0.1323 -0.2578
 5921TIP3   OH239177   4.009   4.978  16.816 -0.3102 -0.0882  0.0774
 5921TIP3    H139178   3.980   5.027  16.739  0.2715 -0.7435 -0.5712
 5921TIP3    H239179   4.099   5.008  16.831  0.6232 -1.9956 -1.2598
 5922TIP3   OH239180   2.415   6.124  17.083  0.2611  0.1077 -0.1122
 5922TIP3    H139181   2.343   6.137  17.022 -0.0097 -2.0100 -0.3292
 5922TIP3    H239182   2.459   6.045  17.051 -0.0066 -1.2027  2.5040
 5923TIP3   OH239183   0.171   3.594  15.086 -0.0295  0.3016 -0.7294
 5923TIP3    H139184   0.154   3.650  15.010  0.1813  1.5497  0.1122
 5923TIP3    H239185   0.161   3.652  15.161  0.1016 -0.8292  0.1899
 5924TIP3   OH239186   3.683   0.372  11.344 -0.1740  0.0172  0.1632
 5924TIP3    H139187   3.689   0.462  11.377  0.9935  0.7795 -1.9428
 5924TIP3    H239188   3.768   0.356  11.303 -0.0351 -2.3915  1.2113
 5925TIP3   OH239189   3.884   1.641   2.446 -0.0592  0.5931 -0.3463
 5925TIP3    H139190   3.911   1.693   2.521 -1.6522  0.2566  0.5005
 5925TIP3    H239191   3.961   1.589   2.423  0.3306  0.4140  1.2937
 5926TIP3   OH239192   1.057   1.375  12.239 -0.3250 -0.0221 -0.6727
 5926TIP3    H139193   1.034   1.446  12.180  1.4957 -0.0580 -1.5152
 5926TIP3    H239194   1.128   1.411  12.293  2.7213 -1.8946 -3.0467
 5927TIP3   OH239195   3.202   6.289   0.421  0.6867 -0.6653  0.3705
 5927TIP3    H139196   3.244   6.365   0.382 -0.1803 -0.5217 -0.3104
 5927TIP3    H239197   3.110   6.313   0.428  0.6164 -1.1774  1.3367
 5928TIP3   OH239198   5.558   5.384   3.267  0.0868  0.2630 -0.2705
 5928TIP3    H139199   5.627   5.438   3.308 -1.6779  2.2475  0.2499
 5928TIP3    H239200   5.492   5.375   3.335 -0.6322 -0.7320 -1.0840
 5929TIP3   OH239201   5.945   1.644  15.362 -0.0956  0.0116 -0.1154
 5929TIP3    H139202   5.870   1.588  15.378 -0.2528  0.4843  0.8874
 5929TIP3    H239203   5.956   1.644  15.267  0.9888 -3.1012 -0.1043
 5930TIP3   OH239204   0.671   6.111  14.107  0.3506  0.2377  0.0063
 5930TIP3    H139205   0.728   6.103  14.031 -0.6309 -1.5289 -0.5990
 5930TIP3    H239206   0.686   6.031  14.157 -2.8261 -1.1790 -1.0892
 5931TIP3   OH239207   1.992   6.088  14.715 -0.4534 -0.7354  0.5493
 5931TIP3    H139208   1.903   6.057  14.734 -0.7330  0.7046  1.6687
 5931TIP3    H239209   2.031   6.105  14.800  0.6110 -0.5373  0.0374
 5932TIP3   OH239210   0.546   1.823   5.606 -0.5931 -0.0400 -0.5493
 5932TIP3    H139211   0.518   1.731   5.609 -2.5397  0.5049 -0.4132
 5932TIP3    H239212   0.641   1.819   5.603 -0.3838 -2.0573  2.9297
 5933TIP3   OH239213   1.981   5.237   2.633 -0.4799  0.2264  0.2305
 5933TIP3    H139214   1.907   5.297   2.649 -0.0906  0.8213 -0.1691
 5933TIP3    H239215   2.044   5.258   2.702 -0.7113 -0.3361  0.6192
 5934TIP3   OH239216   4.065   1.755   4.332  0.2456  0.4128  0.1620
 5934TIP3    H139217   3.980   1.722   4.361  0.3437 -0.3389 -0.3992
 5934TIP3    H239218   4.100   1.800   4.409  0.4326 -1.4072  1.2091
 5935TIP3   OH239219   6.317   0.083   5.270  0.7435  0.5994 -0.2315
 5935TIP3    H139220   6.384   0.029   5.312  1.6404  0.4028 -1.8483
 5935TIP3    H239221   6.239   0.027   5.268  0.7545  0.5223  0.8928
 5936TIP3   OH239222   0.228   0.578  15.136 -0.2917 -0.7404  0.3484
 5936TIP3    H139223   0.202   0.520  15.064 -1.4285  1.1080 -0.8563
 5936TIP3    H239224   0.151   0.634  15.149  0.7444  0.4834  1.4293
 5937TIP3   OH239225   3.506   3.699  12.262 -0.2611  0.1716  0.1146
 5937TIP3    H139226   3.454   3.654  12.329 -0.0457 -1.6163 -0.8432
 5937TIP3    H239227   3.583   3.731  12.309  1.0934 -3.1189  0.4322
 5938TIP3   OH239228   4.106   6.103   3.304  0.6006 -0.4233  0.3471
 5938TIP3    H139229   4.120   6.169   3.372  0.3878 -1.8117  1.7728
 5938TIP3    H239230   4.159   6.028   3.331  0.5812 -0.9955 -1.0749
 5939TIP3   OH239231   5.272   2.832   4.265 -0.2324 -0.3137  0.3037
 5939TIP3    H139232   5.349   2.888   4.257  0.3471 -0.9838  1.0131
 5939TIP3    H239233   5.202   2.890   4.294  0.5026 -0.0473  1.6174
 5940TIP3   OH239234   6.201   2.529   3.567 -0.8567 -0.0569  0.2528
 5940TIP3    H139235   6.295   2.515   3.561 -0.9681 -0.6014 -0.2537
 5940TIP3    H239236   6.193   2.615   3.610 -0.1284  0.3969 -0.4814
 5941TIP3   OH239237   3.695   2.327   0.636  0.3732 -0.0644  0.7107
 5941TIP3    H139238   3.626   2.387   0.609 -1.0588 -1.7212  0.5249
 5941TIP3    H239239   3.772   2.354   0.585  0.4934  2.9878  2.2538
 5942TIP3   OH239240   6.339   5.528  12.773  0.2248 -0.0348  0.1957
 5942TIP3    H139241   6.358   5.473  12.849 -1.9051 -1.1886 -0.0359
 5942TIP3    H239242   6.355   5.617  12.804 -1.5197 -0.3781  2.3956
 5943TIP3   OH239243   0.259   2.684   2.355 -0.3117  0.5407  0.2921
 5943TIP3    H139244   0.351   2.657   2.342 -0.2748  1.2142 -1.0042
 5943TIP3    H239245   0.264   2.753   2.421  0.3453  1.7635 -0.9805
 5944TIP3   OH239246   1.407   2.842   1.160 -0.1649 -0.3898 -0.0348
 5944TIP3    H139247   1.463   2.768   1.184 -0.2780 -0.1066  1.1570
 5944TIP3    H239248   1.342   2.805   1.101  0.3042 -1.0601 -0.1436
 5945TIP3   OH239249   6.732   0.302   5.011 -0.1771 -0.6837 -0.2675
 5945TIP3    H139250   6.715   0.271   4.922 -0.3676 -0.7715 -0.2016
 5945TIP3    H239251   6.749   0.223   5.062 -0.5732 -0.6773 -0.1188
 5946TIP3   OH239252   0.882   2.777  16.598  0.1961 -0.3655  0.3008
 5946TIP3    H139253   0.875   2.784  16.693  0.8679 -1.7346  0.4759
 5946TIP3    H239254   0.844   2.692  16.577  1.4323 -0.7483 -0.4757
 5947TIP3   OH239255   3.621   0.910   3.147 -0.2133 -0.3836 -0.3786
 5947TIP3    H139256   3.667   0.833   3.182 -1.0937 -1.3779 -1.3266
 5947TIP3    H239257   3.685   0.950   3.088 -0.0713 -0.9263 -0.6001
 5948TIP3   OH239258   5.155   6.530   1.673  0.4251  0.1421  0.0628
 5948TIP3    H139259   5.214   6.456   1.660 -0.2159 -1.1015  3.2932
 5948TIP3    H239260   5.212   6.598   1.710  0.5804  0.4460 -0.7236
 5949TIP3   OH239261   4.273   0.619   3.453 -0.6770 -0.0318  0.0487
 5949TIP3    H139262   4.187   0.634   3.414 -1.1238  0.4801  1.1823
 5949TIP3    H239263   4.257   0.551   3.519 -0.3555  0.4906  0.6797
 5950TIP3   OH239264   3.609   4.693  12.947 -0.0541  0.2191  0.8422
 5950TIP3    H139265   3.612   4.785  12.973 -0.3238  0.6912 -0.7034
 5950TIP3    H239266   3.696   4.675  12.913 -1.2617  1.4086 -3.4761
 5951TIP3   OH239267   4.931   5.566   5.165 -0.0871 -0.0901 -0.5981
 5951TIP3    H139268   4.880   5.622   5.107 -1.0997 -0.0523  0.3224
 5951TIP3    H239269   4.898   5.478   5.149 -1.5248  0.1002  1.0631
 5952TIP3   OH239270   6.541   6.406   4.320  0.2180  0.6514 -0.0989
 5952TIP3    H139271   6.470   6.470   4.318 -0.7349 -0.2690  1.8849
 5952TIP3    H239272   6.579   6.415   4.407  1.6899  0.1667 -0.6468
 5953TIP3   OH239273   6.685   6.025  11.944 -0.7036  0.7623 -0.2281
 5953TIP3    H139274   6.775   5.997  11.926 -0.8237 -0.1041  0.4638
 5953TIP3    H239275   6.638   5.943  11.961 -1.5503  1.2380 -0.2736
 5954TIP3   OH239276   3.086   4.874   5.854  0.1772 -0.1653  0.6239
 5954TIP3    H139277   3.055   4.963   5.872 -0.7548  0.0425 -1.6210
 5954TIP3    H239278   3.181   4.883   5.846 -0.0254  1.0068 -1.1029
 5955TIP3   OH239279   4.019   1.074   2.139  0.1848  0.2239  0.3631
 5955TIP3    H139280   3.975   1.150   2.176  0.6000  1.0570 -0.8004
 5955TIP3    H239281   3.956   1.037   2.078  0.5865  0.6267 -0.3057
 5956TIP3   OH239282   4.188   0.928  12.960 -0.0099  0.2833  0.3870
 5956TIP3    H139283   4.245   0.852  12.975 -1.1457 -0.6413  0.2346
 5956TIP3    H239284   4.219   0.966  12.879 -1.4794 -2.0723 -1.4229
 5957TIP3   OH239285   4.868   2.140  13.703 -0.1447 -0.4774  0.3930
 5957TIP3    H139286   4.960   2.113  13.708 -0.2796 -0.7426  2.1296
 5957TIP3    H239287   4.862   2.194  13.624  1.0626 -2.0597 -0.8271
 5958TIP3   OH239288   5.180   0.012  12.336 -0.4164 -0.2307  0.1203
 5958TIP3    H139289   5.211  -0.054  12.398 -2.1864 -1.0033  0.2224
 5958TIP3    H239290   5.195  -0.028  12.250  3.0977  1.2849 -0.1590
 5959TIP3   OH239291   3.630   4.955   0.317 -0.0536  0.3198 -0.2685
 5959TIP3    H139292   3.574   4.925   0.245  0.5835  1.8533 -1.4505
 5959TIP3    H239293   3.663   4.874   0.357 -1.9471 -0.5939 -0.4467
 5960TIP3   OH239294   4.979   6.253  15.104  1.0378 -0.0315 -0.4103
 5960TIP3    H139295   4.908   6.188  15.105  1.1275 -0.1416  1.1668
 5960TIP3    H239296   5.052   6.209  15.148  1.7617  0.4621 -1.0789
 5961TIP3   OH239297   3.629   1.006   2.826  0.1908 -0.5138 -0.1125
 5961TIP3    H139298   3.677   0.938   2.778  1.2408 -0.5010  0.8888
 5961TIP3    H239299   3.540   0.972   2.832 -0.0786 -0.3583 -2.3624
 5962TIP3   OH239300   0.697   2.364   3.438  0.6140  0.0672 -0.3680
 5962TIP3    H139301   0.745   2.343   3.518  1.4928 -1.9157 -1.3571
 5962TIP3    H239302   0.756   2.339   3.367  0.7957  3.8393 -1.7705
 5963TIP3   OH239303   1.407   2.457   3.083  0.5238 -0.1050  0.5256
 5963TIP3    H139304   1.396   2.521   3.154  0.1996 -1.9944  2.2616
 5963TIP3    H239305   1.368   2.377   3.117  2.5842 -1.7669 -0.8286
 5964TIP3   OH239306   4.747   5.683   0.507  0.4831  0.5874 -0.1488
 5964TIP3    H139307   4.701   5.660   0.588 -0.3826  1.2415 -0.4441
 5964TIP3    H239308   4.741   5.604   0.452 -0.0827  0.5936 -0.0931
 5965TIP3   OH239309   1.614   1.055  13.186  0.0958 -0.0137 -0.1888
 5965TIP3    H139310   1.567   1.132  13.219  0.8449  0.4221 -0.1133
 5965TIP3    H239311   1.651   1.014  13.265 -0.6509 -0.7083 -0.1786
 5966TIP3   OH239312   0.082   6.617   4.101 -0.7442 -0.0103 -0.6232
 5966TIP3    H139313   0.139   6.606   4.025  1.3492  0.0532  0.8251
 5966TIP3    H239314   0.076   6.529   4.139 -1.8291 -0.0532 -0.8637
 5967TIP3   OH239315   3.378   1.426   3.067  0.6318  0.2884 -0.1332
 5967TIP3    H139316   3.327   1.476   3.003 -1.5548  0.1751  1.4065
 5967TIP3    H239317   3.327   1.346   3.080  0.5952  0.6364  2.2520
 5968TIP3   OH239318   2.446   4.497  10.517 -0.6226  0.5968 -0.2565
 5968TIP3    H139319   2.517   4.543  10.473  0.2636 -1.8230 -1.5182
 5968TIP3    H239320   2.489   4.435  10.576 -1.7678  1.3026  1.4090
 5969TIP3   OH239321   3.727   2.951  14.807  0.0738 -0.3644 -0.1732
 5969TIP3    H139322   3.683   2.935  14.890  0.4931 -0.5539  0.0196
 5969TIP3    H239323   3.687   3.030  14.773  0.4955  0.2183  0.6352
 5970TIP3   OH239324   4.835   4.668  14.746 -0.2573 -0.2484  0.0911
 5970TIP3    H139325   4.764   4.604  14.750  0.6545 -1.4902 -1.9102
 5970TIP3    H239326   4.907   4.627  14.794  0.7740 -1.4469 -2.3219
 5971TIP3   OH239327   1.269   4.933   6.385 -0.2352  0.7973 -0.5995
 5971TIP3    H139328   1.195   4.882   6.353  0.9998 -1.7787  0.4163
 5971TIP3    H239329   1.306   4.881   6.456  1.5957  2.7740  0.0165
 5972TIP3   OH239330   4.130   1.815  16.073 -0.1956 -0.4578 -0.4094
 5972TIP3    H139331   4.157   1.782  16.158  1.3657 -0.6825 -0.9622
 5972TIP3    H239332   4.044   1.855  16.088 -0.4622 -1.5154  1.0143
 5973TIP3   OH239333   1.797   5.077  17.039  0.1139  0.6337 -0.0144
 5973TIP3    H139334   1.713   5.110  17.070 -1.8461 -2.0671 -1.9513
 5973TIP3    H239335   1.806   5.112  16.951  1.3175  1.2508  0.3211
 5974TIP3   OH239336   5.932   4.346  13.485  0.6990  0.2374 -0.1369
 5974TIP3    H139337   5.906   4.348  13.393 -0.7294 -0.1483  0.2318
 5974TIP3    H239338   6.010   4.401  13.489  0.1908  1.1008 -1.4019
 5975TIP3   OH239339   6.336   1.519  12.289 -0.4992  0.0447 -0.4063
 5975TIP3    H139340   6.284   1.444  12.259 -1.1395  0.4936 -0.4403
 5975TIP3    H239341   6.271   1.587  12.309 -0.0516  0.0483  1.1934
 5976TIP3   OH239342   1.078   3.104   3.254  0.3352 -0.3077 -0.1139
 5976TIP3    H139343   1.137   3.162   3.206 -0.1192 -1.4792 -2.2328
 5976TIP3    H239344   1.127   3.076   3.330  1.5346  0.7664 -0.4624
 5977TIP3   OH239345   4.022   4.852  12.649 -0.4251  0.2587  0.6785
 5977TIP3    H139346   3.950   4.902  12.687  0.3610  0.7037  1.6277
 5977TIP3    H239347   4.003   4.850  12.555 -1.5485  0.5502  0.8844
 5978TIP3   OH239348   2.904   1.905   5.501 -0.6694  0.1038 -0.0120
 5978TIP3    H139349   2.890   1.869   5.589  0.7227  2.3438  1.2184
 5978TIP3    H239350   2.993   1.940   5.504 -0.6749  0.4269 -2.2794
 5979TIP3   OH239351   4.295   4.936  11.493 -0.3110 -0.3212  1.1154
 5979TIP3    H139352   4.254   5.004  11.439 -0.0778  0.3012  1.7117
 5979TIP3    H239353   4.317   4.867  11.430  0.9886  0.8645  0.1926
 5980TIP3   OH239354   3.467   0.968   4.160  0.4505 -0.2368  0.4535
 5980TIP3    H139355   3.495   1.017   4.083  0.3126 -1.1771 -0.2161
 5980TIP3    H239356   3.379   1.001   4.178 -0.1957 -1.1632 -0.8285
 5981TIP3   OH239357   0.619   3.973  14.100 -0.3775  0.1049  0.7498
 5981TIP3    H139358   0.600   4.020  14.182 -1.4230 -1.1366  1.2468
 5981TIP3    H239359   0.534   3.953  14.063  0.0825  0.0646 -0.3160
 5982TIP3   OH239360   4.574   4.540   0.276  0.7593  0.2288 -0.4678
 5982TIP3    H139361   4.482   4.564   0.272  0.1471 -1.8083  0.2319
 5982TIP3    H239362   4.588   4.481   0.203  1.0172 -0.9148  0.4687
 5983TIP3   OH239363   3.803   0.131  16.611  0.0098  0.6585 -0.0283
 5983TIP3    H139364   3.877   0.191  16.599 -0.4161  1.0806 -0.5864
 5983TIP3    H239365   3.726   0.188  16.609 -0.5879 -0.1169 -2.8300
 5984TIP3   OH239366   0.689   5.948   4.018 -0.0628 -0.1587  0.1752
 5984TIP3    H139367   0.701   5.866   3.970 -0.0421  0.1351 -0.3329
 5984TIP3    H239368   0.626   5.998   3.965 -0.2638  0.0502  0.6076
 5985TIP3   OH239369   0.090   1.098  16.645 -0.5978 -0.3575 -0.1497
 5985TIP3    H139370   0.097   1.024  16.585  0.7344 -0.4336  0.0605
 5985TIP3    H239371   0.180   1.115  16.672 -1.2183 -0.6793  2.2918
 5986TIP3   OH239372   1.353   0.393   3.458  0.1478 -0.4519 -0.0010
 5986TIP3    H139373   1.402   0.447   3.396  0.0546 -1.2558 -0.7944
 5986TIP3    H239374   1.261   0.407   3.435  0.1594 -2.2026 -1.3465
 5987TIP3   OH239375   0.501   0.790  12.674  0.1132 -0.5822 -0.0116
 5987TIP3    H139376   0.537   0.878  12.666  0.2550 -0.5620  0.7934
 5987TIP3    H239377   0.433   0.797  12.741  0.1706 -1.0922  0.1108
 5988TIP3   OH239378   0.419   0.359   0.549 -0.0995  0.2846  0.6354
 5988TIP3    H139379   0.325   0.380   0.548 -0.5607 -1.5730  0.3702
 5988TIP3    H239380   0.427   0.282   0.492  1.7739  1.0301 -0.1927
 5989TIP3   OH239381   5.114   1.242  13.254 -0.9760  0.9187 -0.4411
 5989TIP3    H139382   5.093   1.219  13.163 -1.4430 -0.4823 -0.0091
 5989TIP3    H239383   5.100   1.160  13.303 -2.5107  2.0618  1.1687
 5990TIP3   OH239384   4.315   1.246  16.507 -0.1191  0.0401  0.2366
 5990TIP3    H139385   4.297   1.194  16.429 -1.6301 -1.2228  1.3749
 5990TIP3    H239386   4.389   1.302  16.482  0.2815 -1.2553 -1.6548
 5991TIP3   OH239387   6.397   0.844  15.995  0.3236  0.2377  0.1658
 5991TIP3    H139388   6.350   0.769  16.032  0.9106 -0.7014 -0.9375
 5991TIP3    H239389   6.355   0.859  15.910 -0.2493  1.6260  0.6658
 5992TIP3   OH239390   2.507   2.983   4.430 -0.1001 -0.0385  0.0832
 5992TIP3    H139391   2.525   2.912   4.491  1.5779 -0.9943 -1.4168
 5992TIP3    H239392   2.558   2.961   4.352 -1.1904  1.7490 -1.2189
 5993TIP3   OH239393   1.803   0.279  15.594 -0.2690 -0.0564  0.3303
 5993TIP3    H139394   1.772   0.277  15.503 -0.8285 -1.6245  0.5066
 5993TIP3    H239395   1.849   0.196  15.604 -0.1987  0.1169  1.4737
 5994TIP3   OH239396   3.675   3.152  11.925 -0.0035  0.1990  0.6367
 5994TIP3    H139397   3.674   3.195  11.840  0.4090 -0.5014  0.2764
 5994TIP3    H239398   3.584   3.155  11.955  0.0756  1.6701  0.8033
 5995TIP3   OH239399   5.443   0.233   3.313  0.0048  0.1145  0.1394
 5995TIP3    H139400   5.518   0.200   3.263  0.0145  0.4327 -0.0545
 5995TIP3    H239401   5.478   0.306   3.365  0.2104 -0.7744  1.3149
 5996TIP3   OH239402   2.064   6.176  15.324  0.1361 -0.4559 -0.1424
 5996TIP3    H139403   2.037   6.266  15.343  0.2821 -0.6975  1.3118
 5996TIP3    H239404   1.986   6.134  15.288  0.0310  0.2078 -0.6982
 5997TIP3   OH239405   1.480   0.425   5.145 -0.2691  0.9469 -0.9794
 5997TIP3    H139406   1.481   0.331   5.130 -1.6805  0.7490 -0.0737
 5997TIP3    H239407   1.425   0.460   5.075 -1.9035  0.7471  0.1493
 5998TIP3   OH239408   3.339   5.699  15.277  0.2901 -0.3625 -0.4496
 5998TIP3    H139409   3.294   5.701  15.362  1.7386 -0.1560  0.3381
 5998TIP3    H239410   3.300   5.770  15.227 -0.4995 -0.4096  0.0828
 5999TIP3   OH239411   1.303   0.752  17.051  0.2969  0.2825  0.3326
 5999TIP3    H139412   1.392   0.767  17.083  0.5468 -0.0774 -0.1768
 5999TIP3    H239413   1.300   0.795  16.966  0.0139  0.2049  0.3010
 6000TIP3   OH239414   6.455   0.813   0.839 -0.5500 -0.4442  0.6478
 6000TIP3    H139415   6.471   0.721   0.859  0.7349 -0.0942  1.3092
 6000TIP3    H239416   6.440   0.854   0.924  1.6366  0.4369  0.6819
 6001TIP3   OH239417   0.714   2.296  13.109 -0.1573 -0.1508  0.8108
 6001TIP3    H139418   0.726   2.379  13.063 -1.7865 -1.0600 -1.4766
 6001TIP3    H239419   0.652   2.316  13.179 -0.0794  0.6644  0.6552
 6002TIP3   OH239420   1.196   5.701   5.663  0.5783 -0.2313 -0.2588
 6002TIP3    H139421   1.273   5.748   5.631 -0.8065  0.7243 -2.4060
 6002TIP3    H239422   1.161   5.757   5.732  1.3966 -0.3596  0.2870
 6003TIP3   OH239423   1.922   5.136   2.962  0.0800  0.2758  0.6279
 6003TIP3    H139424   1.893   5.057   3.008  1.1207  0.8094  2.3309
 6003TIP3    H239425   1.998   5.166   3.013  0.7920  1.3859 -1.0137
 6004TIP3   OH239426   4.268   6.028   4.143 -0.4666  0.4428 -0.1251
 6004TIP3    H139427   4.191   6.026   4.086 -1.2764 -0.4001  0.9713
 6004TIP3    H239428   4.244   6.086   4.215  1.2655  3.1294 -1.5261
 6005TIP3   OH239429   5.876   0.701  13.283 -0.1114 -0.2960  0.0801
 6005TIP3    H139430   5.883   0.767  13.213 -1.6421 -1.0817 -0.8781
 6005TIP3    H239431   5.938   0.633  13.258  1.1681  0.5445  0.8507
 6006TIP3   OH239432   2.187   2.384  16.118  0.3696 -0.9818  0.5045
 6006TIP3    H139433   2.150   2.445  16.181  2.0421  0.4780  0.1757
 6006TIP3    H239434   2.218   2.310  16.171 -0.3347 -0.8518  1.1016
 6007TIP3   OH239435   1.399   3.846  11.528  0.5439 -0.1229 -0.2691
 6007TIP3    H139436   1.454   3.771  11.504 -0.7903 -1.3446  0.3349
 6007TIP3    H239437   1.340   3.812  11.595 -2.0325  0.6214 -1.9987
 6008TIP3   OH239438   5.625   4.865   2.062 -0.3622  0.1700 -0.3362
 6008TIP3    H139439   5.667   4.939   2.106  0.1326 -0.6749  0.6581
 6008TIP3    H239440   5.611   4.801   2.132 -2.6027  0.0957 -0.7716
 6009TIP3   OH239441   5.563   6.070  12.943  0.1461  0.1413 -0.2946
 6009TIP3    H139442   5.528   6.106  13.024  1.6803  0.7034  0.1643
 6009TIP3    H239443   5.543   5.977  12.946  0.2435  0.1469  0.7631
 6010TIP3   OH239444   0.262   4.343  13.220 -0.1831 -0.0426  0.1204
 6010TIP3    H139445   0.332   4.345  13.285 -0.4891  0.4307  0.4498
 6010TIP3    H239446   0.185   4.314  13.269  0.1040 -2.0845 -0.5768
 6011TIP3   OH239447   0.160   4.237  14.152  0.0049 -0.1153 -0.0917
 6011TIP3    H139448   0.197   4.321  14.125  0.5944 -0.0614  0.8089
 6011TIP3    H239449   0.094   4.217  14.086 -0.5012  1.3001 -0.0574
 6012TIP3   OH239450   4.518   3.464   1.056  0.3317 -0.0394  0.8389
 6012TIP3    H139451   4.459   3.427   1.122  1.5306 -0.7558  1.5381
 6012TIP3    H239452   4.549   3.388   1.007  0.3981  0.3743  0.2263
 6013TIP3   OH239453   6.665   2.109   6.063 -0.0469  0.5686  0.3670
 6013TIP3    H139454   6.696   2.048   5.997 -2.8857 -0.2010 -0.3832
 6013TIP3    H239455   6.638   2.054   6.136  1.7109  1.3253  1.6668
 6014TIP3   OH239456   2.959   1.150  16.713 -0.0769  0.1756  0.2975
 6014TIP3    H139457   2.960   1.091  16.788 -0.1708 -0.7441 -0.4027
 6014TIP3    H239458   2.905   1.224  16.741 -1.5382 -0.9499  0.5676
 6015TIP3   OH239459   4.788   5.288  17.057 -0.0015 -0.2559  0.6179
 6015TIP3    H139460   4.759   5.267  17.145  0.0494 -1.1782  0.4281
 6015TIP3    H239461   4.872   5.243  17.048 -1.0809 -2.1278 -0.6826
 6016TIP3   OH239462   0.702   6.244  13.496  0.6887 -0.1106  0.3163
 6016TIP3    H139463   0.633   6.237  13.429 -0.2469  1.7920  1.0003
 6016TIP3    H239464   0.717   6.154  13.524  0.3074 -0.8421 -1.6437
 6017TIP3   OH239465   5.314   1.005   4.846  0.4212 -0.3826  0.1970
 6017TIP3    H139466   5.363   1.035   4.923  0.0476 -0.3160  0.4109
 6017TIP3    H239467   5.228   0.983   4.880  0.4926 -1.0968 -0.0665
 6018TIP3   OH239468   2.478   5.246   3.243 -0.0612  0.5188 -0.8961
 6018TIP3    H139469   2.500   5.188   3.170  0.2119 -0.2552 -0.2089
 6018TIP3    H239470   2.438   5.188   3.309  1.9958  0.7005  0.6228
 6019TIP3   OH239471   0.541   2.889   1.388 -0.0014 -0.1574  0.6325
 6019TIP3    H139472   0.501   2.964   1.345 -1.4296 -0.7576  0.8375
 6019TIP3    H239473   0.475   2.820   1.381  0.4795 -0.8102  2.1593
 6020TIP3   OH239474   1.103   5.369   5.799 -0.2686 -0.4280 -0.1916
 6020TIP3    H139475   1.159   5.387   5.875  0.7419  1.1277 -1.2623
 6020TIP3    H239476   1.108   5.448   5.746 -0.3164 -1.7727 -2.2983
 6021TIP3   OH239477   0.112   3.788  14.038  0.4330  0.6439 -0.1533
 6021TIP3    H139478   0.026   3.821  14.064  0.5312 -0.8500  2.4061
 6021TIP3    H239479   0.094   3.705  13.993  0.5019  1.0586 -0.9727
 6022TIP3   OH239480   5.750   4.404  14.352 -0.1355 -0.2774  0.8535
 6022TIP3    H139481   5.765   4.419  14.259 -0.4938 -0.7203  0.7231
 6022TIP3    H239482   5.830   4.436  14.395  0.2463 -0.5635  0.3556
 6023TIP3   OH239483   3.010   4.418   5.471  0.2954  0.1461  0.2189
 6023TIP3    H139484   2.954   4.414   5.548 -0.1116  0.0914 -0.0774
 6023TIP3    H239485   3.016   4.327   5.441 -1.5885  0.4712 -1.2620
 6024TIP3   OH239486   2.578   2.620  12.208 -0.1714 -0.5262  0.3139
 6024TIP3    H139487   2.634   2.611  12.132  0.2192 -0.5708  0.6026
 6024TIP3    H239488   2.636   2.654  12.277 -0.7236  0.4396  0.3312
 6025TIP3   OH239489   1.803   3.834  15.263 -0.1785 -0.2109  0.3134
 6025TIP3    H139490   1.821   3.804  15.174  0.0073 -0.1881  0.3429
 6025TIP3    H239491   1.829   3.926  15.264 -1.5728  0.2092 -0.0231
 6026TIP3   OH239492   0.784   4.700   3.258  0.0123 -0.0950 -0.3466
 6026TIP3    H139493   0.848   4.668   3.323  3.0443 -1.1973 -3.5633
 6026TIP3    H239494   0.800   4.794   3.254 -0.1169 -0.0345  0.3885
 6027TIP3   OH239495   0.272   4.724   6.916 -0.1441  0.1984  0.4252
 6027TIP3    H139496   0.331   4.660   6.876 -0.7457  0.7935 -1.5625
 6027TIP3    H239497   0.307   4.809   6.889 -0.2285  0.6625  1.7280
 6028TIP3   OH239498   2.591   1.853  16.286  0.1178  0.5058 -0.1884
 6028TIP3    H139499   2.651   1.865  16.359 -1.2835  1.9542  0.8047
 6028TIP3    H239500   2.620   1.772  16.244  0.6763 -0.6604  2.2559
 6029TIP3   OH239501   1.408   3.517  12.416 -0.3659  0.0350  0.5057
 6029TIP3    H139502   1.414   3.566  12.333 -1.3183 -0.6249  0.0258
 6029TIP3    H239503   1.481   3.455  12.413 -0.3413  0.0768  0.2096
 6030TIP3   OH239504   3.849   3.225  16.276 -0.4074  0.1349 -0.0416
 6030TIP3    H139505   3.927   3.171  16.263 -1.1681 -1.2130  0.6706
 6030TIP3    H239506   3.825   3.255  16.189  1.2568  1.1274 -0.1993
 6031TIP3   OH239507   1.869   0.224  13.030  0.1353  0.0170 -0.7490
 6031TIP3    H139508   1.835   0.313  13.037 -1.0241 -0.4437 -0.3537
 6031TIP3    H239509   1.856   0.186  13.116  0.5722 -0.5519 -0.9287
 6032TIP3   OH239510   3.133   2.237  12.878  0.0805 -0.1205 -0.1281
 6032TIP3    H139511   3.204   2.287  12.919  0.9921 -0.6514 -1.0139
 6032TIP3    H239512   3.144   2.148  12.911  0.8844 -0.5751 -1.5434
 6033TIP3   OH239513   2.341   6.442  11.976  0.1616 -0.3833 -0.6350
 6033TIP3    H139514   2.344   6.477  12.065  0.5372  1.0588 -1.1893
 6033TIP3    H239515   2.425   6.398  11.964  0.5703  0.3896 -0.6469
 6034TIP3   OH239516   1.674   2.772   2.279 -0.2491  0.2872  0.3509
 6034TIP3    H139517   1.634   2.779   2.192 -0.0118 -0.2399  0.1929
 6034TIP3    H239518   1.768   2.775   2.262 -0.1491 -1.2630  0.4243
 6035TIP3   OH239519   4.149   5.711  16.296 -0.7651  0.1592 -0.3345
 6035TIP3    H139520   4.209   5.638  16.309  0.8204  1.8623  3.2576
 6035TIP3    H239521   4.178   5.753  16.215  1.7151 -0.2224  0.2806
 6036TIP3   OH239522   1.886   2.201  16.463  0.2181  0.3169  0.2359
 6036TIP3    H139523   1.883   2.277  16.521 -0.2559 -0.1021  0.7855
 6036TIP3    H239524   1.814   2.214  16.402  1.1340  1.0896 -0.7053
 6037TIP3   OH239525   0.538   4.234   5.533  0.1217 -0.3350 -0.0226
 6037TIP3    H139526   0.606   4.297   5.554  0.9424 -1.3295  0.3817
 6037TIP3    H239527   0.501   4.209   5.618 -0.2187 -0.3710 -0.1798
 6038TIP3   OH239528   3.102   1.328  14.704  0.1980  0.2156 -0.3178
 6038TIP3    H139529   3.096   1.420  14.729 -0.2230  0.4082 -1.0920
 6038TIP3    H239530   3.054   1.323  14.621  1.9625 -0.2884 -1.3617
 6039TIP3   OH239531   3.866   1.986   4.575 -0.1334  0.0154 -0.3737
 6039TIP3    H139532   3.880   1.935   4.655  0.8929 -0.4624 -0.8433
 6039TIP3    H239533   3.949   1.980   4.527 -0.0622  1.9200 -0.5676
 6040TIP3   OH239534   6.455   6.224   2.113 -0.2442  0.3223  0.4811
 6040TIP3    H139535   6.378   6.168   2.128 -0.5676  0.6668  0.1403
 6040TIP3    H239536   6.476   6.259   2.199  0.4525 -0.9433  0.8519
 6041TIP3   OH239537   5.766   1.424   4.805  0.0572 -0.3050  0.6488
 6041TIP3    H139538   5.709   1.404   4.731  0.0533 -1.1561  0.8676
 6041TIP3    H239539   5.783   1.339   4.846 -0.9084  0.2657  2.3438
 6042TIP3   OH239540   2.624   1.621   5.184  0.1916 -0.3069 -0.8015
 6042TIP3    H139541   2.653   1.537   5.220 -0.0825 -1.1139 -2.3668
 6042TIP3    H239542   2.538   1.602   5.145 -0.4644  1.0193 -0.0516
 6043TIP3   OH239543   1.289   4.109  14.847  0.3976 -0.6464 -0.3061
 6043TIP3    H139544   1.374   4.065  14.853 -0.0338 -1.5418 -0.4772
 6043TIP3    H239545   1.296   4.166  14.771  1.1171 -0.0970  0.1671
 6044TIP3   OH239546   3.804   4.603   3.778  0.2531 -0.0106  0.0087
 6044TIP3    H139547   3.841   4.537   3.837  0.9433  0.4988  0.1635
 6044TIP3    H239548   3.799   4.683   3.831  1.0854  0.5129 -0.6652
 6045TIP3   OH239549   5.294   0.898   0.836  0.8221  0.2991  0.3117
 6045TIP3    H139550   5.334   0.969   0.887 -0.3620  0.0550  1.6273
 6045TIP3    H239551   5.334   0.818   0.870  3.2956  0.3073 -2.1967
 6046TIP3   OH239552   5.618   6.253  15.785 -0.4019  0.2240  0.2629
 6046TIP3    H139553   5.674   6.213  15.853 -1.4266 -0.9679  0.4447
 6046TIP3    H239554   5.530   6.248  15.821 -0.5655  3.2319  0.5324
 6047TIP3   OH239555   5.647   0.251  15.581 -0.4869 -0.0908  0.4074
 6047TIP3    H139556   5.567   0.258  15.529 -0.5490 -0.4034  0.4583
 6047TIP3    H239557   5.652   0.159  15.606 -0.3744  0.0253  0.8272
 6048TIP3   OH239558   5.337   6.396   3.720 -0.2566  0.3112 -0.0499
 6048TIP3    H139559   5.348   6.317   3.666 -0.5143  0.0173  0.3225
 6048TIP3    H239560   5.325   6.363   3.809  0.5483  0.8122  0.2547
 6049TIP3   OH239561   5.386   5.466   5.746  0.3065 -0.3198 -0.1897
 6049TIP3    H139562   5.361   5.493   5.834 -1.0822 -0.1189 -0.6245
 6049TIP3    H239563   5.403   5.548   5.699 -1.7212 -0.2346 -0.8755
 6050TIP3   OH239564   5.889   6.445   4.447  0.2914 -0.1448 -0.1148
 6050TIP3    H139565   5.940   6.407   4.518  0.9404 -1.3189 -1.1555
 6050TIP3    H239566   5.881   6.537   4.469  0.6251 -0.4458  1.3771
 6051TIP3   OH239567   5.892   4.759  13.401  0.3075  0.6703 -0.8543
 6051TIP3    H139568   5.959   4.737  13.466  0.2015  1.6068 -0.4245
 6051TIP3    H239569   5.818   4.702  13.422  0.6937  0.1548 -0.8769
 6052TIP3   OH239570   0.743   0.826  15.925 -0.0277 -0.2734 -0.1770
 6052TIP3    H139571   0.832   0.833  15.890 -0.0569 -3.7730 -1.3823
 6052TIP3    H239572   0.755   0.795  16.015 -0.0725  1.3600  0.4284
 6053TIP3   OH239573   1.792   2.263  14.352 -0.0863  0.2304  0.8349
 6053TIP3    H139574   1.775   2.191  14.413 -0.0154  1.3425  2.2096
 6053TIP3    H239575   1.781   2.342  14.404 -3.3854  1.4490 -1.3199
 6054TIP3   OH239576   4.933   5.009   5.224  0.1973 -0.1014 -0.0186
 6054TIP3    H139577   4.957   4.934   5.169  0.0663 -0.7027  0.7191
 6054TIP3    H239578   5.015   5.036   5.264  0.2531  0.1898 -0.3261
 6055TIP3   OH239579   4.233   3.530   2.501  0.5377 -0.9534 -0.1850
 6055TIP3    H139580   4.276   3.459   2.454  0.9078 -1.6886  1.1922
 6055TIP3    H239581   4.145   3.498   2.518 -0.1897  0.0250 -1.8567
 6056TIP3   OH239582   0.572   0.546  14.948 -0.4510 -0.2539  0.4327
 6056TIP3    H139583   0.641   0.568  15.011  0.0415  1.1156 -0.5649
 6056TIP3    H239584   0.512   0.490  14.998  1.1481 -1.1591  1.4351
 6057TIP3   OH239585   5.020   6.397  12.642  0.3323 -0.0125  0.3291
 6057TIP3    H139586   5.014   6.420  12.735 -0.1260  1.0442  0.0519
 6057TIP3    H239587   5.098   6.342  12.636 -0.5262 -1.4553  1.5957
 6058TIP3   OH239588   1.834   3.264   0.816  0.2579  0.1100  0.2171
 6058TIP3    H139589   1.915   3.314   0.821  0.8822 -0.8983  0.4748
 6058TIP3    H239590   1.796   3.271   0.903 -0.2912  1.1322 -0.0841
 6059TIP3   OH239591   4.476   4.134   1.256  0.2514  0.3434 -0.2799
 6059TIP3    H139592   4.393   4.182   1.254 -0.3081 -0.4256  1.5819
 6059TIP3    H239593   4.452   4.044   1.236  1.0064  0.4631 -1.8640
 6060TIP3   OH239594   1.637   2.861   3.627  0.8097  0.1217  0.4652
 6060TIP3    H139595   1.655   2.910   3.708  1.3624  5.1153 -2.2853
 6060TIP3    H239596   1.720   2.819   3.606  1.7309  1.6305  0.8736
 6061TIP3   OH239597   0.903   5.077   0.979  0.0589  0.1838 -0.0757
 6061TIP3    H139598   0.897   5.099   0.886 -0.1861  0.1723 -0.0617
 6061TIP3    H239599   0.815   5.049   1.003  0.4172 -1.0245 -0.1429
 6062TIP3   OH239600   0.951   5.167   4.950 -0.0853 -0.0602 -0.3253
 6062TIP3    H139601   0.980   5.154   5.041 -1.1904 -0.2644  0.0121
 6062TIP3    H239602   0.938   5.262   4.943 -1.3563 -0.1768  0.1795
 6063TIP3   OH239603   0.084   5.070   3.732  0.1082 -0.2215  0.0323
 6063TIP3    H139604   0.155   5.135   3.731 -1.0193  1.0670  0.7838
 6063TIP3    H239605   0.087   5.029   3.646  1.2572  0.3619 -0.2232
 6064TIP3   OH239606   2.085   4.951   2.856 -0.2435 -0.0479  0.0272
 6064TIP3    H139607   2.023   5.024   2.866 -0.5195  0.0418 -1.9149
 6064TIP3    H239608   2.104   4.948   2.762  1.3277 -1.2253  0.3279
 6065TIP3   OH239609   2.951   2.464  14.750 -0.2668  0.2605 -0.0989
 6065TIP3    H139610   2.935   2.489  14.841  2.0004  0.6851  0.2617
 6065TIP3    H239611   2.964   2.548  14.705 -1.7463  0.0715 -0.9295
 6066TIP3   OH239612   3.430   2.974  15.725 -0.0795 -0.0404  0.0068
 6066TIP3    H139613   3.349   2.967  15.775  0.7244 -2.4810  1.1254
 6066TIP3    H239614   3.481   3.042  15.770 -1.6856  2.0083 -1.1104
 6067TIP3   OH239615   1.825   3.520   2.346 -0.7375 -0.5542  0.1864
 6067TIP3    H139616   1.808   3.497   2.438  0.4066  1.0706  0.8614
 6067TIP3    H239617   1.747   3.566   2.318 -1.2955 -1.4870  0.1783
 6068TIP3   OH239618   1.973   5.961  17.324 -0.4197 -0.3689 -0.1808
 6068TIP3    H139619   2.005   5.916  17.247 -1.6041 -0.4189 -0.6565
 6068TIP3    H239620   1.895   6.008  17.294 -0.9078 -0.4052  0.9790
 6069TIP3   OH239621   6.629   5.034   2.084 -0.2286  0.3053  0.0624
 6069TIP3    H139622   6.703   5.057   2.140  0.0613  0.4174 -0.3631
 6069TIP3    H239623   6.555   5.082   2.121 -0.1738 -0.0906  0.7090
 6070TIP3   OH239624   1.115   6.590   3.240 -0.3088 -1.0614  0.2147
 6070TIP3    H139625   1.159   6.645   3.305 -0.7771  0.4941 -0.7222
 6070TIP3    H239626   1.057   6.533   3.291 -0.6582  0.1135  1.1660
 6071TIP3   OH239627   0.827   0.387  15.786 -0.2355 -0.1438  0.5042
 6071TIP3    H139628   0.845   0.463  15.730  1.1047 -0.3584  0.6084
 6071TIP3    H239629   0.891   0.394  15.857 -1.0353 -0.6059  1.2850
 6072TIP3   OH239630   3.897   0.571   1.427 -0.8624 -0.3999  0.3689
 6072TIP3    H139631   3.875   0.481   1.451 -0.6774 -0.3432  0.7637
 6072TIP3    H239632   3.813   0.610   1.401 -1.0302 -0.5379  0.6940
 6073TIP3   OH239633   4.886   5.003  11.904 -0.3039 -0.3446 -0.7095
 6073TIP3    H139634   4.797   5.029  11.927  0.1859 -0.7049  1.9217
 6073TIP3    H239635   4.941   5.074  11.937  0.5388 -1.2501 -0.1330
 6074TIP3   OH239636   0.141   0.249  14.165 -0.4550 -0.5151 -0.2331
 6074TIP3    H139637   0.164   0.304  14.240 -2.9265  0.2328  0.0617
 6074TIP3    H239638   0.106   0.310  14.101  1.0123 -1.2347 -1.7980
 6075TIP3   OH239639   5.848   5.049   1.359 -0.0970 -0.7412  0.0171
 6075TIP3    H139640   5.794   4.972   1.346  0.6322 -0.8732 -3.0996
 6075TIP3    H239641   5.917   5.020   1.419  0.6810 -2.9026 -1.7511
 6076TIP3   OH239642   6.049   5.905  16.987 -0.1246  0.1503  0.5082
 6076TIP3    H139643   6.082   5.828  17.033  0.8084  0.3588  0.2201
 6076TIP3    H239644   5.973   5.932  17.038 -0.1021 -0.5994  0.9654
 6077TIP3   OH239645   2.725   1.147   3.720  0.1181  0.1495  0.0227
 6077TIP3    H139646   2.712   1.225   3.666  3.3171  1.0627  0.3450
 6077TIP3    H239647   2.683   1.077   3.671 -0.3707  1.5804 -1.7349
 6078TIP3   OH239648   1.969   4.729   0.829  0.1976  0.5096 -0.4284
 6078TIP3    H139649   1.924   4.797   0.879 -0.0844 -0.3842  0.5884
 6078TIP3    H239650   2.031   4.776   0.774 -0.5730  1.6348 -0.3658
 6079TIP3   OH239651   5.202   4.368  15.206  0.2056 -0.4573 -0.3211
 6079TIP3    H139652   5.211   4.293  15.264 -0.8451 -0.5293 -0.2405
 6079TIP3    H239653   5.233   4.337  15.121 -2.0686 -1.6292 -0.7933
 6080TIP3   OH239654   1.994   1.954   1.054  0.1248 -0.6057 -0.5949
 6080TIP3    H139655   1.899   1.949   1.064  0.2461  0.5876  1.8416
 6080TIP3    H239656   2.009   2.030   0.999 -0.3372  2.4431  3.0881
 6081TIP3   OH239657   0.612   1.289   6.542  0.1286 -0.5146 -0.6734
 6081TIP3    H139658   0.572   1.275   6.457  0.1583 -1.6380 -0.5242
 6081TIP3    H239659   0.694   1.240   6.538 -0.6909 -2.0967  0.5790
 6082TIP3   OH239660   3.442   4.076   4.300 -0.2136 -0.3263  0.1362
 6082TIP3    H139661   3.409   3.986   4.302  0.4118 -0.5693 -0.0545
 6082TIP3    H239662   3.535   4.066   4.278 -0.2157  0.3906 -0.2069
 6083TIP3   OH239663   0.092   1.775  11.846 -0.0804  0.3139  0.3133
 6083TIP3    H139664   0.116   1.841  11.780  0.5749  0.8681  1.0793
 6083TIP3    H239665   0.174   1.729  11.863 -0.1144  0.5431  1.1322
 6084TIP3   OH239666   1.592   1.344  14.653 -0.2602 -0.4862 -0.2409
 6084TIP3    H139667   1.563   1.434  14.665 -0.3169 -0.5193 -0.1245
 6084TIP3    H239668   1.667   1.350  14.594 -0.6130 -0.4173 -0.6856
 6085TIP3   OH239669   2.054   5.602   1.591 -0.1920 -0.8377  0.1553
 6085TIP3    H139670   2.011   5.677   1.633  2.5046  0.4093  0.8566
 6085TIP3    H239671   2.023   5.605   1.500 -0.1024  1.1807  0.1530
 6086TIP3   OH239672   1.665   3.753   1.785  0.3198 -0.2556 -0.1462
 6086TIP3    H139673   1.714   3.710   1.855  0.5887  0.5630  0.1759
 6086TIP3    H239674   1.666   3.689   1.713 -0.8248 -1.5196  0.9153
 6087TIP3   OH239675   0.280   1.215  16.172 -0.2316 -0.5362 -0.3287
 6087TIP3    H139676   0.189   1.189  16.163 -0.2860 -0.1426 -1.0094
 6087TIP3    H239677   0.330   1.137  16.148 -0.3930 -0.6873 -0.1671
 6088TIP3   OH239678   3.849   4.810  10.477  0.0330  0.6627 -0.3012
 6088TIP3    H139679   3.873   4.896  10.443 -0.5837  1.4408  1.1266
 6088TIP3    H239680   3.931   4.773  10.510  0.5581  0.0732 -2.1526
 6089TIP3   OH239681   6.739   3.418  13.267  0.2793 -0.0603  0.0003
 6089TIP3    H139682   6.667   3.475  13.292  1.1872  0.9555  0.3730
 6089TIP3    H239683   6.742   3.423  13.171 -0.6462 -0.7668 -0.0800
 6090TIP3   OH239684   5.507   5.024   0.810  0.0202  0.1570 -0.2837
 6090TIP3    H139685   5.460   4.945   0.783  1.8139 -0.2429 -2.6404
 6090TIP3    H239686   5.494   5.085   0.737 -0.3472  1.6141  0.9663
 6091TIP3   OH239687   1.160   0.767  11.846  0.7464  0.5509 -0.4759
 6091TIP3    H139688   1.231   0.771  11.782  0.9615  0.8073 -0.2243
 6091TIP3    H239689   1.155   0.855  11.883  0.5555  0.4348 -0.2173
 6092TIP3   OH239690   1.263   1.316   2.894 -0.0802 -0.3264 -0.0846
 6092TIP3    H139691   1.241   1.228   2.926 -2.2203  0.6235  1.2667
 6092TIP3    H239692   1.283   1.366   2.974  1.9491  0.2655 -0.8921
 6093TIP3   OH239693   1.423   2.727  11.985 -0.7423  0.0699  0.4101
 6093TIP3    H139694   1.449   2.752  12.074 -2.5052 -0.1664  1.0307
 6093TIP3    H239695   1.332   2.700  11.993 -0.7163 -0.7048 -1.3490
 6094TIP3   OH239696   1.030   3.203  13.212 -0.2827  0.4358  0.2503
 6094TIP3    H139697   1.033   3.108  13.197  0.5878  0.5265 -0.2248
 6094TIP3    H239698   1.118   3.234  13.189 -0.5147  1.3421  0.5365
 6095TIP3   OH239699   1.391   1.620   3.639  0.4749 -0.3412  0.0106
 6095TIP3    H139700   1.334   1.660   3.572 -1.2383 -2.1269  0.3069
 6095TIP3    H239701   1.360   1.530   3.645  1.0009 -0.4152  2.7759
 6096TIP3   OH239702   0.300   2.784   1.132  0.0422  0.2215 -0.1142
 6096TIP3    H139703   0.354   2.727   1.186  1.5780  0.9680 -0.8045
 6096TIP3    H239704   0.212   2.746   1.137  0.6790 -1.2114  0.7795
 6097TIP3   OH239705   4.822   3.155  14.073 -0.3244 -0.2829 -0.5047
 6097TIP3    H139706   4.826   3.061  14.091 -3.5653 -0.4169  0.0620
 6097TIP3    H239707   4.825   3.161  13.978  0.0427 -0.9468 -0.5428
 6098TIP3   OH239708   2.730   1.820   1.111 -0.4625 -0.0059  0.2260
 6098TIP3    H139709   2.677   1.900   1.117  0.8109  0.8492  0.4979
 6098TIP3    H239710   2.693   1.772   1.037 -3.3334 -0.7768  1.9956
 6099TIP3   OH239711   1.370   5.148  16.796  0.1012 -0.5096 -0.4956
 6099TIP3    H139712   1.381   5.131  16.702 -0.8761  2.7946 -1.3292
 6099TIP3    H239713   1.275   5.147  16.809  0.1310  1.1197 -0.0286
 6100TIP3   OH239714   4.725   3.524  16.749 -0.1776 -0.4075  0.3837
 6100TIP3    H139715   4.820   3.533  16.745 -0.0464 -0.7804  2.1003
 6100TIP3    H239716   4.709   3.430  16.743 -0.6323 -0.2322 -2.3479
 6101TIP3   OH239717   4.910   4.388   4.027  0.0954 -0.3693 -0.2651
 6101TIP3    H139718   4.837   4.441   4.057 -1.1058 -2.0163 -0.1007
 6101TIP3    H239719   4.967   4.449   3.980 -0.9406  1.1239  0.3406
 6102TIP3   OH239720   1.903   1.652   2.304 -0.4621  0.3924  0.6941
 6102TIP3    H139721   1.942   1.739   2.298 -2.6815  1.4827  1.2402
 6102TIP3    H239722   1.883   1.641   2.396 -0.5349 -0.5715  0.5742
 6103TIP3   OH239723   0.075   6.132  13.363 -0.1014  0.0832  0.4563
 6103TIP3    H139724   0.080   6.220  13.326  0.1919 -0.0323  0.2169
 6103TIP3    H239725   0.132   6.135  13.440  1.3988 -0.4135 -0.6081
 6104TIP3   OH239726   0.819   4.352   2.902 -0.0242  0.6056 -0.2303
 6104TIP3    H139727   0.867   4.432   2.925 -0.2366  0.5677  0.3497
 6104TIP3    H239728   0.807   4.306   2.984 -1.1450  0.6684 -0.3358
 6105TIP3   OH239729   2.071   4.191   4.257 -0.6691  0.3788  0.0030
 6105TIP3    H139730   2.166   4.184   4.266 -0.4581  2.0585 -0.6416
 6105TIP3    H239731   2.046   4.259   4.319 -2.0412 -2.5475  3.0090
 6106TIP3   OH239732   3.787   2.590  16.785 -0.3474  0.2849  0.2878
 6106TIP3    H139733   3.780   2.572  16.879  1.6191 -0.9915  0.2540
 6106TIP3    H239734   3.728   2.526  16.745  0.4169 -0.6572  0.5992
 6107TIP3   OH239735   6.649   6.075  11.230 -0.1222  0.0586  0.0740
 6107TIP3    H139736   6.662   6.161  11.191 -0.9717 -0.2092 -0.8274
 6107TIP3    H239737   6.628   6.018  11.156 -2.8470 -0.2625  0.9864
 6108TIP3   OH239738   0.244   5.275  14.594 -0.2028  0.7292 -0.2565
 6108TIP3    H139739   0.253   5.367  14.618 -0.1194  0.9084 -0.9623
 6108TIP3    H239740   0.159   5.270  14.550 -0.5637  0.3151  0.4566
 6109TIP3   OH239741   1.533   3.012   3.389  0.2137 -0.0016  0.4116
 6109TIP3    H139742   1.558   3.099   3.359  0.1470 -0.1956 -0.2385
 6109TIP3    H239743   1.569   3.005   3.477  0.0442  0.7567  0.5472
 6110TIP3   OH239744   6.191   0.559   5.956  0.8866  0.0901 -0.1777
 6110TIP3    H139745   6.100   0.559   5.926  1.3461 -0.6259 -1.6682
 6110TIP3    H239746   6.218   0.650   5.952  1.0071  0.0095 -2.3364
 6111TIP3   OH239747   4.763   0.015   0.096  0.2474 -0.5468 -0.0592
 6111TIP3    H139748   4.718   0.032   0.179  0.8855  0.6107  0.0762
 6111TIP3    H239749   4.694  -0.015   0.037 -0.0849 -2.1711  1.0848
 6112TIP3   OH239750   3.483   4.600   4.707  0.0861  0.7236 -0.2289
 6112TIP3    H139751   3.434   4.681   4.722  1.2836  1.2437  1.0482
 6112TIP3    H239752   3.427   4.531   4.744 -0.5811  1.0567 -0.6030
 6113TIP3   OH239753   2.330   1.026  15.677 -0.4403  0.6141  0.5471
 6113TIP3    H139754   2.309   1.119  15.667 -0.5385  0.5983  0.6000
 6113TIP3    H239755   2.370   1.019  15.764  0.9953  0.8534 -0.0637
 6114TIP3   OH239756   2.992   0.586  15.008  0.3740 -0.2939  0.2123
 6114TIP3    H139757   2.919   0.598  14.947 -0.1546  0.0432  0.8883
 6114TIP3    H239758   3.070   0.613  14.959 -0.3743  3.2166  0.6295
 6115TIP3   OH239759   3.881   1.582  17.270 -0.1117  0.3394  0.2569
 6115TIP3    H139760   3.967   1.559  17.235  0.0595 -0.3859  1.1287
 6115TIP3    H239761   3.840   1.633  17.200  0.7057 -0.0004 -0.4916
 6116TIP3   OH239762   1.194   1.084   6.359  0.1730  0.4428  0.2061
 6116TIP3    H139763   1.131   1.135   6.409 -0.4595 -1.0577  1.0127
 6116TIP3    H239764   1.279   1.120   6.383 -0.3325  3.7994 -2.3626
 6117TIP3   OH239765   3.398   3.370  11.684 -0.1967  0.0194  0.3150
 6117TIP3    H139766   3.371   3.288  11.724 -1.4702 -1.5329 -3.3031
 6117TIP3    H239767   3.489   3.356  11.658 -0.4131 -0.2498 -0.2992
 6118TIP3   OH239768   3.693   5.557   1.238 -0.4854 -0.2180 -0.8644
 6118TIP3    H139769   3.749   5.485   1.265 -3.7657 -2.2561  1.3298
 6118TIP3    H239770   3.658   5.530   1.153 -0.9670 -0.8115 -0.4891
 6119TIP3   OH239771   1.216   1.449   0.423  0.5206 -0.0994  1.2986
 6119TIP3    H139772   1.289   1.494   0.465  0.3871  0.9504  0.4572
 6119TIP3    H239773   1.238   1.356   0.429  3.7186  0.2325 -1.9015
 6120TIP3   OH239774   1.048   3.733  14.695  0.4342  0.3222 -0.2832
 6120TIP3    H139775   1.132   3.699  14.726  0.5415  1.1857  0.3975
 6120TIP3    H239776   1.049   3.826  14.717 -0.9002  0.2563  0.2043
 6121TIP3   OH239777   3.199   6.553   2.836  0.3049  0.5699 -0.4905
 6121TIP3    H139778   3.184   6.644   2.861 -1.4607  0.4514 -0.9937
 6121TIP3    H239779   3.121   6.528   2.786  1.3887 -0.7825 -1.6156
 6122TIP3   OH239780   2.081   1.688   4.313 -0.1773  0.2288  0.1149
 6122TIP3    H139781   2.112   1.770   4.350 -2.0134  1.1468 -0.2758
 6122TIP3    H239782   2.132   1.676   4.233  1.6472 -0.1879  1.2994
 6123TIP3   OH239783   2.795   0.676   4.832 -0.3702  0.5371 -0.2216
 6123TIP3    H139784   2.846   0.725   4.896  1.3714 -1.1326 -0.2363
 6123TIP3    H239785   2.708   0.667   4.872 -0.2012  2.0335  0.5521
 6124TIP3   OH239786   3.199   4.290   1.010  0.6451 -0.1644 -0.5559
 6124TIP3    H139787   3.149   4.284   1.091  2.2732 -1.3430  0.4054
 6124TIP3    H239788   3.250   4.370   1.019  1.4555 -0.7355 -0.0358
 6125TIP3   OH239789   2.750   0.495   3.189  0.1780 -0.3103  0.6600
 6125TIP3    H139790   2.761   0.544   3.108  1.1076 -0.3772  0.7412
 6125TIP3    H239791   2.809   0.537   3.252  0.4142 -1.0450  0.9476
 6126TIP3   OH239792   0.669   4.944  17.280 -0.7443 -0.1958 -0.4163
 6126TIP3    H139793   0.733   4.876  17.263 -0.1093  0.4030 -0.4635
 6126TIP3    H239794   0.640   4.928  17.370 -1.5075 -1.2479 -0.8330
 6127TIP3   OH239795   0.781   2.608  13.032  0.0702 -0.0242  0.6083
 6127TIP3    H139796   0.691   2.635  13.052  1.0811  4.3246  0.4004
 6127TIP3    H239797   0.829   2.625  13.113  0.9340 -0.9937  0.3052
 6128TIP3   OH239798   6.556   3.522  14.670  0.6774  0.0320 -0.1658
 6128TIP3    H139799   6.546   3.444  14.724  1.8895 -0.5342 -0.7071
 6128TIP3    H239800   6.621   3.497  14.604 -0.0545  1.0059 -1.2994
 6129TIP3   OH239801   1.685   0.122  14.385  0.1878 -0.3649  0.5268
 6129TIP3    H139802   1.619   0.164  14.331  0.2239 -1.4595 -0.4013
 6129TIP3    H239803   1.765   0.171  14.368  0.0438 -0.2623  0.1349
 6130TIP3   OH239804   3.825   4.575  14.617 -0.0848  0.1830 -0.0031
 6130TIP3    H139805   3.920   4.584  14.604 -0.0785 -0.3989 -0.3981
 6130TIP3    H239806   3.814   4.485  14.649 -0.3028  0.9124  2.1374
 6131TIP3   OH239807   4.228   5.301  10.970  0.0611  0.3420  0.3709
 6131TIP3    H139808   4.142   5.342  10.963  0.0779  0.3404  0.1304
 6131TIP3    H239809   4.275   5.353  11.035  1.0309  2.4305 -1.8245
 6132TIP3   OH239810   5.308   2.567  12.946  0.5001 -0.1194 -0.0387
 6132TIP3    H139811   5.289   2.604  13.032 -0.6095 -0.4110 -0.1527
 6132TIP3    H239812   5.337   2.641  12.893 -0.6877  0.4077  0.0380
 6133TIP3   OH239813   6.116   3.854   0.999  0.0837 -0.4626  0.3669
 6133TIP3    H139814   6.139   3.761   0.995 -0.1839 -0.5578  0.8881
 6133TIP3    H239815   6.182   3.893   1.057  0.4895 -0.2294 -0.2460
 6134TIP3   OH239816   1.123   6.207   1.799  0.4467 -0.3359 -0.2458
 6134TIP3    H139817   1.117   6.189   1.705 -0.0578 -1.5459 -0.0057
 6134TIP3    H239818   1.204   6.162   1.826  1.1320  0.8450 -0.2629
 6135TIP3   OH239819   3.276   6.084   5.598  0.1939  0.1407 -0.1326
 6135TIP3    H139820   3.281   6.023   5.672 -0.0776 -0.6730 -0.7642
 6135TIP3    H239821   3.260   6.169   5.638  0.1927 -0.2602  0.7535
 6136TIP3   OH239822   1.755   1.647  14.779  0.0477  0.2870 -0.6273
 6136TIP3    H139823   1.774   1.613  14.866 -1.4896 -1.2547 -0.8549
 6136TIP3    H239824   1.841   1.654  14.737  0.9764  2.3134  1.3904
 6137TIP3   OH239825   0.895   2.890   0.764 -0.1864 -0.6952  0.1854
 6137TIP3    H139826   0.957   2.951   0.803 -1.6534  0.6034  0.5525
 6137TIP3    H239827   0.902   2.811   0.818 -0.4770  0.2340  1.6124
 6138TIP3   OH239828   1.875   1.912  16.992 -0.7930 -0.1381 -0.7082
 6138TIP3    H139829   1.927   1.987  16.962 -1.4937  0.2082 -1.0725
 6138TIP3    H239830   1.828   1.944  17.069 -1.2979 -0.1180 -1.0209
 6139TIP3   OH239831   0.525   4.589   3.216 -0.6469 -0.4914 -0.5598
 6139TIP3    H139832   0.533   4.497   3.243 -0.9671 -0.6228 -0.9037
 6139TIP3    H239833   0.608   4.629   3.241  0.0681 -1.2138 -1.7295
 6140TIP3   OH239834   1.782   0.555  15.927 -0.5113  0.4404 -0.2957
 6140TIP3    H139835   1.775   0.461  15.909  1.4862  0.2597 -0.2905
 6140TIP3    H239836   1.716   0.571  15.994 -0.3596 -1.1175  0.2680
 6141TIP3   OH239837   5.677   4.828   3.921  0.1433  0.8117 -0.2178
 6141TIP3    H139838   5.677   4.742   3.964 -3.8171  1.0000  0.5613
 6141TIP3    H239839   5.745   4.821   3.854  2.3551 -1.6373  2.0478
 6142TIP3   OH239840   6.196   1.269  12.214  0.0238  0.7982 -0.0918
 6142TIP3    H139841   6.129   1.337  12.213 -1.6364 -0.7467  0.2397
 6142TIP3    H239842   6.166   1.205  12.150  1.7641  0.5607 -0.6987
 6143TIP3   OH239843   3.688   6.607  12.313  0.1255  0.1404 -0.1556
 6143TIP3    H139844   3.699   6.653  12.396 -1.2725  2.6108 -1.2444
 6143TIP3    H239845   3.686   6.676  12.247  1.0117 -1.7267 -2.2752
 6144TIP3   OH239846   5.864   5.370   1.220 -0.4188 -0.5822 -0.0788
 6144TIP3    H139847   5.835   5.280   1.240  0.4536 -0.7346  0.6087
 6144TIP3    H239848   5.783   5.421   1.216 -0.8396 -1.0534  1.4232
 6145TIP3   OH239849   4.297   5.642   3.445 -0.4389 -0.5655 -0.1657
 6145TIP3    H139850   4.354   5.609   3.375 -1.8631 -2.0932 -0.6693
 6145TIP3    H239851   4.339   5.612   3.526  1.1684  1.1306 -0.2984
 6146TIP3   OH239852   0.587   2.537  11.230  0.2842  0.3563  0.2455
 6146TIP3    H139853   0.666   2.578  11.197  0.6395 -0.8218 -0.4337
 6146TIP3    H239854   0.617   2.472  11.293 -0.1795  0.3231  0.4410
 6147TIP3   OH239855   5.495   2.137  13.593  0.3746 -0.3404  0.0550
 6147TIP3    H139856   5.428   2.165  13.530 -1.6306 -0.8777  1.8428
 6147TIP3    H239857   5.512   2.214  13.646 -0.4055 -0.7638  0.9343
 6148TIP3   OH239858   1.726   6.587   4.198 -0.5020 -0.4634  0.2424
 6148TIP3    H139859   1.640   6.627   4.210  0.4892  1.7744  0.3193
 6148TIP3    H239860   1.741   6.593   4.103  0.5529  1.4460  0.4837
 6149TIP3   OH239861   0.197   6.138  16.705  0.0280  0.1434 -0.7074
 6149TIP3    H139862   0.209   6.230  16.727 -1.5063  0.6117 -1.7010
 6149TIP3    H239863   0.157   6.138  16.618  0.7479 -1.4938 -1.0864
 6150TIP3   OH239864   4.561   4.466  16.435  0.6893  0.4176  0.1202
 6150TIP3    H139865   4.494   4.501  16.493  1.2415  2.7068 -0.5097
 6150TIP3    H239866   4.564   4.373  16.455 -0.5150  0.7793  2.3382
 6151TIP3   OH239867   6.123   1.207  10.555 -0.1228 -0.7660 -0.2188
 6151TIP3    H139868   6.174   1.269  10.606 -2.3827  1.1262 -0.0966
 6151TIP3    H239869   6.176   1.190  10.477  0.8972  0.7024  0.1174
 6152TIP3   OH239870   2.650   4.966   3.279  0.3240  0.0541  0.1080
 6152TIP3    H139871   2.691   4.900   3.334  1.9592 -0.2039 -1.3537
 6152TIP3    H239872   2.576   4.921   3.238  0.5111 -0.4229  0.2936
 6153TIP3   OH239873   0.688   5.551  14.252  0.3635  0.0204  0.0835
 6153TIP3    H139874   0.629   5.478  14.234  0.3132  0.0774  0.0168
 6153TIP3    H239875   0.640   5.605  14.315 -1.2341  1.9830 -2.6086
 6154TIP3   OH239876   4.768   5.510  15.131  0.1140 -0.4764 -0.0852
 6154TIP3    H139877   4.811   5.494  15.215 -0.4666 -1.6491  0.0017
 6154TIP3    H239878   4.713   5.433  15.117  0.5966 -0.5338 -1.7936
 6155TIP3   OH239879   4.146   2.584   0.088 -0.2266  0.2587  0.1399
 6155TIP3    H139880   4.064   2.565   0.043  0.4148  0.4828 -1.1741
 6155TIP3    H239881   4.119   2.626   0.170 -1.4136  1.3345 -0.7480
 6156TIP3   OH239882   0.140   3.771   1.170  0.1942  0.2597 -0.4114
 6156TIP3    H139883   0.078   3.742   1.238  3.1391  0.0916  2.4499
 6156TIP3    H239884   0.164   3.691   1.124 -0.1168  0.0048 -0.1395
 6157TIP3   OH239885   3.149   6.193  14.940 -0.4083 -0.4619  0.0323
 6157TIP3    H139886   3.242   6.173  14.945 -0.8209 -2.4663  0.7556
 6157TIP3    H239887   3.144   6.275  14.890  1.7422 -0.0766  0.3692
 6158TIP3   OH239888   5.066   4.556  16.723 -0.1494 -0.1381 -0.0953
 6158TIP3    H139889   5.143   4.532  16.672  0.8171  3.4128 -0.5800
 6158TIP3    H239890   4.992   4.529  16.669  0.7566 -1.2054 -0.8570
 6159TIP3   OH239891   3.688   4.773   0.028  0.2904 -0.0369  0.2876
 6159TIP3    H139892   3.712   4.734   0.112 -1.0106 -4.3895 -1.1050
 6159TIP3    H239893   3.754   4.741  -0.033 -0.6361  0.2913 -0.9196
 6160TIP3   OH239894   3.040   5.875   6.012  0.2634 -0.6912 -0.4623
 6160TIP3    H139895   2.967   5.829   5.971  1.2358 -1.1558 -1.7425
 6160TIP3    H239896   3.007   5.902   6.098 -1.0345 -1.8692 -0.5623
 6161TIP3   OH239897   4.810   2.474   1.987 -0.7290  0.6500  0.0766
 6161TIP3    H139898   4.766   2.438   2.064  0.5004 -0.0006  0.5140
 6161TIP3    H239899   4.876   2.409   1.965  0.2598  1.7439 -0.3088
 6162TIP3   OH239900   0.363   0.681  13.345  0.3463 -0.0739  0.5921
 6162TIP3    H139901   0.295   0.620  13.374  0.9632 -0.4534  1.2646
 6162TIP3    H239902   0.324   0.727  13.270 -1.0371  0.4502  1.5906
 6163TIP3   OH239903   0.770   0.303  12.216  0.1953 -0.3149 -0.0196
 6163TIP3    H139904   0.754   0.375  12.155 -2.5602 -2.5107 -2.1477
 6163TIP3    H239905   0.865   0.297  12.222  0.5462  1.2076 -2.6111
 6164TIP3   OH239906   3.446   2.244  12.808  0.9614 -0.0004 -0.3219
 6164TIP3    H139907   3.421   2.184  12.878  0.5626 -0.8481 -1.1645
 6164TIP3    H239908   3.520   2.202  12.765  1.2932  0.5819 -0.3253
 6165TIP3   OH239909   3.809   0.228   6.496 -0.3101  0.0085  0.5814
 6165TIP3    H139910   3.809   0.305   6.553  0.3614 -0.1846  0.8481
 6165TIP3    H239911   3.901   0.215   6.473 -0.4996 -0.2970 -0.0375
 6166TIP3   OH239912   2.031   4.131  13.693 -0.0220 -0.3074  0.0798
 6166TIP3    H139913   1.971   4.200  13.722 -1.0114 -0.6627 -1.0460
 6166TIP3    H239914   1.986   4.049  13.715  2.1475 -0.7423  3.5567
 6167TIP3   OH239915   6.374   5.445   3.185  0.2606 -0.3123 -0.4716
 6167TIP3    H139916   6.319   5.391   3.242 -0.1114 -0.4728 -0.9742
 6167TIP3    H239917   6.314   5.474   3.115  0.7937 -0.4021 -0.9699
 6168TIP3   OH239918   5.304   0.086   1.100 -0.7589 -0.0451  0.5112
 6168TIP3    H139919   5.372   0.078   1.167  0.3599 -2.9629 -0.7776
 6168TIP3    H239920   5.237   0.022   1.125  0.3210 -2.2328 -1.6557
 6169TIP3   OH239921   2.866   1.169  16.069  0.6629  0.2190  0.0074
 6169TIP3    H139922   2.919   1.107  16.019  1.5712  1.5776 -0.7695
 6169TIP3    H239923   2.781   1.168  16.027  0.9896  0.2674 -0.6668
 6170TIP3   OH239924   0.031   5.658   3.357  0.0527 -0.5166 -0.2811
 6170TIP3    H139925   0.029   5.672   3.451 -1.3412 -0.3253 -0.3182
 6170TIP3    H239926  -0.045   5.602   3.339 -0.0343 -0.0746 -1.3613
 6171TIP3   OH239927   0.608   0.435   1.385  0.2984 -0.2801  0.0152
 6171TIP3    H139928   0.650   0.480   1.312  0.1838  1.6756  1.0831
 6171TIP3    H239929   0.612   0.498   1.458  0.6368 -2.2277  1.7807
 6172TIP3   OH239930   1.884   6.529  16.909  0.1557 -0.1755 -0.2027
 6172TIP3    H139931   1.941   6.497  16.839  2.2963  2.7524  0.0061
 6172TIP3    H239932   1.895   6.624  16.908 -1.8457  0.2204  2.3940
 6173TIP3   OH239933   4.924   3.245  12.828  0.1176 -0.1231  0.0213
 6173TIP3    H139934   5.007   3.230  12.783 -0.1475 -0.5292 -0.3297
 6173TIP3    H239935   4.946   3.308  12.897  0.7816 -0.4675  0.1297
 6174TIP3   OH239936   6.673   5.902  16.639 -0.2578 -0.2699 -0.3866
 6174TIP3    H139937   6.758   5.946  16.650  0.4701 -1.8276  0.7737
 6174TIP3    H239938   6.691   5.830  16.579 -0.2148 -1.8189  1.3898
 6175TIP3   OH239939   4.934   5.328   4.552  0.5597 -0.1503  0.0923
 6175TIP3    H139940   5.011   5.348   4.498 -0.1407  0.7708 -0.5870
 6175TIP3    H239941   4.873   5.399   4.534 -0.2795 -0.6275  0.9815
 6176TIP3   OH239942   1.784   1.321   2.600  0.3765 -0.1804 -0.3852
 6176TIP3    H139943   1.838   1.259   2.650  1.0428  2.0211  1.8322
 6176TIP3    H239944   1.694   1.295   2.619  0.6375 -1.0515 -0.2952
 6177TIP3   OH239945   3.092   3.612   1.330 -0.4286 -0.1619  0.2872
 6177TIP3    H139946   3.097   3.573   1.243  1.7352 -1.3921  0.9090
 6177TIP3    H239947   3.146   3.691   1.324 -1.1393  0.3347  0.2574
 6178TIP3   OH239948   6.239   4.872   2.520  0.0511 -0.1215  0.1300
 6178TIP3    H139949   6.172   4.935   2.494 -0.2274 -0.5095 -0.1098
 6178TIP3    H239950   6.317   4.925   2.535  0.1857  0.1613 -1.3479
 6179TIP3   OH239951   6.171   5.132   1.684 -0.0063  0.0434 -0.6900
 6179TIP3    H139952   6.133   5.215   1.656 -1.1029 -0.1033  0.2349
 6179TIP3    H239953   6.244   5.156   1.741 -1.0320  0.4287  0.5174
 6180TIP3   OH239954   4.670   0.580   2.447  0.0004  0.5928  0.1974
 6180TIP3    H139955   4.630   0.653   2.400 -3.1200  1.9361  4.3420
 6180TIP3    H239956   4.622   0.503   2.418  1.6422  0.3890 -2.3541
 6181TIP3   OH239957   6.046   2.440   2.139 -0.5683  0.0373 -0.1093
 6181TIP3    H139958   6.066   2.405   2.226 -2.6719 -0.0092  0.4023
 6181TIP3    H239959   6.116   2.504   2.123 -0.1645  0.1008  1.6578
 6182TIP3   OH239960   1.381   2.037  12.296  0.8020 -0.3754 -0.4064
 6182TIP3    H139961   1.391   1.944  12.279 -0.0832 -0.0204 -3.4195
 6182TIP3    H239962   1.461   2.077  12.264  1.1212 -0.0386  0.7483
 6183TIP3   OH239963   3.254   6.477   1.121 -0.2322 -0.2814  0.2601
 6183TIP3    H139964   3.203   6.429   1.187  0.8563 -0.9351  0.6470
 6183TIP3    H239965   3.265   6.415   1.050 -1.5711  0.4874 -0.6729
 6184TIP3   OH239966   2.841   5.291  11.685 -0.1635  0.6266 -0.1729
 6184TIP3    H139967   2.934   5.268  11.680  0.0932  1.1739  1.4334
 6184TIP3    H239968   2.825   5.343  11.606  1.1461  1.3196 -0.0120
 6185TIP3   OH239969   0.131   4.821  11.716 -0.2758 -0.5534  0.4968
 6185TIP3    H139970   0.055   4.833  11.659  1.5408  0.5660 -1.8771
 6185TIP3    H239971   0.157   4.909  11.743  1.4038 -0.6744 -0.5456
 6186TIP3   OH239972   5.004   4.509  15.895  0.0452  0.2586 -0.7081
 6186TIP3    H139973   4.925   4.524  15.948  0.7726  0.4912  0.3426
 6186TIP3    H239974   5.019   4.415  15.900  0.2896  0.3206 -0.2305
 6187TIP3   OH239975   3.119   5.571   5.761  0.2621  0.3395  0.0013
 6187TIP3    H139976   3.125   5.660   5.797 -1.1049  0.3152  0.3521
 6187TIP3    H239977   3.210   5.547   5.741  1.0712  0.5735  2.8875
 6188TIP3   OH239978   6.247   1.219  13.338 -0.1042  0.4867  0.6247
 6188TIP3    H139979   6.324   1.163  13.329 -0.5065 -0.0097  0.1509
 6188TIP3    H239980   6.219   1.206  13.429 -0.9666 -1.1686  0.1837
 6189TIP3   OH239981   3.261   5.189   1.365  0.2353 -0.5843  0.2663
 6189TIP3    H139982   3.202   5.169   1.292  1.2995 -0.0355 -0.7903
 6189TIP3    H239983   3.328   5.121   1.361  0.4515 -0.3912  0.5485
 6190TIP3   OH239984   5.552   5.640  14.824 -0.2135 -0.4635 -0.0537
 6190TIP3    H139985   5.597   5.673  14.747 -1.7100  2.1042  0.0820
 6190TIP3    H239986   5.471   5.603  14.790  0.4929 -2.2187  0.0378
 6191TIP3   OH239987   1.168   1.834   5.972 -0.1878  0.6797 -0.0482
 6191TIP3    H139988   1.170   1.778   6.050 -1.5660  2.1014  1.0988
 6191TIP3    H239989   1.185   1.922   6.006 -2.1166  1.5257 -1.1060
 6192TIP3   OH239990   1.507   5.151  12.797  0.0581 -0.2759  0.1679
 6192TIP3    H139991   1.455   5.093  12.743 -1.3523  2.2243 -1.3624
 6192TIP3    H239992   1.598   5.132  12.774 -0.4256 -1.0244 -1.1613
 6193TIP3   OH239993   6.054   4.244  17.113 -0.2288 -0.4690  0.2917
 6193TIP3    H139994   5.995   4.233  17.187 -0.0133 -0.1900  0.5039
 6193TIP3    H239995   6.020   4.184  17.046 -0.8575 -0.1861  0.3479
 6194TIP3   OH239996   2.766   0.882   0.513 -0.0929  0.5865 -0.2011
 6194TIP3    H139997   2.858   0.872   0.535 -0.6224 -3.5154  1.1121
 6194TIP3    H239998   2.762   0.870   0.418  0.7132  0.1197 -0.1884
 6195TIP3   OH239999   1.572   0.870  17.321 -0.4047  0.3108  0.2126
 6195TIP3    H140000   1.594   0.810  17.393  1.5709  0.0202 -0.5689
 6195TIP3    H240001   1.581   0.816  17.243  0.2552  1.3348 -0.4273
 6196TIP3   OH240002   3.312   2.381   0.087 -0.4877  0.2124  0.5486
 6196TIP3    H140003   3.369   2.370   0.011  1.6282 -0.0968  2.1039
 6196TIP3    H240004   3.295   2.475   0.091 -0.6314  0.2291 -0.2923
 6197TIP3   OH240005   3.066   5.274   3.800 -0.7612 -0.0794 -0.2665
 6197TIP3    H140006   3.107   5.349   3.758 -2.4769  1.5826  0.8425
 6197TIP3    H240007   3.050   5.212   3.729  2.0244 -0.0943 -0.9803
 6198TIP3   OH240008   0.880   3.635   4.522 -0.4580  0.5342 -0.2692
 6198TIP3    H140009   0.973   3.648   4.506 -0.3329  0.8329  0.6275
 6198TIP3    H240010   0.856   3.560   4.467  0.1491  0.8826 -1.0183
 6199TIP3   OH240011   2.707   0.163  11.409  0.0714  0.0804 -0.1822
 6199TIP3    H140012   2.658   0.080  11.413  1.0129 -0.6500 -2.1735
 6199TIP3    H240013   2.648   0.223  11.363  0.4559 -0.3808 -1.3201
 6200TIP3   OH240014   3.906   3.054  12.579 -0.2349  0.3009  0.4084
 6200TIP3    H140015   3.932   3.012  12.497 -1.1941 -0.5217  0.4994
 6200TIP3    H240016   3.946   3.140  12.576 -0.0992  0.2145 -0.8403
 6201TIP3   OH240017   5.706   0.433  13.428  0.7934 -0.4439  0.3621
 6201TIP3    H140018   5.678   0.525  13.423 -0.7964 -0.8942  0.5858
 6201TIP3    H240019   5.630   0.383  13.400  1.8004 -1.6948 -0.2208
 6202TIP3   OH240020   5.175   2.599   5.262 -0.5295  0.4899 -0.2718
 6202TIP3    H140021   5.183   2.664   5.192 -3.7341 -0.0921 -1.3430
 6202TIP3    H240022   5.116   2.533   5.226 -0.5353 -0.9795  2.2341
 6203TIP3   OH240023   0.089   5.024   3.025  0.1316 -0.3940  0.6865
 6203TIP3    H140024   0.018   5.080   3.055  2.0167  0.9728  2.9948
 6203TIP3    H240025   0.057   4.935   3.040 -1.6602  0.1078  0.1027
 6204TIP3   OH240026   0.441   0.744  11.285  0.0890 -0.0576  0.4323
 6204TIP3    H140027   0.522   0.695  11.298  0.4419  0.2443 -0.5327
 6204TIP3    H240028   0.399   0.744  11.371  1.6144  0.6784  1.2190
 6205TIP3   OH240029   2.173   3.295  10.890 -0.0203  0.3351  0.0716
 6205TIP3    H140030   2.236   3.339  10.833 -0.8442 -0.9891 -1.9993
 6205TIP3    H240031   2.091   3.343  10.877  0.1156  0.9708  1.3966
 6206TIP3   OH240032   3.505   2.969   1.369 -0.3615  0.2382 -0.0835
 6206TIP3    H140033   3.422   2.945   1.410 -1.1223 -0.0419 -1.7145
 6206TIP3    H240034   3.549   2.886   1.353  0.8401  0.4277  1.8559
 6207TIP3   OH240035   2.507   2.650  11.631 -0.1564  0.3235  0.2494
 6207TIP3    H140036   2.415   2.637  11.607  0.5822 -0.1430 -2.7173
 6207TIP3    H240037   2.533   2.566  11.669 -0.3681 -0.4401 -1.2034
 6208TIP3   OH240038   5.784   2.423  12.688 -0.0268 -0.2263  0.5005
 6208TIP3    H140039   5.855   2.361  12.671  0.1749 -0.1851  1.1577
 6208TIP3    H240040   5.704   2.371  12.681 -0.1134  0.1598 -2.3762
 6209TIP3   OH240041   3.257   3.778   2.827 -0.2732  0.3959 -0.2688
 6209TIP3    H140042   3.239   3.702   2.772 -0.9949  0.5168 -0.2025
 6209TIP3    H240043   3.275   3.740   2.914 -0.8917  0.3135 -0.1741
 6210TIP3   OH240044   4.509   6.540   0.855 -0.2206  1.1479  0.0024
 6210TIP3    H140045   4.463   6.563   0.774 -0.1749  1.4894  0.0734
 6210TIP3    H240046   4.441   6.504   0.912 -0.4254  1.7844  0.1602
 6211TIP3   OH240047   1.174   5.945   5.411 -0.1539  0.0574 -0.1349
 6211TIP3    H140048   1.265   5.973   5.408 -0.6791  1.9479  0.1052
 6211TIP3    H240049   1.146   5.962   5.501 -1.1469  0.9614 -0.5878
 6212TIP3   OH240050   3.796   4.521  15.786 -0.1975  0.5301  0.4000
 6212TIP3    H140051   3.781   4.429  15.805  0.6312  0.6269  1.6018
 6212TIP3    H240052   3.725   4.567  15.832 -0.1397  0.5370  0.4835
 6213TIP3   OH240053   4.443   3.753  13.691  0.2548  0.0131 -0.0526
 6213TIP3    H140054   4.490   3.822  13.644  1.0278 -1.1316 -1.0390
 6213TIP3    H240055   4.456   3.675  13.637 -0.7395 -0.8695  0.9398
 6214TIP3   OH240056   4.257   0.318  16.148  0.8149 -0.5396 -0.1634
 6214TIP3    H140057   4.298   0.255  16.207  0.6237  0.4202  1.0367
 6214TIP3    H240058   4.211   0.379  16.207  0.0893  0.0774 -1.3396
 6215TIP3   OH240059   1.214   0.003   5.706  0.8174  0.5755  0.2555
 6215TIP3    H140060   1.153  -0.011   5.634  0.8367  0.8839  0.1773
 6215TIP3    H240061   1.220  -0.082   5.750  1.1567  0.2626 -0.3763
 6216TIP3   OH240062   1.709   0.528  14.390 -0.1939  0.2001  0.1504
 6216TIP3    H140063   1.733   0.619  14.410  0.1748  0.3285 -0.8085
 6216TIP3    H240064   1.685   0.530  14.297 -0.5128 -0.6217  0.2103
 6217TIP3   OH240065   6.205   1.605  11.065 -0.0398  0.4913 -0.1311
 6217TIP3    H140066   6.204   1.620  11.159 -0.7771 -0.2329 -0.0139
 6217TIP3    H240067   6.192   1.511  11.055  2.4229  0.1556 -0.8912
 6218TIP3   OH240068   3.648   3.654   2.427 -0.2659 -0.5053 -0.3706
 6218TIP3    H140069   3.649   3.673   2.520 -1.9000 -0.8537 -0.2489
 6218TIP3    H240070   3.660   3.559   2.422 -0.8224 -0.5732 -0.4696
 6219TIP3   OH240071   5.248   1.104   1.540  0.0273 -0.6446 -0.3961
 6219TIP3    H140072   5.310   1.177   1.544  2.1624 -2.2482 -1.8997
 6219TIP3    H240073   5.289   1.035   1.591 -1.2510 -1.3067 -0.2183
 6220TIP3   OH240074   4.414   3.072  13.136  0.3790  0.0857 -0.1891
 6220TIP3    H140075   4.467   3.115  13.068  0.5189 -1.5799 -1.2028
 6220TIP3    H240076   4.324   3.091  13.111  0.4188 -0.7750 -1.0773
 6221TIP3   OH240077   2.502   3.536   3.264 -0.0986  0.6376  0.7671
 6221TIP3    H140078   2.488   3.452   3.307  1.7240 -0.7298 -1.1141
 6221TIP3    H240079   2.416   3.558   3.226 -0.5699 -0.4240  1.1763
 6222TIP3   OH240080   4.763   5.858  11.873  0.0056  0.2361 -0.0731
 6222TIP3    H140081   4.674   5.867  11.906  0.1128 -0.0588  0.2974
 6222TIP3    H240082   4.767   5.918  11.798 -0.2301  0.9334  0.4612
 6223TIP3   OH240083   3.092   1.907   2.993  0.2115  0.3262 -0.3291
 6223TIP3    H140084   3.093   1.998   3.023  1.0374  0.4732 -0.7878
 6223TIP3    H240085   3.000   1.881   3.001 -0.3061  1.6287 -1.4563
 6224TIP3   OH240086   3.991   3.262   4.490  0.2376  0.2937  0.0684
 6224TIP3    H140087   4.069   3.317   4.493  0.2699  0.2210  0.7139
 6224TIP3    H240088   3.999   3.213   4.408  1.2826 -0.3065  0.5051
 6225TIP3   OH240089   1.964   4.820  15.078  0.2089 -0.0521 -0.6651
 6225TIP3    H140090   1.895   4.887  15.085  0.5822  0.2726 -0.0457
 6225TIP3    H240091   2.044   4.866  15.104  0.6153 -0.5121 -1.0879
 6226TIP3   OH240092   3.790   1.949   6.533 -0.2128  0.5993 -0.4983
 6226TIP3    H140093   3.726   1.940   6.603  0.6083  2.3835  0.5645
 6226TIP3    H240094   3.792   1.864   6.490 -2.5334  0.2014  0.0711
 6227TIP3   OH240095   0.611   3.549  16.399 -0.1115 -0.0604  0.3823
 6227TIP3    H140096   0.568   3.494  16.334 -1.7585  0.5892  0.8896
 6227TIP3    H240097   0.667   3.488  16.448  1.8706 -0.4279 -2.1094
 6228TIP3   OH240098   4.853   2.423   0.964 -0.3175  0.3710 -0.0656
 6228TIP3    H140099   4.911   2.410   0.890 -0.9596  1.1784 -0.7224
 6228TIP3    H240100   4.776   2.369   0.944  0.2095 -0.7796  0.8497
 6229TIP3   OH240101   4.162   1.318  12.921 -0.1965 -0.1375 -0.3680
 6229TIP3    H140102   4.138   1.281  12.836  1.4780 -3.7788  0.5345
 6229TIP3    H240103   4.248   1.357  12.906 -1.6003  2.9451 -1.1224
 6230TIP3   OH240104   6.084   2.985  12.760  0.6729  0.5504  0.2444
 6230TIP3    H140105   6.002   2.999  12.808 -0.1312 -0.5871 -0.7573
 6230TIP3    H240106   6.126   2.912  12.806 -0.3189 -0.8502 -1.0058
 6231TIP3   OH240107   5.021   2.231  10.826 -0.1282  0.1020  0.2819
 6231TIP3    H140108   4.977   2.146  10.818  0.1300 -0.0606  0.5609
 6231TIP3    H240109   4.954   2.291  10.859  0.0758 -0.3345  1.5266
 6232TIP3   OH240110   4.726   3.725   2.445  0.4181 -0.5378 -0.2941
 6232TIP3    H140111   4.655   3.780   2.412 -0.5070 -1.1550  0.5951
 6232TIP3    H240112   4.786   3.716   2.371  1.3055  2.6812 -0.1238
 6233TIP3   OH240113   4.220   0.030  15.198  0.4098  0.1552 -0.2289
 6233TIP3    H140114   4.257   0.113  15.228  2.5182 -1.2479  1.4853
 6233TIP3    H240115   4.278   0.003  15.127  0.7753 -0.5615  0.3202
 6234TIP3   OH240116   4.155   2.713   0.975 -0.1463 -0.3433  0.0664
 6234TIP3    H140117   4.136   2.625   0.944 -1.0471 -0.7765  1.7543
 6234TIP3    H240118   4.072   2.743   1.014  0.0736  1.3414 -0.6596
 6235TIP3   OH240119   6.691   4.894  11.533 -0.1476 -0.5285  0.1414
 6235TIP3    H140120   6.597   4.901  11.547  0.0018 -0.0968  0.9928
 6235TIP3    H240121   6.700   4.854  11.447 -1.1423 -3.0468  1.1001
 6236TIP3   OH240122   1.898   3.296  11.467  0.0795  0.6641  0.3890
 6236TIP3    H140123   1.860   3.377  11.434 -0.1687 -0.0018 -1.0536
 6236TIP3    H240124   1.965   3.273  11.403 -1.4903 -1.5085 -0.5956
 6237TIP3   OH240125   4.915   3.728  14.554 -0.3651 -0.2464  0.2471
 6237TIP3    H140126   4.957   3.644  14.535  0.2754 -0.1764  1.2698
 6237TIP3    H240127   4.970   3.792  14.509  0.5514 -0.1763  1.4072
 6238TIP3   OH240128   0.364   2.078  14.754  0.1356  0.0679  0.1517
 6238TIP3    H140129   0.346   2.011  14.819  0.5444  2.9499  3.5049
 6238TIP3    H240130   0.297   2.066  14.687  0.4508 -3.8203  0.3063
 6239TIP3   OH240131   4.086   1.585   5.321  0.7499  0.5447  0.1545
 6239TIP3    H140132   4.024   1.531   5.370  0.9012  1.5911  1.5616
 6239TIP3    H240133   4.153   1.524   5.292  0.0776 -0.2814  0.2944
 6240TIP3   OH240134   4.147   3.876  12.559  0.3836  0.8045 -0.3242
 6240TIP3    H140135   4.184   3.836  12.638 -0.9934  0.6269  0.2663
 6240TIP3    H240136   4.195   3.835  12.487  0.7090 -0.0812  0.3715
 6241TIP3   OH240137   0.394   0.375  16.094 -0.9385  0.6754  0.5802
 6241TIP3    H140138   0.446   0.307  16.136 -0.8994  1.1861  1.3774
 6241TIP3    H240139   0.450   0.407  16.023  0.6450  2.4451  2.5114
 6242TIP3   OH240140   2.625   6.620  13.626  0.0245  0.1339  0.0382
 6242TIP3    H140141   2.651   6.712  13.633 -0.3253  0.1616  1.0668
 6242TIP3    H240142   2.666   6.577  13.701  2.4337 -1.1337 -1.8344
 6243TIP3   OH240143   3.827   5.511  15.089 -0.3460 -0.2675 -0.1153
 6243TIP3    H140144   3.767   5.561  15.144  0.9640  1.0343  0.1861
 6243TIP3    H240145   3.893   5.575  15.060 -0.0958 -1.2633 -1.8845
 6244TIP3   OH240146   6.349   3.900  13.894  0.4442  0.2385  0.1883
 6244TIP3    H140147   6.310   3.882  13.979  0.0599  1.7642  0.3587
 6244TIP3    H240148   6.288   3.861  13.831 -0.4581  1.0485  0.5334
 6245TIP3   OH240149   2.347   1.290  15.607  0.6001  0.1573  0.2432
 6245TIP3    H140150   2.433   1.298  15.568 -0.0107 -2.0270 -1.7316
 6245TIP3    H240151   2.288   1.332  15.545  0.1241  0.9610  1.2087
 6246TIP3   OH240152   3.734   2.245   4.471 -0.6334  0.3297 -0.2155
 6246TIP3    H140153   3.706   2.329   4.507 -0.9555 -0.4607  1.5000
 6246TIP3    H240154   3.738   2.187   4.547 -0.0833 -1.1217 -1.3072
 6247TIP3   OH240155   0.147   5.112  11.828  0.4029  0.4169 -0.9616
 6247TIP3    H140156   0.235   5.147  11.842  0.9413 -1.0706 -0.4108
 6247TIP3    H240157   0.131   5.124  11.734  1.6488 -0.2717 -1.2864
 6248TIP3   OH240158   6.242   5.146  16.915 -0.1827  0.7414 -0.2949
 6248TIP3    H140159   6.305   5.199  16.866  2.2570  0.0710  1.9176
 6248TIP3    H240160   6.210   5.204  16.984  0.5880  0.1334  0.6030
 6249TIP3   OH240161   4.855   6.218   3.150 -0.1639  0.8724  0.0561
 6249TIP3    H140162   4.813   6.255   3.227 -0.0934  0.6501  0.2019
 6249TIP3    H240163   4.783   6.195   3.092 -0.1682  3.0621 -0.9022
 6250TIP3   OH240164   2.297   2.406  14.431 -0.2709  0.1497  0.2511
 6250TIP3    H140165   2.301   2.374  14.341 -0.7704  0.2769  0.1779
 6250TIP3    H240166   2.345   2.489  14.429 -1.0681  0.6209 -0.1169
 6251TIP3   OH240167   1.173   5.047  14.284  0.7728  0.6062  0.0704
 6251TIP3    H140168   1.241   5.104  14.249  1.5850 -1.2660 -1.6254
 6251TIP3    H240169   1.176   4.969  14.228 -2.4929  0.2504  0.1713
 6252TIP3   OH240170   4.976   3.884   2.348 -0.8957 -0.3277 -0.1722
 6252TIP3    H140171   5.011   3.901   2.436 -0.2581 -1.8621 -0.0958
 6252TIP3    H240172   4.926   3.962   2.327  1.6908  1.5611  0.1645
 6253TIP3   OH240173   1.930   5.607   5.039  0.2493 -0.0954  0.3069
 6253TIP3    H140174   1.952   5.514   5.051 -0.8024 -0.3550  0.3657
 6253TIP3    H240175   1.855   5.621   5.097 -0.2170  0.5415 -0.4238
 6254TIP3   OH240176   1.481   2.525  12.540  0.3747 -0.4252 -0.7746
 6254TIP3    H140177   1.448   2.458  12.481 -1.1321 -1.0716  0.7298
 6254TIP3    H240178   1.431   2.603  12.519 -1.9127 -1.2476  1.0923
 6255TIP3   OH240179   0.538   0.624   3.563 -0.7187  0.5314  0.7169
 6255TIP3    H140180   0.609   0.664   3.513 -0.9172 -0.0633 -0.0549
 6255TIP3    H240181   0.461   0.631   3.507 -1.7352  2.7916  2.2697
 6256TIP3   OH240182   3.867   0.564  16.923  0.5883  0.3017 -0.2434
 6256TIP3    H140183   3.786   0.614  16.913  0.2627 -0.4759 -1.8881
 6256TIP3    H240184   3.894   0.544  16.833  2.0362 -0.3677  0.3047
 6257TIP3   OH240185   5.882   1.770   2.553 -0.5032  0.1877  0.0546
 6257TIP3    H140186   5.884   1.718   2.633 -0.2563 -0.7731 -0.5551
 6257TIP3    H240187   5.826   1.844   2.574  0.8636  0.8407  1.6318
 6258TIP3   OH240188   0.680   0.399  16.276  0.6622  0.0505  0.4285
 6258TIP3    H140189   0.599   0.353  16.298  0.2965  0.3485 -0.2509
 6258TIP3    H240190   0.727   0.340  16.218 -0.6697  1.1906 -2.0000
 6259TIP3   OH240191   1.992   1.718   1.824 -0.7066 -0.7436 -0.3997
 6259TIP3    H140192   2.049   1.785   1.786 -1.7922 -0.2473 -1.2246
 6259TIP3    H240193   2.008   1.724   1.918  0.3928 -0.4403 -0.5900
 6260TIP3   OH240194   1.897   0.963   1.374 -0.6579  0.5966 -0.0188
 6260TIP3    H140195   1.927   0.873   1.386 -0.0638  0.9831  1.7020
 6260TIP3    H240196   1.829   0.957   1.307  0.1168 -0.9668 -0.7128
 6261TIP3   OH240197   4.746   1.523  15.941 -0.2367  0.1289  0.4563
 6261TIP3    H140198   4.772   1.608  15.905 -1.2017  0.7695  1.2142
 6261TIP3    H240199   4.829   1.483  15.968  0.3398  0.3521 -0.8838
 6262TIP3   OH240200   1.301   5.932  13.202  0.2394  0.9331 -0.3287
 6262TIP3    H140201   1.365   5.881  13.154 -0.0264  0.9662 -0.7199
 6262TIP3    H240202   1.346   6.015  13.221  0.1149  1.1969 -1.1327
 6263TIP3   OH240203   2.494   5.421   1.766  0.0839 -0.2996 -0.0585
 6263TIP3    H140204   2.449   5.471   1.835 -1.4276 -1.0866 -0.4236
 6263TIP3    H240205   2.431   5.418   1.694  1.4965  0.1975 -1.3640
 6264TIP3   OH240206   5.552   2.729   2.688 -0.3480  0.1646 -0.1587
 6264TIP3    H140207   5.633   2.757   2.731 -0.1749 -2.1788  1.2397
 6264TIP3    H240208   5.569   2.738   2.595  1.7518 -0.7649  0.0938
 6265TIP3   OH240209   3.596   3.080  16.618 -0.1139 -0.1577 -0.1193
 6265TIP3    H140210   3.614   3.174  16.613  3.8784 -0.7440  0.2661
 6265TIP3    H240211   3.641   3.043  16.542 -0.9677 -1.8492  0.1683
 6266TIP3   OH240212   1.320   0.086  12.730  0.1085 -0.2258 -0.6531
 6266TIP3    H140213   1.274   0.068  12.648 -1.8527 -0.7759  0.4732
 6266TIP3    H240214   1.308   0.179  12.745  0.7014 -0.0725 -1.1091
 6267TIP3   OH240215   6.715   3.013  16.920  0.0985  0.3134 -0.2426
 6267TIP3    H140216   6.797   2.978  16.956 -0.3399 -0.6225 -0.1157
 6267TIP3    H240217   6.690   3.083  16.981  0.5603  0.2884 -0.0175
 6268TIP3   OH240218   2.096   3.569  12.166 -0.0319 -0.1091 -0.0928
 6268TIP3    H140219   2.027   3.621  12.125  0.0286 -0.3922 -0.5634
 6268TIP3    H240220   2.106   3.493  12.108  2.0157  0.8525 -1.1296
 6269TIP3   OH240221   2.348   3.876   1.382 -0.6133  0.3099  1.6074
 6269TIP3    H140222   2.337   3.901   1.291  0.7074 -1.1952  0.9811
 6269TIP3    H240223   2.337   3.781   1.382 -1.4710  0.3845  3.1682
 6270TIP3   OH240224   3.009   3.839   3.490 -0.0141 -0.4684 -0.0935
 6270TIP3    H140225   2.946   3.812   3.423 -0.4087  0.2610 -0.0317
 6270TIP3    H240226   3.095   3.822   3.452 -0.2300  0.1210 -0.8664
 6271TIP3   OH240227   3.620   5.606   3.165 -0.3653 -0.4433  0.7130
 6271TIP3    H140228   3.618   5.561   3.081  0.8479 -0.6061  0.7508
 6271TIP3    H240229   3.631   5.699   3.142  0.4058 -0.5339  0.6871
 6272TIP3   OH240230   3.589   2.072  12.687 -0.1568  1.0485  0.2528
 6272TIP3    H140231   3.678   2.044  12.664 -0.6778 -0.3928 -0.1619
 6272TIP3    H240232   3.536   1.993  12.676 -1.2181  1.4552  2.0978
 6273TIP3   OH240233   4.676   3.402  15.099  0.3405  0.3891  0.1946
 6273TIP3    H140234   4.673   3.309  15.077 -0.2549  0.3005  0.6211
 6273TIP3    H240235   4.769   3.420  15.115  0.2590 -0.6076  2.0957
 6274TIP3   OH240236   5.596   1.809  10.627  0.1344 -0.1019 -0.6675
 6274TIP3    H140237   5.573   1.898  10.603  2.0517  0.0802 -2.0931
 6274TIP3    H240238   5.664   1.818  10.693  0.5018 -0.4931 -0.9833
 6275TIP3   OH240239   0.750   4.201   5.974  0.3268  0.4073  0.2571
 6275TIP3    H140240   0.681   4.135   5.974  0.1483  0.5692 -1.1594
 6275TIP3    H240241   0.743   4.244   6.059 -1.1647  0.2596  0.2183
 6276TIP3   OH240242   6.570   4.207   3.284 -0.3952  0.2234  0.2186
 6276TIP3    H140243   6.624   4.132   3.308  0.1151  0.9871  1.5685
 6276TIP3    H240244   6.609   4.240   3.203 -0.5657 -0.8780 -0.3345
 6277TIP3   OH240245   2.827   3.140   0.888  0.3229  0.1752  0.7610
 6277TIP3    H140246   2.914   3.173   0.913  0.4613 -0.4386  1.1379
 6277TIP3    H240247   2.827   3.049   0.919 -0.0774 -0.1467 -0.1449
 6278TIP3   OH240248   1.024   1.092  11.599 -0.2862  0.0092  0.8347
 6278TIP3    H140249   1.066   1.177  11.592 -0.9587  0.2633 -0.2390
 6278TIP3    H240250   1.086   1.031  11.560  0.4163 -0.1003  2.0481
 6279TIP3   OH240251   4.275   6.337   4.654 -0.3420  0.3790  0.0913
 6279TIP3    H140252   4.217   6.409   4.630 -0.8741 -0.2142 -0.4387
 6279TIP3    H240253   4.344   6.378   4.707 -1.6872  0.9621  1.4647
 6280TIP3   OH240254   4.495   3.697   4.959 -0.8370 -0.4786 -0.1620
 6280TIP3    H140255   4.519   3.698   5.051  0.6807  4.2898 -0.3280
 6280TIP3    H240256   4.576   3.677   4.913 -0.1169  2.5036 -0.4130
 6281TIP3   OH240257   0.046   6.159  16.946 -0.5957 -0.2754  0.2998
 6281TIP3    H140258  -0.017   6.220  16.906  0.4908  0.3833 -0.4599
 6281TIP3    H240259   0.094   6.122  16.872  0.2479 -0.3895  0.8872
 6282TIP3   OH240260   1.202   0.431  16.654 -0.0967  0.2587 -0.5363
 6282TIP3    H140261   1.190   0.525  16.670 -0.3410  0.1053  0.2293
 6282TIP3    H240262   1.145   0.389  16.719  0.5854 -0.4280 -0.3738
 6283TIP3   OH240263   3.407   5.058   5.114  0.7376  0.0059  0.2573
 6283TIP3    H140264   3.488   5.029   5.073  0.1604 -0.5114 -0.5511
 6283TIP3    H240265   3.353   4.979   5.120 -0.4345  0.6711 -0.9562
 6284TIP3   OH240266   4.830   4.403   5.670  0.2578 -0.3903  0.2320
 6284TIP3    H140267   4.763   4.469   5.654  0.9131  0.2407  0.0119
 6284TIP3    H240268   4.783   4.320   5.670 -0.3239 -0.1102 -1.3951
 6285TIP3   OH240269   5.901   6.705  15.475  0.2262 -0.1098  0.3862
 6285TIP3    H140270   5.871   6.795  15.491  1.0247  1.1173 -3.8600
 6285TIP3    H240271   5.979   6.697  15.530 -0.3134  1.4930  1.4673
 6286TIP3   OH240272   2.003   5.318   0.921 -0.2860 -0.0133  0.1583
 6286TIP3    H140273   1.919   5.313   0.874 -0.4384  1.3551  0.2448
 6286TIP3    H240274   2.047   5.393   0.882  1.6036 -1.5994 -0.9444
 6287TIP3   OH240275   1.904   2.874   2.147 -0.4736  0.3982 -0.8797
 6287TIP3    H140276   1.890   2.842   2.058  0.0015  2.7640 -1.8722
 6287TIP3    H240277   1.888   2.968   2.142 -0.3197  0.6184  1.5326
 6288TIP3   OH240278   6.504   2.058   0.813  0.1428  0.3558 -0.4627
 6288TIP3    H140279   6.580   2.012   0.850 -1.1897 -0.7921  0.9706
 6288TIP3    H240280   6.455   1.990   0.767 -1.1794  0.5785  0.5670
 6289TIP3   OH240281   2.594   2.875   3.306 -0.1574 -0.4366  0.0918
 6289TIP3    H140282   2.547   2.836   3.380  0.4044 -0.7760  0.2820
 6289TIP3    H240283   2.676   2.826   3.302  0.2462  0.2428 -0.1362
 6290TIP3   OH240284   2.337   5.464  12.030 -0.2145 -0.4082  0.0506
 6290TIP3    H140285   2.312   5.556  12.018 -0.0385 -0.3178  0.3537
 6290TIP3    H240286   2.432   5.463  12.018 -0.2014 -0.5288  0.1535
 6291TIP3   OH240287   4.582   4.693  13.380  0.3839 -0.2907 -0.2297
 6291TIP3    H140288   4.488   4.711  13.376  0.1667 -1.0294  0.9420
 6291TIP3    H240289   4.621   4.772  13.416  0.1663 -0.1315 -0.3425
 6292TIP3   OH240290   3.905   6.338   1.997 -0.4606  0.0829 -0.2163
 6292TIP3    H140291   3.981   6.316   2.052  0.3223  0.2766 -1.1865
 6292TIP3    H240292   3.830   6.302   2.044  0.2556 -0.2685  0.6863
 6293TIP3   OH240293   2.289   4.667   0.826 -0.3245 -0.5996 -0.2521
 6293TIP3    H140294   2.310   4.698   0.738  1.8270  0.4989  0.5738
 6293TIP3    H240295   2.307   4.573   0.824  1.3750 -0.2915 -0.5499
 6294TIP3   OH240296   2.482   3.523  15.735  0.1677 -0.3036  0.1038
 6294TIP3    H140297   2.575   3.517  15.716 -0.0943 -0.7645 -1.1515
 6294TIP3    H240298   2.458   3.613  15.714 -0.0554 -0.7257 -1.5756
 6295TIP3   OH240299   5.122   4.642   1.017  0.6545 -0.2198  0.0628
 6295TIP3    H140300   5.062   4.575   0.986 -1.3166  1.5308 -0.1544
 6295TIP3    H240301   5.121   4.633   1.113  0.6111 -0.6670  0.0192
 6296TIP3   OH240302   3.176   1.216   4.961 -0.0342 -0.7136 -0.0239
 6296TIP3    H140303   3.170   1.221   4.866  0.1473 -2.2320 -0.1344
 6296TIP3    H240304   3.169   1.123   4.981  1.7248 -0.6081  1.3203
 6297TIP3   OH240305   4.775   2.738  11.112  0.1309  0.2044  0.4719
 6297TIP3    H140306   4.728   2.687  11.046  1.4057  0.7730 -0.9262
 6297TIP3    H240307   4.792   2.822  11.070  2.5691 -0.0512  0.8358
 6298TIP3   OH240308   6.578   1.891   4.033  0.4136 -0.0299 -0.0293
 6298TIP3    H140309   6.605   1.817   3.979  0.1388 -0.8942  0.9727
 6298TIP3    H240310   6.627   1.966   3.999 -0.4462 -0.3280 -2.0692
 6299TIP3   OH240311   4.765   5.814   4.936  0.0665 -0.3663  0.9622
 6299TIP3    H140312   4.753   5.845   4.847 -1.0670  1.1540  1.5944
 6299TIP3    H240313   4.826   5.876   4.976 -0.9145  0.1149  1.7708
 6300TIP3   OH240314   3.195   3.552   0.906  0.0225  0.2141 -0.5389
 6300TIP3    H140315   3.182   3.563   0.812 -2.2963  0.6394 -0.2327
 6300TIP3    H240316   3.281   3.591   0.923 -0.4751  2.1995 -2.1578
 6301TIP3   OH240317   6.171   6.058   0.982 -0.1415  0.7643 -0.0936
 6301TIP3    H140318   6.244   6.109   0.947  1.8041 -0.8318  1.3912
 6301TIP3    H240319   6.205   6.020   1.063 -2.0293 -1.4702 -0.2485
 6302TIP3   OH240320   1.748   2.791   4.718  0.3203  0.4535 -0.3033
 6302TIP3    H140321   1.770   2.884   4.723  0.0121  0.4916  0.4927
 6302TIP3    H240322   1.682   2.778   4.787  1.8757 -0.7724  1.0449
 6303TIP3   OH240323   6.680   3.971  11.944 -0.0571 -0.7260 -0.0842
 6303TIP3    H140324   6.647   3.945  12.030 -2.4469 -0.9572 -0.9784
 6303TIP3    H240325   6.763   4.015  11.962 -0.6722 -0.4248  2.3718
 6304TIP3   OH240326   3.953   6.358   0.179  0.0220  0.0195  0.1349
 6304TIP3    H140327   3.875   6.308   0.201  0.2567  0.2686  1.6046
 6304TIP3    H240328   3.936   6.446   0.214 -0.6032  1.2293 -2.8170
 6305TIP3   OH240329   5.992   4.027  11.280 -0.0024  0.5570 -0.1851
 6305TIP3    H140330   5.904   4.007  11.310 -0.7098 -4.1524 -4.1452
 6305TIP3    H240331   5.979   4.072  11.196  1.2288 -0.7994 -1.1548
 6306TIP3   OH240332   4.082   2.178   0.950 -0.5076  0.1571  0.3097
 6306TIP3    H140333   3.994   2.161   0.916 -0.6273  1.5679 -0.1594
 6306TIP3    H240334   4.099   2.106   1.010 -2.1407  0.0565  0.6963
 6307TIP3   OH240335   1.426   2.357   4.665  0.2459  0.2388 -0.6620
 6307TIP3    H140336   1.499   2.298   4.645  1.3992  0.8963  1.2713
 6307TIP3    H240337   1.435   2.429   4.602 -0.3962 -0.9518 -2.1844
 6308TIP3   OH240338   6.197   1.454   5.767  0.1884  0.1406  0.1336
 6308TIP3    H140339   6.124   1.459   5.705  0.8842  1.2713 -0.6339
 6308TIP3    H240340   6.167   1.504   5.843 -0.3074 -0.4638  0.3440
 6309TIP3   OH240341   3.675   0.007  12.541  0.9015  0.0406  0.4006
 6309TIP3    H140342   3.584   0.021  12.515  1.7526  2.2871 -1.7504
 6309TIP3    H240343   3.671  -0.010  12.635 -1.6273  1.2499  0.5861
 6310TIP3   OH240344   1.321   0.438   4.194  0.2091 -0.2426  0.1543
 6310TIP3    H140345   1.239   0.394   4.172  1.0581 -1.1721 -1.3008
 6310TIP3    H240346   1.372   0.435   4.113  0.9536  2.0067  0.4786
 6311TIP3   OH240347   0.117   2.291   2.547  0.4775 -0.5601  0.1139
 6311TIP3    H140348   0.186   2.238   2.586 -0.1466 -1.5830 -0.1469
 6311TIP3    H240349   0.045   2.288   2.610  1.0065  1.3905  0.8972
 6312TIP3   OH240350   1.180   5.259  13.508  0.2417 -0.7269 -0.4327
 6312TIP3    H140351   1.131   5.244  13.427  0.3274  1.1390 -0.8736
 6312TIP3    H240352   1.246   5.190  13.510 -0.4567 -1.4438 -1.3799
 6313TIP3   OH240353   0.003   4.708   0.819  0.4652 -0.4565  0.1727
 6313TIP3    H140354  -0.027   4.618   0.826  1.2093 -0.8293 -1.1907
 6313TIP3    H240355  -0.076   4.759   0.799  0.5620 -1.4025 -3.2350
 6314TIP3   OH240356   0.283   5.796  11.481 -0.1694 -0.5839  0.1678
 6314TIP3    H140357   0.375   5.811  11.458 -0.1658  1.9236  1.4836
 6314TIP3    H240358   0.278   5.819  11.574 -2.0599 -1.1133  0.2385
 6315TIP3   OH240359   6.438   3.097   3.995  0.3041 -0.6106 -0.4834
 6315TIP3    H140360   6.451   3.175   3.942 -1.1730 -0.6493 -0.9395
 6315TIP3    H240361   6.469   3.025   3.940  2.5888 -0.3238  0.3023
 6316TIP3   OH240362   6.322   1.533   2.386  0.1922  0.4606  0.2670
 6316TIP3    H140363   6.340   1.617   2.428  0.1015  0.7515 -0.2654
 6316TIP3    H240364   6.230   1.515   2.406  0.7162 -0.4964  2.0657
 6317TIP3   OH240365   4.448   5.873  15.808 -0.1752 -0.2985  0.4116
 6317TIP3    H140366   4.518   5.814  15.836  0.3787  0.1668  0.0271
 6317TIP3    H240367   4.460   5.882  15.714  0.3748  1.2288  0.6147
 6318TIP3   OH240368   6.408   0.616   4.284 -0.0953 -0.3196 -0.1706
 6318TIP3    H140369   6.367   0.696   4.249  0.5048  0.0480 -0.0310
 6318TIP3    H240370   6.495   0.643   4.311  0.0576 -0.9933  0.0236
 6319TIP3   OH240371   0.466   6.275  15.437 -0.3340  0.4478  0.0486
 6319TIP3    H140372   0.371   6.274  15.441 -0.3197 -0.3813  0.3625
 6319TIP3    H240373   0.490   6.190  15.400  0.3215  0.2039  0.9979
 6320TIP3   OH240374   6.078   6.743   1.494 -0.5181  0.1793 -0.0246
 6320TIP3    H140375   6.143   6.775   1.557 -2.3166  1.6531  1.1768
 6320TIP3    H240376   6.107   6.654   1.474  2.6205  1.2200 -0.6420
 6321TIP3   OH240377   2.751   4.620   1.452 -0.5461  0.4231 -0.2869
 6321TIP3    H140378   2.664   4.623   1.492 -1.3284 -0.0422 -1.8776
 6321TIP3    H240379   2.811   4.621   1.527 -1.9463 -1.5504  0.9862
 6322TIP3   OH240380   2.589   5.142   5.963 -0.1979  0.2602  0.4812
 6322TIP3    H140381   2.617   5.177   5.879  0.1284  0.5178  0.6959
 6322TIP3    H240382   2.511   5.191   5.986  0.3121  0.9253  0.8275
 6323TIP3   OH240383   1.185   3.775   5.609  0.2436 -0.0786 -0.0326
 6323TIP3    H140384   1.186   3.859   5.654  0.7667 -0.6727  1.1171
 6323TIP3    H240385   1.182   3.797   5.516  1.5079  1.2244  0.2086
 6324TIP3   OH240386   0.540   2.957   6.328  0.0559 -0.1287 -0.6705
 6324TIP3    H140387   0.632   2.969   6.348 -0.0337 -1.2729  0.5612
 6324TIP3    H240388   0.514   2.879   6.377 -1.9333  1.0149  0.2574
 6325TIP3   OH240389   3.291   5.605  13.766  0.0931  0.5827 -0.5875
 6325TIP3    H140390   3.301   5.674  13.700 -0.6508 -0.1786 -1.5292
 6325TIP3    H240391   3.328   5.527  13.724  1.8093  0.5687  0.8209
 6326TIP3   OH240392   1.620   3.945   2.858  0.4561 -0.5815 -0.0902
 6326TIP3    H140393   1.539   3.896   2.871  1.2186 -1.3602  2.4412
 6326TIP3    H240394   1.659   3.907   2.779 -1.7655  0.1151 -1.6250
 6327TIP3   OH240395   6.643   0.611  11.013  0.6989 -0.3531 -0.5505
 6327TIP3    H140396   6.722   0.592  10.962 -0.5246 -0.3218 -2.5356
 6327TIP3    H240397   6.618   0.700  10.986 -0.3821 -0.6153 -0.4467
 6328TIP3   OH240398   2.178   2.663   5.610  0.2159  0.2165  0.0369
 6328TIP3    H140399   2.111   2.646   5.544 -0.6438  0.5568  0.7937
 6328TIP3    H240400   2.260   2.661   5.562 -0.1378 -2.1635 -0.5883
 6329TIP3   OH240401   4.151   6.098  16.486  0.4312 -0.4821  0.0042
 6329TIP3    H140402   4.163   6.109  16.392 -1.8936  1.2054 -0.1951
 6329TIP3    H240403   4.180   6.181  16.524 -1.3421 -0.0060  0.4118
 6330TIP3   OH240404   2.404   6.283   0.984 -0.0669  0.1906 -0.1120
 6330TIP3    H140405   2.387   6.366   1.030 -0.9638 -0.0822  0.0681
 6330TIP3    H240406   2.406   6.217   1.054 -0.0599 -0.0384 -0.3277
 6331TIP3   OH240407   2.121   5.166  14.605 -0.2736  0.2085 -0.3994
 6331TIP3    H140408   2.137   5.169  14.699  0.3308 -0.4721 -0.4714
 6331TIP3    H240409   2.029   5.192  14.595 -0.8819 -1.4821  0.5350
 6332TIP3   OH240410   3.558   5.673  15.560  0.2353 -0.5058  0.1042
 6332TIP3    H140411   3.627   5.607  15.551  0.4798 -0.3811  0.9560
 6332TIP3    H240412   3.568   5.705  15.650 -0.3771  0.1377 -0.0541
 6333TIP3   OH240413   5.416   0.888  14.941 -0.2556  0.0533 -0.0041
 6333TIP3    H140414   5.414   0.880  14.845 -0.3138  3.2502 -0.3979
 6333TIP3    H240415   5.509   0.897  14.962 -0.3331  0.8190  0.0351
 6334TIP3   OH240416   4.513   0.315   0.581 -0.3721  0.5862 -0.3981
 6334TIP3    H140417   4.509   0.241   0.642 -1.2466  1.3061  0.4318
 6334TIP3    H240418   4.606   0.339   0.579 -0.4678  1.2329  1.4931
 6335TIP3   OH240419   2.575   1.642   3.849  0.0716  0.6132 -0.5744
 6335TIP3    H140420   2.612   1.729   3.861  0.3931  0.6298 -1.5780
 6335TIP3    H240421   2.555   1.611   3.937 -2.2141  2.6267 -0.2706
 6336TIP3   OH240422   5.216   6.323   3.975 -0.0788 -0.7315  0.1515
 6336TIP3    H140423   5.123   6.319   3.998 -1.0344 -2.8813 -3.2768
 6336TIP3    H240424   5.241   6.231   3.965  2.7809 -0.2439  1.8912
 6337TIP3   OH240425   5.361   6.301  15.871  0.0023  0.4028  0.2366
 6337TIP3    H140426   5.335   6.354  15.947  0.6506  1.3963 -0.2140
 6337TIP3    H240427   5.333   6.353  15.796  0.0878 -0.1970 -0.2173
 6338TIP3   OH240428   0.993   4.689  15.106 -0.0331 -0.3038  0.1735
 6338TIP3    H140429   0.903   4.679  15.076  0.4546 -1.2281 -1.0692
 6338TIP3    H240430   1.033   4.750  15.044  0.7693 -1.5900 -0.6092
 6339TIP3   OH240431   2.071   5.031   1.983  0.4862 -0.2122  0.2545
 6339TIP3    H140432   2.016   4.976   1.928  0.1642  0.9213 -0.5955
 6339TIP3    H240433   2.050   5.004   2.073 -0.4780 -0.6985 -0.1004
 6340TIP3   OH240434   2.402   4.966   4.019 -0.5639 -0.5904  0.1718
 6340TIP3    H140435   2.454   5.012   4.084 -1.0179 -0.9687  0.8128
 6340TIP3    H240436   2.356   5.036   3.971 -0.8141 -0.3481  0.7609
 6341TIP3   OH240437   5.252   6.123  13.877 -0.0252  0.2802 -0.3414
 6341TIP3    H140438   5.169   6.145  13.920  1.2296  0.8370  1.9769
 6341TIP3    H240439   5.263   6.029  13.891 -0.1156  0.2662 -0.3682
 6342TIP3   OH240440   2.459   0.612  17.311  0.1107 -0.1857  0.4106
 6342TIP3    H140441   2.453   0.522  17.344  0.2197 -0.4674 -0.3071
 6342TIP3    H240442   2.419   0.665  17.379 -1.5081 -0.9552  0.1100
 6343TIP3   OH240443   5.020   2.325  13.148 -0.1946  0.2690  0.0803
 6343TIP3    H140444   5.070   2.364  13.220  2.3551  2.2405 -2.5230
 6343TIP3    H240445   4.930   2.357  13.161 -0.3200 -1.0263  3.3173
 6344TIP3   OH240446   5.877   6.646  14.685  0.4412 -0.0097  1.1174
 6344TIP3    H140447   5.923   6.719  14.644  0.2272  0.1240  1.1146
 6344TIP3    H240448   5.869   6.580  14.617  1.3280 -0.3585  1.3305
 6345TIP3   OH240449   3.440   1.667   1.501 -0.6019  0.5651  0.3951
 6345TIP3    H140450   3.450   1.572   1.505 -1.9640  0.4355  1.1988
 6345TIP3    H240451   3.522   1.701   1.538  0.5935 -0.2332 -1.3836
 6346TIP3   OH240452   5.038   2.082  16.771 -0.1160  0.1271  0.0122
 6346TIP3    H140453   5.039   2.036  16.687  0.0638  1.7498 -0.9273
 6346TIP3    H240454   5.130   2.084  16.798  0.3029  2.2847 -1.3537
 6347TIP3   OH240455   3.347   5.426  16.389 -0.2576  0.2127  0.2361
 6347TIP3    H140456   3.411   5.496  16.386 -0.4595  0.3648 -0.8745
 6347TIP3    H240457   3.394   5.349  16.358 -0.9576  0.6407 -2.1175
 6348TIP3   OH240458   2.647   3.920   6.582 -0.0024  0.6541  0.1855
 6348TIP3    H140459   2.647   3.922   6.487  0.4098 -0.3954  0.1548
 6348TIP3    H240460   2.611   4.005   6.608  0.1394  1.0525 -0.8938
 6349TIP3   OH240461   4.918   6.253   0.805  0.4880  0.2173 -0.3663
 6349TIP3    H140462   4.827   6.280   0.792  0.1132 -0.1289  1.2405
 6349TIP3    H240463   4.964   6.286   0.728 -0.8305  1.2044 -0.7802
 6350TIP3   OH240464   6.689   4.197  15.512  0.1896  1.1435 -0.2287
 6350TIP3    H140465   6.757   4.181  15.447  0.4167 -2.3743  0.6718
 6350TIP3    H240466   6.735   4.190  15.596 -1.0527 -0.2236  0.3731
 6351TIP3   OH240467   5.525   5.081  13.410  0.2545 -0.0034  0.0624
 6351TIP3    H140468   5.463   5.142  13.369 -0.2959 -0.7474 -0.2280
 6351TIP3    H240469   5.520   5.002  13.356 -0.4342 -0.9755  1.5031
 6352TIP3   OH240470   3.051   6.303   3.319 -0.0111  0.3651 -0.3036
 6352TIP3    H140471   2.987   6.373   3.326  0.2936  0.6346 -0.1404
 6352TIP3    H240472   3.133   6.343   3.350  0.5805  0.4831 -1.9425
 6353TIP3   OH240473   1.662   0.650   1.354 -0.4651  0.3579  0.3426
 6353TIP3    H140474   1.575   0.678   1.325  0.0896  0.9074 -0.8456
 6353TIP3    H240475   1.691   0.719   1.414 -0.5241  0.5748  0.1224
 6354TIP3   OH240476   2.407   4.632  15.520  0.1107  0.2431 -1.2430
 6354TIP3    H140477   2.407   4.648  15.425  0.1090  0.4353 -1.2088
 6354TIP3    H240478   2.366   4.546  15.528  0.9690 -0.2101 -1.4914
 6355TIP3   OH240479   3.774   3.662   1.057 -0.6969  0.4034  0.0749
 6355TIP3    H140480   3.813   3.689   0.974 -0.5256 -0.4350 -0.1299
 6355TIP3    H240481   3.723   3.738   1.086 -0.3113  0.8951 -0.5197
 6356TIP3   OH240482   2.664   6.182  13.347  0.0757  0.0420  0.1524
 6356TIP3    H140483   2.655   6.159  13.440  0.2742 -1.5149 -0.1769
 6356TIP3    H240484   2.609   6.260  13.336  0.2463  0.4126  1.6189
 6357TIP3   OH240485   2.829   0.928   0.847 -0.1582 -0.1779 -0.1855
 6357TIP3    H140486   2.776   0.873   0.789 -0.3652 -0.8385  0.6069
 6357TIP3    H240487   2.912   0.880   0.856 -0.3577 -0.3974  0.5493
 6358TIP3   OH240488   0.446   2.146   5.963 -0.7530 -0.4406 -0.2817
 6358TIP3    H140489   0.450   2.230   6.009 -0.0601  0.1254 -1.3360
 6358TIP3    H240490   0.361   2.147   5.918 -0.6088 -0.1594 -0.5502
 6359TIP3   OH240491   6.633   4.170   2.608  0.2445  0.0781 -0.3962
 6359TIP3    H140492   6.648   4.223   2.686  1.4254  2.5914 -2.1954
 6359TIP3    H240493   6.709   4.112   2.604  0.2946  0.0940  0.1558
 6360TIP3   OH240494   1.662   5.083   3.576 -0.2146 -0.3480 -0.1816
 6360TIP3    H140495   1.608   5.133   3.638 -1.2806 -3.0442  1.2423
 6360TIP3    H240496   1.730   5.043   3.630  0.1132 -1.0839 -1.1095
 6361TIP3   OH240497   6.431   3.608  13.619  0.3187  0.0671  0.5763
 6361TIP3    H140498   6.353   3.553  13.628  0.5325  0.1618  4.8452
 6361TIP3    H240499   6.406   3.674  13.554 -2.2669 -1.2885  0.0569
 6362TIP3   OH240500   4.463   3.359  11.921  0.1298 -0.0950  0.6460
 6362TIP3    H140501   4.395   3.376  11.985 -1.5886 -1.0326 -0.8300
 6362TIP3    H240502   4.438   3.412  11.845  0.3670 -1.3084 -0.3197
 6363TIP3   OH240503   5.345   0.103   2.922 -0.0910 -0.0185  0.4634
 6363TIP3    H140504   5.262   0.151   2.914 -0.8416 -1.2595  0.4895
 6363TIP3    H240505   5.321   0.023   2.967  1.1408 -0.4087  0.4451
 6364TIP3   OH240506   3.962   1.012  16.878  0.5261  0.4487 -0.4089
 6364TIP3    H140507   3.993   1.075  16.813 -0.0107  0.8394 -0.3039
 6364TIP3    H240508   4.036   0.998  16.936  0.6831  0.9235 -0.4900
 6365TIP3   OH240509   1.656   1.294  12.875 -0.5447 -0.1570 -0.1760
 6365TIP3    H140510   1.716   1.219  12.877 -0.4343 -0.1173 -1.2045
 6365TIP3    H240511   1.686   1.351  12.946  0.7607 -0.0561 -0.7751
 6366TIP3   OH240512   1.303   4.525   6.155 -0.4401 -0.3776 -0.3199
 6366TIP3    H140513   1.386   4.556   6.189  0.7592 -0.5709 -2.8597
 6366TIP3    H240514   1.252   4.501   6.232  1.1065  1.5697  1.3828
 6367TIP3   OH240515   3.854   4.584  10.705  0.9450 -0.2836 -0.2078
 6367TIP3    H140516   3.860   4.504  10.653  0.6470 -0.9441  0.7489
 6367TIP3    H240517   3.926   4.639  10.673  0.5128 -0.4936 -1.5928
 6368TIP3   OH240518   0.721   1.439   3.407 -0.0552 -0.9984  0.1224
 6368TIP3    H140519   0.770   1.521   3.400 -0.2821 -0.8376  0.3891
 6368TIP3    H240520   0.785   1.371   3.387  0.1441 -0.7579 -0.0613
 6369TIP3   OH240521   3.713   5.444  13.249  0.1988  0.2924  0.0196
 6369TIP3    H140522   3.748   5.397  13.325  0.0605 -1.0298 -0.7232
 6369TIP3    H240523   3.690   5.376  13.186 -0.0082  1.3520 -1.0893
 6370TIP3   OH240524   0.111   4.587   2.619  0.8748  0.1124  0.7460
 6370TIP3    H140525   0.077   4.639   2.692 -0.1910 -0.1639  0.4734
 6370TIP3    H240526   0.142   4.506   2.661 -0.9360 -0.6125  0.8079
 6371TIP3   OH240527   2.740   4.600   1.055 -0.3475  0.2094 -0.2039
 6371TIP3    H140528   2.656   4.590   1.011 -0.3212  1.6192 -0.6283
 6371TIP3    H240529   2.805   4.578   0.987 -0.3436 -1.6940  0.3534
 6372TIP3   OH240530   6.532   5.968   0.053  0.1573  0.2028  0.5274
 6372TIP3    H140531   6.589   5.941  -0.018 -0.8958 -0.7168 -0.0007
 6372TIP3    H240532   6.484   5.889   0.077  1.0460  0.2673  2.8270
 6373TIP3   OH240533   0.949   5.121   5.859  0.3092  0.1635 -0.0702
 6373TIP3    H140534   1.023   5.172   5.826  1.1718 -0.5267  0.7699
 6373TIP3    H240535   0.947   5.043   5.803  0.2870  0.1227 -0.0123
 6374TIP3   OH240536   2.311   5.175   3.436 -0.1585  0.4093 -0.2304
 6374TIP3    H140537   2.302   5.269   3.418 -2.4458  0.4864  0.9313
 6374TIP3    H240538   2.389   5.169   3.492 -1.2635  1.9596  1.5818
 6375TIP3   OH240539   0.576   6.051  12.814 -0.2709  0.3177  0.5587
 6375TIP3    H140540   0.612   6.123  12.865  2.0635 -1.1142  1.0844
 6375TIP3    H240541   0.592   6.076  12.722  0.4221  0.5392  0.7307
 6376TIP3   OH240542   5.672   5.938   4.979 -0.2256  0.1631  0.8141
 6376TIP3    H140543   5.691   5.921   4.886  1.4368 -0.3770  1.2253
 6376TIP3    H240544   5.734   6.005   5.005  1.2076 -1.6055  2.1966
 6377TIP3   OH240545   3.149   3.993  14.297  0.1522 -0.3467  0.6135
 6377TIP3    H140546   3.064   4.019  14.331  0.7247  2.0426  0.3822
 6377TIP3    H240547   3.166   4.054  14.225  1.9509 -0.9085  0.5102
 6378TIP3   OH240548   1.310   3.876  15.275  0.4906  0.5933  0.0905
 6378TIP3    H140549   1.231   3.864  15.222  1.3346 -0.6601 -0.9424
 6378TIP3    H240550   1.295   3.821  15.353 -1.0643  2.9956  1.6364
 6379TIP3   OH240551   1.785   0.162   3.968  0.6848  0.1768 -0.1791
 6379TIP3    H140552   1.747   0.174   4.055 -0.0504 -0.5200 -0.3983
 6379TIP3    H240553   1.851   0.093   3.980 -0.3308 -0.8649 -0.4196
 6380TIP3   OH240554   5.469   3.527   3.125 -0.0416  0.1610  0.1168
 6380TIP3    H140555   5.452   3.604   3.179 -1.6612 -0.1886  0.1754
 6380TIP3    H240556   5.434   3.550   3.039 -1.2918 -0.7775  0.3493
 6381TIP3   OH240557   1.831   0.462  15.151 -0.3334  0.1054 -0.0733
 6381TIP3    H140558   1.777   0.443  15.227  0.4311 -0.2734  0.3821
 6381TIP3    H240559   1.913   0.416  15.167 -0.1240  0.1007 -1.0798
 6382TIP3   OH240560   5.308   5.542   3.067  0.1150 -0.2121 -0.4187
 6382TIP3    H140561   5.249   5.544   2.991 -0.4471 -0.7008 -0.0069
 6382TIP3    H240562   5.356   5.624   3.062  0.5223 -0.5017 -1.6411
 6383TIP3   OH240563   5.005   6.478   3.387  0.0548  0.2638  0.2974
 6383TIP3    H140564   4.998   6.474   3.482  1.2800  1.8860  0.4839
 6383TIP3    H240565   4.931   6.533   3.359  0.0378  0.2721  0.3584
 6384TIP3   OH240566   1.409   4.439   2.841  0.4874  0.1105 -0.2326
 6384TIP3    H140567   1.328   4.463   2.886  1.1693  0.5099  0.8213
 6384TIP3    H240568   1.400   4.346   2.824 -0.4475  0.2661 -0.6711
 6385TIP3   OH240569   4.770   0.995  12.696 -0.3336 -0.1650  0.0444
 6385TIP3    H140570   4.773   1.087  12.668 -0.7941  0.0041  0.5338
 6385TIP3    H240571   4.727   0.949  12.624  1.1035 -0.2372 -0.8024
 6386TIP3   OH240572   0.377   0.174   6.587 -0.1943  0.1405  0.0947
 6386TIP3    H140573   0.466   0.188   6.556  0.3445 -1.8999  0.6264
 6386TIP3    H240574   0.336   0.261   6.581  1.7983  1.1121 -0.1707
 6387TIP3   OH240575   0.196   0.030  11.250  0.2821 -0.0150  0.3968
 6387TIP3    H140576   0.110  -0.007  11.229  0.4608 -0.0163 -0.3603
 6387TIP3    H240577   0.246   0.022  11.169 -0.0031  2.8783 -0.1521
 6388TIP3   OH240578   4.823   1.024   4.711  0.2677  0.1537  0.3762
 6388TIP3    H140579   4.752   0.961   4.706 -0.5070  0.9761  0.7064
 6388TIP3    H240580   4.877   0.994   4.785  1.1341 -1.3054 -0.7791
 6389TIP3   OH240581   6.314   4.756   3.257 -0.2006 -0.2066  0.7023
 6389TIP3    H140582   6.253   4.782   3.188 -1.0178 -1.2265  1.0140
 6389TIP3    H240583   6.260   4.748   3.336  0.3259 -1.0711  0.9957
 6390TIP3   OH240584   3.852   0.980   1.340 -0.3862 -0.5532 -0.3005
 6390TIP3    H140585   3.870   0.889   1.318 -0.3071 -0.3587 -1.0498
 6390TIP3    H240586   3.764   0.996   1.307 -1.4564 -1.0720  2.0598
 6391TIP3   OH240587   4.552   2.273  11.619 -0.3932 -0.1384  0.1800
 6391TIP3    H140588   4.641   2.241  11.631 -0.1004  0.8945  0.8606
 6391TIP3    H240589   4.563   2.366  11.596 -1.3615  1.1487  4.2063
 6392TIP3   OH240590   0.589   2.050   4.839 -0.1873  0.1524 -0.2154
 6392TIP3    H140591   0.532   1.974   4.847  0.2443 -0.1603 -0.0552
 6392TIP3    H240592   0.619   2.068   4.928 -0.6550  0.8020 -0.1827
 6393TIP3   OH240593   1.335   4.819  14.652  0.3556  0.1112 -0.2043
 6393TIP3    H140594   1.363   4.897  14.700  2.4240 -0.6277 -0.0971
 6393TIP3    H240595   1.272   4.777  14.710 -1.0795  1.8454 -0.4259
 6394TIP3   OH240596   4.323   0.651  12.195 -0.2884 -0.1593  0.3008
 6394TIP3    H140597   4.283   0.670  12.110  1.5951  2.0871 -0.1948
 6394TIP3    H240598   4.399   0.596  12.173 -0.8586 -1.1815  0.7956
 6395TIP3   OH240599   5.137   4.687   2.931 -0.2573  0.5147  0.7233
 6395TIP3    H140600   5.168   4.661   2.845  1.2140 -1.3760  1.7313
 6395TIP3    H240601   5.192   4.762   2.955  1.2927 -0.6810  1.0862
 6396TIP3   OH240602   6.004   2.309  16.309 -0.3276  0.2219 -0.1788
 6396TIP3    H140603   6.082   2.338  16.355 -0.7128 -0.1254  0.7318
 6396TIP3    H240604   5.958   2.254  16.373 -0.5243 -0.8713 -1.2225
 6397TIP3   OH240605   4.335   5.281  11.897 -0.1967 -0.0068 -0.4546
 6397TIP3    H140606   4.302   5.292  11.807 -0.9790  2.8249  0.0557
 6397TIP3    H240607   4.257   5.291  11.951  0.3689 -1.0533  0.5794
 6398TIP3   OH240608   6.071   1.345  12.515  0.4140 -0.3571  0.8594
 6398TIP3    H140609   6.148   1.395  12.544 -0.4088  1.0039  0.7618
 6398TIP3    H240610   6.007   1.411  12.491  0.0874 -1.4330 -1.5514
 6399TIP3   OH240611   6.192   3.196  11.325  0.3231 -0.4247 -0.5307
 6399TIP3    H140612   6.145   3.229  11.402  0.0237 -1.1444 -0.4007
 6399TIP3    H240613   6.182   3.266  11.260 -1.2341 -0.6882 -0.6254
 6400TIP3   OH240614   3.601   3.852  14.502 -0.3222  0.1392  0.0589
 6400TIP3    H140615   3.636   3.940  14.488 -0.3908  0.3208  0.9424
 6400TIP3    H240616   3.516   3.852  14.459  0.5006 -0.1265 -1.6410
 6401TIP3   OH240617   5.250   3.141  16.269  0.0227  0.5523 -0.0829
 6401TIP3    H140618   5.294   3.226  16.269 -1.9311  1.6369 -1.8893
 6401TIP3    H240619   5.289   3.094  16.195 -1.6390  1.4817 -1.6304
 6402TIP3   OH240620   5.435   6.231   5.675  0.4008 -0.3667  0.5323
 6402TIP3    H140621   5.477   6.146   5.691  1.0900 -0.7127 -2.3796
 6402TIP3    H240622   5.508   6.293   5.671  0.3380 -0.3374 -0.9366
 6403TIP3   OH240623   6.661   5.113   3.223 -0.1017  0.3155 -0.0492
 6403TIP3    H140624   6.576   5.071   3.211 -0.7200  1.3507  0.5407
 6403TIP3    H240625   6.641   5.206   3.232  1.1101  0.5935 -0.0064
 6404TIP3   OH240626   3.315   0.467  12.469  0.0561 -0.4069 -0.1137
 6404TIP3    H140627   3.231   0.512  12.457  0.0038 -0.5415 -0.2629
 6404TIP3    H240628   3.380   0.538  12.472 -0.0390 -0.3142 -0.2215
 6405TIP3   OH240629   0.416   3.973  12.070 -0.7130 -0.1348  0.5620
 6405TIP3    H140630   0.396   3.902  12.009 -0.1362 -0.8755  1.2162
 6405TIP3    H240631   0.459   4.039  12.017  0.5028 -1.1114  0.2904
 6406TIP3   OH240632   4.814   1.468  11.622 -0.1106  0.1533  0.0322
 6406TIP3    H140633   4.900   1.449  11.586 -0.2204 -1.6298  0.5939
 6406TIP3    H240634   4.752   1.425  11.562 -0.5108  0.2536  0.3624
 6407TIP3   OH240635   4.727   2.635   1.067 -0.7894  0.3383 -0.2867
 6407TIP3    H140636   4.728   2.615   1.161  0.1440  0.4851 -0.2608
 6407TIP3    H240637   4.756   2.555   1.025  1.7479  1.1473 -0.2520
 6408TIP3   OH240638   5.130   2.043   4.429  0.0459 -0.1747 -0.3805
 6408TIP3    H140639   5.042   2.018   4.459  0.7848 -0.9159  1.3107
 6408TIP3    H240640   5.184   1.966   4.447  1.2845  0.6908 -0.2880
 6409TIP3   OH240641   2.151   5.156   4.758 -0.4592 -0.0367  0.5904
 6409TIP3    H140642   2.056   5.169   4.763 -0.4882 -0.1146  0.2204
 6409TIP3    H240643   2.188   5.240   4.787 -0.6423  0.2961 -0.1271
 6410TIP3   OH240644   3.500   3.389   1.511 -0.2324 -0.4647  0.4201
 6410TIP3    H140645   3.516   3.307   1.465 -2.0926  0.0953 -1.3881
 6410TIP3    H240646   3.521   3.370   1.602  1.5114 -2.2800 -0.2904
 6411TIP3   OH240647   3.215   6.662   5.756 -0.0659 -0.4158 -0.1146
 6411TIP3    H140648   3.172   6.593   5.806 -0.1764  0.0870  0.5093
 6411TIP3    H240649   3.172   6.662   5.671  1.5863 -2.7409 -1.0482
 6412TIP3   OH240650   4.770   5.870   3.941 -0.2166  0.0761 -0.3787
 6412TIP3    H140651   4.821   5.835   3.867  0.4918  0.8683 -0.2858
 6412TIP3    H240652   4.699   5.807   3.952 -0.0627 -0.3179 -1.4230
 6413TIP3   OH240653   2.287   5.136  15.331 -0.0698 -0.1805  0.5622
 6413TIP3    H140654   2.246   5.173  15.409 -0.7308 -1.1937  0.7095
 6413TIP3    H240655   2.346   5.068  15.364  1.6516  1.1386  0.3399
 6414TIP3   OH240656   4.917   2.546  11.595 -0.0644 -0.1220 -0.0999
 6414TIP3    H140657   4.836   2.564  11.547 -0.5299 -2.3293 -0.2600
 6414TIP3    H240658   4.889   2.508  11.678  0.7967 -0.6466 -0.0298
 6415TIP3   OH240659   4.807   4.139   0.686 -0.3017  0.3861  0.1781
 6415TIP3    H140660   4.802   4.222   0.734  0.2890 -0.5556  1.9446
 6415TIP3    H240661   4.725   4.095   0.705  0.4791 -0.5666  1.4765
 6416TIP3   OH240662   5.169   5.340   2.607  0.4718  0.0205 -0.8198
 6416TIP3    H140663   5.247   5.290   2.583  0.4378  0.2865 -1.5204
 6416TIP3    H240664   5.099   5.275   2.614  0.5490 -0.1010 -1.1638
 6417TIP3   OH240665   5.043   2.417  15.991 -0.1747  0.2074  0.2598
 6417TIP3    H140666   5.014   2.400  15.901  0.3884  0.8928 -0.0531
 6417TIP3    H240667   5.135   2.440  15.983 -0.6595  2.5589  0.7514
 6418TIP3   OH240668   4.168   2.483   2.818 -0.1545  0.1180  0.3147
 6418TIP3    H140669   4.170   2.483   2.722 -1.2367  1.0124  0.2722
 6418TIP3    H240670   4.258   2.467   2.844  0.5137  1.7861 -0.8585
 6419TIP3   OH240671   5.162   1.064   3.022  0.1471 -0.2672  0.2574
 6419TIP3    H140672   5.187   0.978   2.988  0.4602 -0.4540  0.9474
 6419TIP3    H240673   5.154   1.119   2.944 -1.5462 -1.2775 -0.3583
 6420TIP3   OH240674   6.537   0.703   1.220  0.5038 -0.6540  0.2069
 6420TIP3    H140675   6.535   0.781   1.165 -0.6769  1.3329  2.8392
 6420TIP3    H240676   6.624   0.704   1.261  0.2495 -0.3259  0.7449
 6421TIP3   OH240677   1.418   1.918  14.889  0.3621  0.4354  0.3575
 6421TIP3    H140678   1.363   1.976  14.942  0.8074  1.9923 -0.8164
 6421TIP3    H240679   1.463   1.862  14.953 -1.2784  0.2657  1.4223
 6422TIP3   OH240680   1.002   4.770   0.682  0.0571  0.2879 -0.2301
 6422TIP3    H140681   1.051   4.837   0.730  2.0228 -1.3861  0.2435
 6422TIP3    H240682   0.929   4.748   0.741 -1.2689  2.6520 -0.8433
 6423TIP3   OH240683   4.481   6.085   0.965 -0.5396  0.3175 -0.2626
 6423TIP3    H140684   4.536   6.162   0.978 -0.5062  0.3358 -0.5184
 6423TIP3    H240685   4.536   6.011   0.991  0.0069  0.2306 -1.5908
 6424TIP3   OH240686   6.343   2.416  14.675  0.1736  0.2435 -0.1693
 6424TIP3    H140687   6.432   2.447  14.693 -0.8012  2.2210  1.8088
 6424TIP3    H240688   6.340   2.327  14.710  0.9895  0.6978  1.1173
 6425TIP3   OH240689   3.686   2.464  13.360 -0.0398 -0.1320  0.3279
 6425TIP3    H140690   3.714   2.435  13.274  0.8229  1.5721 -0.0154
 6425TIP3    H240691   3.593   2.485  13.350 -0.6783 -2.5638  0.5829
 6426TIP3   OH240692   5.314   2.530  16.003  0.2057 -0.2329  0.0384
 6426TIP3    H140693   5.378   2.462  16.022 -2.0268 -2.2714  0.8231
 6426TIP3    H240694   5.346   2.572  15.923  2.9730 -0.4531  0.9337
 6427TIP3   OH240695   0.663   3.532   5.948  0.0012 -0.3693  0.2067
 6427TIP3    H140696   0.583   3.556   5.901  0.6713 -0.7350 -1.2025
 6427TIP3    H240697   0.635   3.514   6.037 -1.2690  0.8141  0.0687
 6428TIP3   OH240698   2.985   0.891  15.956  0.4454  0.0404  0.2751
 6428TIP3    H140699   2.892   0.879  15.934  1.0790 -0.0502 -2.7835
 6428TIP3    H240700   2.998   0.837  16.034 -2.1338  0.3494  1.0040
 6429TIP3   OH240701   1.922   2.297   5.438 -0.1759  0.0052 -0.0148
 6429TIP3    H140702   1.888   2.336   5.519  2.5694  0.0346  1.2079
 6429TIP3    H240703   1.933   2.204   5.458 -1.4198 -0.4103 -1.0914
 6430TIP3   OH240704   1.065   6.235   1.474  0.4559  0.2841 -0.2483
 6430TIP3    H140705   1.134   6.274   1.420 -0.0685  0.5082 -0.7644
 6430TIP3    H240706   1.031   6.308   1.526  0.5338  0.1974 -0.0759
 6431TIP3   OH240707   1.099   4.270  11.230 -0.7151  0.6138 -0.7362
 6431TIP3    H140708   1.109   4.328  11.154  1.1499  0.0502 -0.9664
 6431TIP3    H240709   1.017   4.299  11.271 -2.2906  0.3343 -3.4441
 6432TIP3   OH240710   0.076   3.810  15.579  0.4418 -0.3318 -0.2832
 6432TIP3    H140711   0.123   3.893  15.587  3.3901 -1.5780 -2.6548
 6432TIP3    H240712   0.070   3.778  15.668  2.5137  0.8075  0.3426
 6433TIP3   OH240713   3.162   2.093   4.149  0.4012 -0.3630  0.3307
 6433TIP3    H140714   3.118   2.019   4.190  0.8448 -0.4803  0.6083
 6433TIP3    H240715   3.250   2.060   4.128 -0.1789 -0.6698 -1.8067
 6434TIP3   OH240716   1.942   5.807   0.453  0.9109 -0.1248  0.0194
 6434TIP3    H140717   1.927   5.867   0.526  2.1131 -1.8277  1.7855
 6434TIP3    H240718   1.884   5.838   0.384 -0.5329  1.3858  1.7941
 6435TIP3   OH240719   1.132   1.535   1.629  0.1965  0.5757 -0.1830
 6435TIP3    H140720   1.160   1.447   1.652 -0.9729  0.3357  0.3741
 6435TIP3    H240721   1.047   1.523   1.587 -0.2820  1.4981  0.5062
 6436TIP3   OH240722   6.301   5.543   3.967 -0.3647 -0.3910  0.2019
 6436TIP3    H140723   6.386   5.504   3.949 -0.6810 -0.9839 -0.0219
 6436TIP3    H240724   6.298   5.621   3.911  0.0166 -0.3779  0.1963
 6437TIP3   OH240725   1.755   4.454   3.281 -0.1211  0.1682 -0.5772
 6437TIP3    H140726   1.813   4.476   3.354 -0.1808 -1.4638  0.0131
 6437TIP3    H240727   1.741   4.360   3.290 -2.6721  0.4648 -0.8357
 6438TIP3   OH240728   0.543   2.439  13.892  0.3050 -0.0365 -0.1797
 6438TIP3    H140729   0.491   2.367  13.926 -1.0146  0.6970 -0.5622
 6438TIP3    H240730   0.595   2.469  13.967 -1.6287  0.7538  0.8994
 6439TIP3   OH240731   2.007   3.627   5.787 -0.4375 -0.2566 -0.1886
 6439TIP3    H140732   2.094   3.595   5.809  0.0296  0.8291 -0.3976
 6439TIP3    H240733   2.010   3.644   5.693 -1.1585 -1.0527 -0.3632
 6440TIP3   OH240734   3.210   4.457  11.588 -0.1275  0.1598  0.2001
 6440TIP3    H140735   3.246   4.442  11.500  1.9019 -0.0777  1.0208
 6440TIP3    H240736   3.151   4.383  11.602 -1.1318  0.6451 -1.2742
 6441TIP3   OH240737   1.986   0.751  16.628  0.1495 -0.5132  0.5083
 6441TIP3    H140738   1.960   0.661  16.647  1.5114 -1.4370 -1.6441
 6441TIP3    H240739   1.986   0.757  16.533  0.4531  1.6783  0.5952
 6442TIP3   OH240740   3.419   5.839  16.969 -0.3449  0.2357 -0.3818
 6442TIP3    H140741   3.428   5.863  16.876  1.1119  1.1242 -0.0458
 6442TIP3    H240742   3.417   5.743  16.969 -0.2361  0.2235 -1.3334
 6443TIP3   OH240743   2.093   6.471  14.701  0.1634  0.2447 -0.2344
 6443TIP3    H140744   2.015   6.526  14.694 -0.2866 -0.2924  0.5198
 6443TIP3    H240745   2.114   6.470  14.794 -0.4021 -1.6249 -0.0915
 6444TIP3   OH240746   0.605   6.624   4.900 -0.4567 -0.1518 -0.7949
 6444TIP3    H140747   0.523   6.601   4.943 -0.1889  0.1573 -0.1085
 6444TIP3    H240748   0.638   6.540   4.867  0.3463 -0.7813  1.4040
 6445TIP3   OH240749   4.061   2.615   2.117  0.3754  0.4353 -0.4945
 6445TIP3    H140750   3.988   2.554   2.106  0.6713  0.1664 -1.0053
 6445TIP3    H240751   4.042   2.661   2.199 -0.1986  0.1375 -0.4578
 6446TIP3   OH240752   5.690   0.301  14.568  0.4941 -0.0375 -0.0890
 6446TIP3    H140753   5.735   0.287  14.652 -2.6701  1.1631  1.9755
 6446TIP3    H240754   5.647   0.217  14.551 -0.1856  0.2058  0.3871
 6447TIP3   OH240755   5.285   1.940   2.016 -0.1721 -0.5314 -0.1130
 6447TIP3    H140756   5.287   1.928   1.921 -0.7228 -0.2131 -0.1668
 6447TIP3    H240757   5.311   2.031   2.029  1.9353 -1.1240  0.1743
 6448TIP3   OH240758   5.711   5.835   1.737 -0.8467  0.2570  0.5651
 6448TIP3    H140759   5.663   5.918   1.725  1.1212  1.3790  0.0313
 6448TIP3    H240760   5.697   5.787   1.656  0.6192  1.5190 -0.4871
 6449TIP3   OH240761   1.811   0.759   4.177 -0.1284 -0.7483 -0.0231
 6449TIP3    H140762   1.887   0.795   4.132 -0.8017 -0.9955 -1.4361
 6449TIP3    H240763   1.827   0.774   4.270  0.7919  0.8287 -0.4196
 6450TIP3   OH240764   2.035   4.150   0.642 -0.1898  0.1051  0.1891
 6450TIP3    H140765   2.071   4.233   0.672 -0.5118  0.0023  0.8822
 6450TIP3    H240766   1.952   4.174   0.600  0.4781  0.3004 -1.0836
 6451TIP3   OH240767   4.990   2.888   4.254 -0.2109  0.0676 -0.1241
 6451TIP3    H140768   4.900   2.921   4.256  0.2157  1.2246  0.4998
 6451TIP3    H240769   4.979   2.793   4.254 -1.4685  0.1389 -2.1397
 6452TIP3   OH240770   5.239   0.851  11.738 -0.4845  0.2582  0.5415
 6452TIP3    H140771   5.164   0.791  11.731 -0.1806  0.0226 -1.1862
 6452TIP3    H240772   5.304   0.802  11.789 -0.2551 -0.9352 -0.8149
 6453TIP3   OH240773   1.856   6.528   5.412 -0.2722 -0.0505 -0.3044
 6453TIP3    H140774   1.809   6.455   5.452 -0.4715 -1.0928 -2.2938
 6453TIP3    H240775   1.796   6.562   5.345  0.5890  0.6462 -0.7547
 6454TIP3   OH240776   1.747   5.836  12.378 -0.1688  0.0639 -0.0112
 6454TIP3    H140777   1.790   5.787  12.448  1.8754  0.4841 -0.8965
 6454TIP3    H240778   1.676   5.778  12.348  0.0333 -0.8564  1.2071
 6455TIP3   OH240779   6.437   2.835  11.958  0.2170 -0.0044 -0.3839
 6455TIP3    H140780   6.376   2.879  11.899  2.0225  1.4224 -1.2736
 6455TIP3    H240781   6.522   2.843  11.915  1.3617 -0.2356  1.7058
 6456TIP3   OH240782   2.826   1.133  14.628 -0.1436 -0.1556 -0.1532
 6456TIP3    H140783   2.796   1.183  14.704 -0.2002 -0.6901  0.1757
 6456TIP3    H240784   2.843   1.200  14.562  1.7537  0.5013  0.9259
 6457TIP3   OH240785   2.367   0.032  15.059  0.0250 -0.1148  0.0817
 6457TIP3    H140786   2.328  -0.036  15.115 -0.5505  1.3060  1.4707
 6457TIP3    H240787   2.302   0.045  14.990 -0.2296 -0.3966  0.2617
 6458TIP3   OH240788   0.903   0.087   0.722 -0.5147  0.0604 -0.3100
 6458TIP3    H140789   0.894   0.096   0.627  3.0088  2.4338 -0.6380
 6458TIP3    H240790   0.925  -0.005   0.736  2.4494  0.3141 -2.3782
 6459TIP3   OH240791   6.625   0.735  12.230 -0.3533 -0.2485 -0.5785
 6459TIP3    H140792   6.664   0.689  12.156  1.0209  0.4944 -0.3549
 6459TIP3    H240793   6.577   0.668  12.278 -0.4644 -0.9268 -1.6233
 6460TIP3   OH240794   4.740   1.017  11.341 -0.2486 -0.2030 -0.2846
 6460TIP3    H140795   4.761   0.948  11.404 -0.7677 -0.7968 -0.7570
 6460TIP3    H240796   4.797   1.000  11.266 -0.2804 -0.0284 -0.3494
 6461TIP3   OH240797   5.213   2.716   4.676  0.0267 -0.0046 -0.4387
 6461TIP3    H140798   5.194   2.658   4.750  0.0187  2.0869  1.3021
 6461TIP3    H240799   5.263   2.662   4.615 -0.0832 -1.8516  1.0261
 6462TIP3   OH240800   6.231   1.199   3.730 -0.0047 -0.0601 -0.4398
 6462TIP3    H140801   6.239   1.268   3.664  1.2563  2.2008  1.8814
 6462TIP3    H240802   6.288   1.128   3.699 -0.9020  0.1310 -2.6246
 6463TIP3   OH240803   3.193   6.421  13.535  0.0716 -0.5821  0.4908
 6463TIP3    H140804   3.278   6.410  13.493 -0.4855 -2.7387 -0.2194
 6463TIP3    H240805   3.168   6.332  13.562 -2.7862 -0.3483 -1.0124
 6464TIP3   OH240806   2.502   4.074   4.954 -0.2736  0.0993 -0.6187
 6464TIP3    H140807   2.583   4.122   4.935  0.0247 -0.9233 -2.1382
 6464TIP3    H240808   2.436   4.119   4.902 -1.1404  2.0367  1.9596
 6465TIP3   OH240809   0.863   0.894  12.001 -0.8144 -0.6662 -0.2432
 6465TIP3    H140810   0.940   0.920  11.950 -0.1670 -2.1171 -0.0532
 6465TIP3    H240811   0.789   0.927  11.950 -0.0883  0.5265 -0.5683
 6466TIP3   OH240812   0.808   2.908   6.465  0.2129 -0.2497  0.3131
 6466TIP3    H140813   0.813   2.814   6.479 -0.8668 -0.7777 -2.2443
 6466TIP3    H240814   0.899   2.936   6.456  0.5886 -0.8460  1.9929
 6467TIP3   OH240815   3.653   3.926   2.696 -0.0115 -0.1636 -0.4276
 6467TIP3    H140816   3.749   3.926   2.700  0.0308 -1.6496 -1.0537
 6467TIP3    H240817   3.633   3.951   2.606 -0.1715 -1.4744 -0.7615
 6468TIP3   OH240818   2.252   1.767  14.451 -0.1621  0.0446 -0.4257
 6468TIP3    H140819   2.310   1.822  14.399 -0.0845 -2.0868 -2.8086
 6468TIP3    H240820   2.173   1.819  14.463  1.1328  1.8990  0.3607
 6469TIP3   OH240821   0.815   0.995  15.485 -0.2817  0.2732  0.6823
 6469TIP3    H140822   0.832   0.961  15.572  0.4617  1.1460  0.8915
 6469TIP3    H240823   0.863   0.938  15.426  0.8305  0.8415  1.0153
 6470TIP3   OH240824   6.523   4.099   1.580 -0.1273 -0.2813 -0.3928
 6470TIP3    H140825   6.598   4.159   1.573 -0.8603  0.6876 -0.1222
 6470TIP3    H240826   6.467   4.122   1.506 -0.5022 -0.5018 -0.1807
 6471TIP3   OH240827   1.411   5.440  13.381  0.2980 -0.5452 -0.4418
 6471TIP3    H140828   1.322   5.457  13.350  0.4468  0.7428 -0.2205
 6471TIP3    H240829   1.452   5.526  13.386  1.1778 -0.9931  0.6052
 6472TIP3   OH240830   3.449   3.673   1.537 -0.5711 -0.2691  0.5779
 6472TIP3    H140831   3.453   3.586   1.496  1.7328  0.5644 -1.2050
 6472TIP3    H240832   3.518   3.672   1.603  1.4137  0.9608 -1.3241
 6473TIP3   OH240833   2.641   3.134  17.034  0.1069  0.1724  0.4357
 6473TIP3    H140834   2.732   3.150  17.056 -0.0637  0.8886  0.6380
 6473TIP3    H240835   2.591   3.188  17.095 -0.4657 -0.4437  0.5307
 6474TIP3   OH240836   0.670   3.972  13.455  0.0508 -0.5675 -0.0294
 6474TIP3    H140837   0.614   3.997  13.381  0.7121 -1.3431 -0.7957
 6474TIP3    H240838   0.755   4.010  13.434  0.7008 -2.2284 -0.5277
 6475TIP3   OH240839   0.015   3.530  16.965 -0.0043  0.1739 -0.5265
 6475TIP3    H140840   0.108   3.514  16.952  0.1156  0.7985 -0.4961
 6475TIP3    H240841  -0.007   3.596  16.899 -0.3757  0.1747 -0.4035
 6476TIP3   OH240842   1.219   0.192   3.586  0.0256 -0.6744 -0.0692
 6476TIP3    H140843   1.263   0.111   3.613  0.1468 -0.5919 -0.0197
 6476TIP3    H240844   1.288   0.258   3.586  0.1991 -0.8375 -1.3906
 6477TIP3   OH240845   4.155   2.556   6.108  0.0222 -0.0271  0.8956
 6477TIP3    H140846   4.182   2.467   6.089 -0.4947 -0.0334  0.1583
 6477TIP3    H240847   4.078   2.547   6.164 -0.5552 -0.0637  0.1073
 6478TIP3   OH240848   2.915   2.849  11.923  0.1276  0.1943 -1.2531
 6478TIP3    H140849   2.908   2.854  12.018 -0.3930 -2.3698 -1.0930
 6478TIP3    H240850   2.993   2.796  11.907  1.0152  1.7524 -2.3262
 6479TIP3   OH240851   2.441   4.014   2.260  0.9863  0.1981  0.3854
 6479TIP3    H140852   2.470   4.031   2.350  4.0208 -2.2053  0.0660
 6479TIP3    H240853   2.495   3.940   2.232 -2.3274 -1.4775 -2.2537
 6480TIP3   OH240854   1.522   2.382  11.542  0.0179  1.0479 -0.0300
 6480TIP3    H140855   1.521   2.462  11.490 -1.0749  0.7144 -0.5647
 6480TIP3    H240856   1.497   2.313  11.481  1.5728  0.1768  0.2661
 6481TIP3   OH240857   6.192   0.098  10.900  0.2234  0.1693 -0.0325
 6481TIP3    H140858   6.129   0.059  10.839 -0.5137  0.4106  0.5641
 6481TIP3    H240859   6.261   0.032  10.909 -0.7876 -0.8139  0.6225
 6482TIP3   OH240860   2.752   3.678  11.852 -0.1709  0.1804  0.2525
 6482TIP3    H140861   2.723   3.761  11.891 -1.4445 -0.9359  1.8554
 6482TIP3    H240862   2.836   3.698  11.811 -0.1833  2.1286  1.0805
 6483TIP3   OH240863   0.447   2.015   3.382 -0.2294  0.2872 -0.0782
 6483TIP3    H140864   0.378   2.051   3.325  0.1571  0.6962 -0.2849
 6483TIP3    H240865   0.521   2.001   3.324 -1.0671 -3.1147 -0.5919
 6484TIP3   OH240866   0.557   4.262   2.230 -0.2487 -0.3796  0.1144
 6484TIP3    H140867   0.573   4.310   2.149 -2.0724  0.2273  0.0630
 6484TIP3    H240868   0.508   4.184   2.203 -0.5423 -0.3659  0.5909
 6485TIP3   OH240869   1.927   6.019   3.530  0.7915  0.1512 -0.1037
 6485TIP3    H140870   1.836   5.998   3.512  0.2771  1.7768  0.4286
 6485TIP3    H240871   1.957   6.064   3.451  1.4936 -1.3288 -0.7193
 6486TIP3   OH240872   1.354   4.000  17.296 -0.0414 -0.4446  0.1121
 6486TIP3    H140873   1.441   4.031  17.325 -0.6288 -0.0841  1.6081
 6486TIP3    H240874   1.320   4.072  17.242  0.3286 -0.3072  0.0547
 6487TIP3   OH240875   3.069   3.416   5.513  0.1712  0.0506 -0.4695
 6487TIP3    H140876   3.150   3.459   5.538 -0.2379 -0.5430  2.1652
 6487TIP3    H240877   3.083   3.388   5.422  2.8753 -0.0083 -0.1078
 6488TIP3   OH240878   4.483   4.336   1.776 -0.7835 -0.2595  0.8699
 6488TIP3    H140879   4.460   4.249   1.809 -0.2324 -1.5873 -1.9427
 6488TIP3    H240880   4.426   4.348   1.700  1.0728  0.6088 -0.4398
 6489TIP3   OH240881   4.467   1.806   2.651  0.3314  0.1429 -0.1950
 6489TIP3    H140882   4.401   1.755   2.698  0.4952  0.3630  0.2861
 6489TIP3    H240883   4.456   1.895   2.684 -0.2315  0.5165 -1.3301
 6490TIP3   OH240884   6.559   5.588   2.578  0.2927 -0.1786 -0.0617
 6490TIP3    H140885   6.538   5.680   2.593 -1.1026 -0.4914 -0.0286
 6490TIP3    H240886   6.477   5.541   2.594  1.1683 -1.5180  0.6938
 6491TIP3   OH240887   5.093   5.974  15.939 -0.4633 -0.1269  0.3650
 6491TIP3    H140888   5.175   5.943  15.901 -0.1165 -0.3871  1.2939
 6491TIP3    H240889   5.046   6.015  15.866  0.8046  0.6879 -0.0218
 6492TIP3   OH240890   3.155   1.979   5.528  0.7606 -0.0371  0.0422
 6492TIP3    H140891   3.241   1.961   5.488  1.1120  0.1819  0.6867
 6492TIP3    H240892   3.172   2.050   5.589  0.4529 -1.0331  1.3280
 6493TIP3   OH240893   1.907   4.881   4.829  0.2922 -0.0666 -0.1589
 6493TIP3    H140894   1.982   4.880   4.770 -0.4001 -0.9048 -1.0481
 6493TIP3    H240895   1.843   4.937   4.786 -0.1248 -0.4848 -0.0844
 6494TIP3   OH240896   0.968   4.733   3.897 -0.1180  0.5520  0.4132
 6494TIP3    H140897   1.035   4.669   3.921  0.4262  0.9752  0.0606
 6494TIP3    H240898   1.008   4.818   3.915 -0.6699  0.8038  0.4740
 6495TIP3   OH240899   2.409   4.250  15.066 -0.6412  0.4422 -0.0587
 6495TIP3    H140900   2.369   4.282  15.147 -1.8340 -0.4466 -0.2662
 6495TIP3    H240901   2.476   4.315  15.045  1.4220 -0.4786  2.9276
 6496TIP3   OH240902   0.546   1.842   3.574 -0.1153 -0.3102  0.7291
 6496TIP3    H140903   0.571   1.907   3.640 -1.9285 -0.1677  1.3310
 6496TIP3    H240904   0.500   1.892   3.506 -0.0084 -0.7303  0.3396
 6497TIP3   OH240905   6.661   0.389  14.571  0.4141  0.1459  0.3201
 6497TIP3    H140906   6.652   0.483  14.563 -0.7249  0.0426  0.2623
 6497TIP3    H240907   6.726   0.377  14.641 -0.0733  0.9666  0.9250
 6498TIP3   OH240908   4.315   1.355  14.233  0.1175 -0.5447 -0.2184
 6498TIP3    H140909   4.369   1.280  14.254  1.8741  0.9729  0.9486
 6498TIP3    H240910   4.311   1.406  14.314 -0.0344  1.2078 -1.2782
 6499TIP3   OH240911   1.327   4.998   5.866 -0.7945  0.1297 -0.5137
 6499TIP3    H140912   1.241   5.016   5.826 -1.7067 -0.7025  0.9996
 6499TIP3    H240913   1.307   4.952   5.947  0.9632  2.1325  1.1867
 6500TIP3   OH240914   1.610   6.060  15.604  0.4310 -0.1260  0.1782
 6500TIP3    H140915   1.590   6.146  15.642  2.4937 -0.5217  2.4277
 6500TIP3    H240916   1.703   6.063  15.583  0.4024 -1.5897 -0.3104
 6501TIP3   OH240917   0.925   0.962   5.143 -0.1652 -0.1470 -0.1434
 6501TIP3    H140918   0.841   0.998   5.171  0.4380  0.1620  1.3250
 6501TIP3    H240919   0.983   1.039   5.138  0.8648 -0.7039  2.0414
 6502TIP3   OH240920   3.661   0.648   3.686 -0.5564 -0.1265 -0.3116
 6502TIP3    H140921   3.642   0.554   3.681  2.2935 -0.9258  1.5362
 6502TIP3    H240922   3.651   0.669   3.779 -1.1925  1.4542 -0.7093
 6503TIP3   OH240923   1.895   5.326   5.340 -0.5333 -0.2217 -0.8308
 6503TIP3    H140924   1.868   5.258   5.402 -0.8455 -1.9405 -2.7522
 6503TIP3    H240925   1.973   5.365   5.380  0.1627 -2.2937 -0.0399
 6504TIP3   OH240926   1.995   2.810  17.317  0.3820  0.4502 -0.4285
 6504TIP3    H140927   2.077   2.839  17.357  0.5475 -1.7087  0.9418
 6504TIP3    H240928   2.022   2.766  17.236  0.3945  1.1142 -0.8006
 6505TIP3   OH240929   1.042   2.283  15.040  0.4805  0.6944  0.1476
 6505TIP3    H140930   1.004   2.319  14.961  0.7132  0.2701 -0.1625
 6505TIP3    H240931   0.982   2.310  15.110 -0.1214  0.4677 -0.2658
 6506TIP3   OH240932   4.787   2.055   1.993 -0.3843 -0.5080 -0.8519
 6506TIP3    H140933   4.795   1.968   2.031  0.7037 -0.7343 -1.5424
 6506TIP3    H240934   4.772   2.113   2.067  0.5499 -1.0831 -0.1984
 6507TIP3   OH240935   0.319   2.467  11.253 -0.0547  0.2834  0.3306
 6507TIP3    H140936   0.401   2.507  11.225  0.6927 -0.7376  0.9794
 6507TIP3    H240937   0.313   2.488  11.346 -1.4205  1.7935 -0.0414
 6508TIP3   OH240938   4.318   0.444  12.568  0.2581  0.4192  0.0391
 6508TIP3    H140939   4.370   0.525  12.568 -0.2850  0.7691 -0.2397
 6508TIP3    H240940   4.230   0.472  12.544  0.3285 -0.4230 -1.3022
 6509TIP3   OH240941   5.330   6.753  16.782 -0.1789  0.2984  0.4740
 6509TIP3    H140942   5.411   6.751  16.832  0.4308  0.7073 -0.4679
 6509TIP3    H240943   5.355   6.724  16.695 -0.4901  2.8080 -0.5530
 6510TIP3   OH240944   3.352   0.483  11.798  0.0998  0.0871 -0.0845
 6510TIP3    H140945   3.389   0.432  11.726 -0.2502  1.9179 -1.6561
 6510TIP3    H240946   3.283   0.536  11.757 -0.6828  0.5865  1.7695
 6511TIP3   OH240947   5.442   5.485  12.151  0.3841 -0.2010 -0.1686
 6511TIP3    H140948   5.399   5.418  12.098 -0.5729  0.3356 -0.0850
 6511TIP3    H240949   5.495   5.435  12.213  1.9548 -0.8461 -1.9194
 6512TIP3   OH240950   5.694   1.313  12.455  0.0790  0.1048  0.2041
 6512TIP3    H140951   5.603   1.284  12.454 -0.2769  1.1908 -1.2173
 6512TIP3    H240952   5.744   1.235  12.429 -0.6167  0.0091 -0.8730
 6513TIP3   OH240953   5.989   1.554   4.891 -0.2301 -0.1913 -0.1525
 6513TIP3    H140954   5.898   1.529   4.872 -0.5725  1.1738 -0.4550
 6513TIP3    H240955   6.027   1.573   4.805 -0.4385  1.6822  0.1312
 6514TIP3   OH240956   2.274   3.498  13.568  0.5882 -0.4330  0.3419
 6514TIP3    H140957   2.225   3.417  13.583 -1.8344  0.7685 -0.5470
 6514TIP3    H240958   2.301   3.492  13.477  1.6461 -0.8408  0.6746
 6515TIP3   OH240959   0.663   4.146   0.234  0.2723  0.2660 -0.2524
 6515TIP3    H140960   0.650   4.182   0.146 -1.4826  0.7063  0.1490
 6515TIP3    H240961   0.756   4.125   0.238  0.6808  1.6153 -1.7048
 6516TIP3   OH240962   0.652   6.203  13.092  0.0443 -0.2083  0.2936
 6516TIP3    H140963   0.738   6.217  13.054  0.4780 -1.2441  0.8495
 6516TIP3    H240964   0.591   6.215  13.018  0.8053 -1.3973 -0.5758
 6517TIP3   OH240965   5.484   4.330   3.693 -0.2961 -0.3685  0.5869
 6517TIP3    H140966   5.556   4.323   3.755  0.4985  0.4938 -0.2128
 6517TIP3    H240967   5.421   4.388   3.736  2.0332  3.6745 -0.9149
 6518TIP3   OH240968   3.360   1.804   5.402 -0.3363  0.3051  0.3343
 6518TIP3    H140969   3.392   1.775   5.487  2.7314 -0.5678 -0.9637
 6518TIP3    H240970   3.425   1.771   5.339 -0.3025  4.1251 -2.0046
 6519TIP3   OH240971   0.905   5.512  11.260  0.0182 -0.4763  0.2950
 6519TIP3    H140972   0.853   5.504  11.180 -0.0020 -0.3663  0.2972
 6519TIP3    H240973   0.884   5.599  11.293  1.8648  0.4714 -0.8732
 6520TIP3   OH240974   5.608   2.236  16.658 -0.3431  0.1479 -0.1132
 6520TIP3    H140975   5.554   2.159  16.673 -0.5213  0.6519  2.3068
 6520TIP3    H240976   5.546   2.306  16.638 -0.3175  0.0616 -0.5071
 6521TIP3   OH240977   5.014   2.305  13.953 -0.0867  0.0157 -0.2401
 6521TIP3    H140978   5.018   2.253  14.033  0.7985  0.8627  0.2845
 6521TIP3    H240979   5.105   2.311  13.923 -0.4750 -0.8338 -1.6804
 6522TIP3   OH240980   6.214   5.610   2.981 -0.2020  0.5538 -0.3716
 6522TIP3    H140981   6.296   5.657   2.968 -0.7365  1.2212 -1.4564
 6522TIP3    H240982   6.152   5.650   2.920 -1.3173 -0.0067  0.3318
 6523TIP3   OH240983   0.790   3.365   3.471 -0.1834  0.1947 -0.6514
 6523TIP3    H140984   0.850   3.294   3.448 -0.0969  0.8935 -2.8378
 6523TIP3    H240985   0.824   3.399   3.554  0.7974 -1.1743 -0.4575
 6524TIP3   OH240986   6.737   4.664  12.613 -0.2186 -0.0818 -0.2616
 6524TIP3    H140987   6.702   4.603  12.549  0.9598 -0.9467 -0.1258
 6524TIP3    H240988   6.826   4.683  12.582  0.0310  0.2172  0.6061
 6525TIP3   OH240989   5.309   2.032   3.330  0.8015  0.4134  0.3938
 6525TIP3    H140990   5.274   1.944   3.316  0.7013  0.5797 -0.4884
 6525TIP3    H240991   5.335   2.061   3.242  0.7523  1.2971  0.6676
 6526TIP3   OH240992   0.577   0.579  12.269 -0.2859 -0.4994 -0.3209
 6526TIP3    H140993   0.658   0.629  12.265 -0.2471 -0.6022 -1.0288
 6526TIP3    H240994   0.535   0.607  12.351 -0.4884  1.0563 -0.9136
 6527TIP3   OH240995   3.067   2.697   1.005 -0.2272 -0.4130 -0.2246
 6527TIP3    H140996   3.014   2.642   1.063  0.5735 -1.4786 -0.4703
 6527TIP3    H240997   3.091   2.773   1.058 -2.4445  0.3912 -0.2760
 6528TIP3   OH240998   0.539   4.695   0.576 -0.2261 -0.2119 -0.0329
 6528TIP3    H140999   0.479   4.738   0.515  0.9542  1.1466 -0.2921
 6528TIP3    H241000   0.626   4.716   0.543  0.4669  0.6157  2.1153
 6529TIP3   OH241001   0.243   2.201  16.227 -0.8991  0.2813 -0.2690
 6529TIP3    H141002   0.249   2.246  16.143 -1.7188 -0.6381 -0.8492
 6529TIP3    H241003   0.313   2.135  16.224  0.9581  2.0735  0.9902
 6530TIP3   OH241004   3.245   3.006   3.010  0.5632 -0.1804 -0.3646
 6530TIP3    H141005   3.156   3.022   3.041  0.4615  0.7865 -1.1149
 6530TIP3    H241006   3.301   3.037   3.081  0.3124 -0.8217  0.1237
 6531TIP3   OH241007   5.619   0.884  14.275  0.1097 -0.6945  0.2381
 6531TIP3    H141008   5.701   0.914  14.237 -0.2078  1.6449  1.2369
 6531TIP3    H241009   5.628   0.901  14.369 -1.9106  0.7252  0.2322
 6532TIP3   OH241010   2.614   4.343  16.651 -0.4446  0.8418 -0.4370
 6532TIP3    H141011   2.607   4.251  16.676 -0.3315  0.6865 -0.9661
 6532TIP3    H241012   2.645   4.387  16.730  0.7703  0.2251 -0.5445
 6533TIP3   OH241013   4.481   4.507   5.112 -0.0163 -0.2809 -0.4582
 6533TIP3    H141014   4.461   4.499   5.019  1.7456  1.6150 -1.0881
 6533TIP3    H241015   4.449   4.594   5.136  1.3430  0.0816  0.1487
 6534TIP3   OH241016   3.612   0.241   1.552 -0.1166  0.0810 -0.6303
 6534TIP3    H141017   3.696   0.195   1.550  0.7207  1.5389 -0.7912
 6534TIP3    H241018   3.636   0.333   1.565 -1.5705  0.7851 -2.4118
 6535TIP3   OH241019   2.001   1.771  14.843 -0.0206 -0.6740  0.2413
 6535TIP3    H141020   1.926   1.812  14.887 -1.0289 -2.0134 -0.1751
 6535TIP3    H241021   2.070   1.837  14.847 -0.8844  0.1968  1.5752
 6536TIP3   OH241022   4.666   3.684  16.077  0.2749 -0.4153 -0.2492
 6536TIP3    H141023   4.721   3.697  16.155  3.2389  2.0697 -2.4784
 6536TIP3    H241024   4.622   3.768  16.065  0.1749 -0.6354 -1.4835
 6537TIP3   OH241025   4.681   6.048   6.680 -0.2215  0.2058  0.2371
 6537TIP3    H141026   4.776   6.064   6.679 -0.2754  0.8407  2.0868
 6537TIP3    H241027   4.647   6.106   6.612  0.6885  0.2202 -0.2244
 6538TIP3   OH241028   3.846   2.388   3.357  0.4373 -0.0570 -0.7144
 6538TIP3    H141029   3.916   2.351   3.303  0.5505 -0.7676 -0.1042
 6538TIP3    H241030   3.807   2.312   3.400  1.5236  0.6228  1.6074
 6539TIP3   OH241031   2.927   2.757   6.710 -0.2873 -0.6178  0.0721
 6539TIP3    H141032   2.835   2.778   6.699 -0.0563  0.5028  0.1904
 6539TIP3    H241033   2.927   2.682   6.771 -1.0275  1.5595  2.9881
 6540TIP3   OH241034   0.568   6.252   3.326 -0.3416  0.7698  0.2435
 6540TIP3    H141035   0.564   6.292   3.413  0.8601  0.3315  0.5031
 6540TIP3    H241036   0.506   6.179   3.330 -0.9117  1.2521  0.4507
 6541TIP3   OH241037   3.493   2.808  17.130  0.2154 -0.0167 -0.1974
 6541TIP3    H141038   3.583   2.835  17.110 -0.5652  2.3121 -0.9288
 6541TIP3    H241039   3.493   2.790  17.223  1.6147 -0.8744 -0.3397
 6542TIP3   OH241040   5.361   5.446   2.200 -0.2607  0.8669  0.1949
 6542TIP3    H141041   5.417   5.501   2.253  2.2975 -0.3921 -1.0051
 6542TIP3    H241042   5.396   5.357   2.211 -2.4052 -0.1065 -0.1729
 6543TIP3   OH241043   5.474   4.755  13.307 -0.3567  0.7582 -0.1547
 6543TIP3    H141044   5.451   4.676  13.258  0.6024  0.2231  0.2239
 6543TIP3    H241045   5.552   4.730  13.357  1.1393  2.4584 -1.4562
 6544TIP3   OH241046   5.004   1.793  12.689  0.5730 -0.3214 -0.2624
 6544TIP3    H141047   4.915   1.788  12.654  0.4434  1.2581 -0.2248
 6544TIP3    H241048   5.033   1.882  12.668  1.7670 -0.4785  0.6258
 6545TIP3   OH241049   6.687   2.087   0.285 -0.5241 -0.1593  0.0392
 6545TIP3    H141050   6.651   2.035   0.213 -0.5663 -0.7297  0.4622
 6545TIP3    H241051   6.641   2.171   0.280 -1.5540 -0.6935  0.2605
 6546TIP3   OH241052   4.547   5.338  12.522  0.9304 -0.1890 -0.2637
 6546TIP3    H141053   4.485   5.367  12.455 -2.5362 -1.6634  1.9822
 6546TIP3    H241054   4.574   5.418  12.566 -3.4887  0.4755  1.8187
 6547TIP3   OH241055   1.088   4.111  12.993  0.1701 -0.4081  0.8327
 6547TIP3    H141056   1.163   4.166  12.971  0.3339 -0.1375  2.0324
 6547TIP3    H241057   1.049   4.089  12.908  1.8162 -0.8689  0.1696
 6548TIP3   OH241058   3.567   1.501  13.236 -0.1405  0.1122 -0.8839
 6548TIP3    H141059   3.566   1.406  13.236  0.4295  0.0407  1.3434
 6548TIP3    H241060   3.497   1.526  13.296  0.6280  1.0234 -0.3321
 6549TIP3   OH241061   4.827   1.567   5.690  0.0162 -0.7508 -0.4618
 6549TIP3    H141062   4.891   1.634   5.667  0.3151 -1.0778 -0.5963
 6549TIP3    H241063   4.810   1.520   5.608 -1.9834  0.6424 -0.9129
 6550TIP3   OH241064   0.643   5.793  12.317 -0.5159 -0.5803  0.3928
 6550TIP3    H141065   0.574   5.814  12.380 -0.2231  0.1581  0.4748
 6550TIP3    H241066   0.624   5.703  12.291 -0.9042 -0.7432  1.1925
 6551TIP3   OH241067   5.314   6.230  11.814  0.2174 -0.3873  0.0717
 6551TIP3    H141068   5.273   6.168  11.754  0.7823 -0.1244 -0.5902
 6551TIP3    H241069   5.376   6.177  11.864  1.5360 -0.1767 -1.2790
 6552TIP3   OH241070   0.446   1.651   3.729 -0.1381  0.0474 -0.3621
 6552TIP3    H141071   0.506   1.585   3.692 -0.3758 -0.3380 -0.0567
 6552TIP3    H241072   0.463   1.730   3.676 -1.5994 -0.9101 -2.3847
 6553TIP3   OH241073   4.759   1.499  17.366  0.6117 -0.5937 -0.6121
 6553TIP3    H141074   4.766   1.443  17.444 -1.7835 -0.2890 -0.1063
 6553TIP3    H241075   4.792   1.584  17.394  0.1068 -0.5873 -0.0179
 6554TIP3   OH241076   1.662   2.975   0.896 -0.2813  0.1662  0.6074
 6554TIP3    H141077   1.663   3.001   0.988 -0.6072  2.5461 -0.0170
 6554TIP3    H241078   1.754   2.981   0.868 -0.0865 -1.1402  0.8857
 6555TIP3   OH241079   1.609   5.327  11.729  0.2547 -0.3371 -0.4135
 6555TIP3    H141080   1.687   5.325  11.783 -0.5999  0.1827  0.8880
 6555TIP3    H241081   1.539   5.294  11.786 -0.3205 -1.7427 -1.8422
 6556TIP3   OH241082   3.228   2.632   0.139 -0.0123  0.3511  0.2571
 6556TIP3    H141083   3.183   2.641   0.223  1.9189  2.3894  1.1842
 6556TIP3    H241084   3.200   2.708   0.088  1.1755  0.8507  0.3049
 6557TIP3   OH241085   6.030   6.508  15.266 -0.0209 -0.0808 -0.1136
 6557TIP3    H141086   6.095   6.570  15.299 -1.0736  1.1180 -0.2455
 6557TIP3    H241087   5.989   6.471  15.344 -0.8348  0.9626 -0.0247
 6558TIP3   OH241088   1.706   5.591   3.649 -0.2418  0.2159  0.3116
 6558TIP3    H141089   1.720   5.510   3.599  1.2202  1.4956 -1.4697
 6558TIP3    H241090   1.615   5.584   3.679 -0.0594 -2.2299  0.5439
 6559TIP3   OH241091   3.420   1.191   3.730 -0.2468 -0.0652  0.3160
 6559TIP3    H141092   3.467   1.254   3.675 -1.0694  0.8278  0.5972
 6559TIP3    H241093   3.470   1.187   3.811 -0.5173  0.7109  0.5310
 6560TIP3   OH241094   3.589   0.832   4.494 -0.0784 -0.4879  0.3783
 6560TIP3    H141095   3.496   0.851   4.486  0.2127  1.4021  1.0422
 6560TIP3    H241096   3.593   0.749   4.542 -1.4066 -0.9022 -0.1802
 6561TIP3   OH241097   5.341   2.978   0.596  0.0604  0.4850 -0.2484
 6561TIP3    H141098   5.422   2.955   0.642 -0.3519 -0.6694 -0.0570
 6561TIP3    H241099   5.324   2.902   0.539 -0.4328  1.0874 -0.9172
 6562TIP3   OH241100   5.305   2.881  15.451 -0.5468 -0.1242  0.0823
 6562TIP3    H141101   5.312   2.976  15.437 -2.2357 -0.0258 -0.2698
 6562TIP3    H241102   5.377   2.861  15.511 -1.3000  1.7347  1.7681
 6563TIP3   OH241103   6.670   2.932   1.329  0.2797 -0.3731 -0.0291
 6563TIP3    H141104   6.706   3.009   1.284  1.5065  0.0866  1.6201
 6563TIP3    H241105   6.597   2.967   1.381  1.1885 -0.1696  1.1579
 6564TIP3   OH241106   4.165   2.314   6.307 -0.0858 -0.2444  0.0307
 6564TIP3    H141107   4.115   2.386   6.345 -0.2371  1.5043 -3.1493
 6564TIP3    H241108   4.117   2.235   6.333 -0.5222  0.8127  2.7218
 6565TIP3   OH241109   4.275   0.947   4.636 -0.2784  0.1530  0.6480
 6565TIP3    H141110   4.187   0.922   4.608  0.3387 -0.2429 -1.0636
 6565TIP3    H241111   4.291   1.031   4.591 -0.1998  0.8057  1.8590
 6566TIP3   OH241112   2.362   4.203   4.253  0.0298 -0.2115 -0.1398
 6566TIP3    H141113   2.399   4.283   4.291  0.8243 -0.9950  0.7983
 6566TIP3    H241114   2.348   4.225   4.161  0.6115  0.8801  0.0077
 6567TIP3   OH241115   1.699   0.714  12.050 -0.9696 -0.0444 -0.3518
 6567TIP3    H141116   1.640   0.775  12.008 -0.8545  0.3056 -0.0083
 6567TIP3    H241117   1.651   0.631  12.052 -1.7493  0.4192  0.6170
 6568TIP3   OH241118   3.642   1.601  16.474  0.2231 -0.1359 -0.0044
 6568TIP3    H141119   3.712   1.660  16.445  0.3058 -0.0097  0.4501
 6568TIP3    H241120   3.686   1.538  16.530  0.0055 -0.1690  0.1293
 6569TIP3   OH241121   0.162   1.492   2.691  0.0209 -0.1956 -0.3016
 6569TIP3    H141122   0.251   1.525   2.679  0.6068 -2.0396 -1.3322
 6569TIP3    H241123   0.150   1.489   2.786  0.4779  1.4857 -0.1632
 6570TIP3   OH241124   4.191   5.722   4.565 -0.0081 -0.0789  0.3628
 6570TIP3    H141125   4.211   5.709   4.658  2.0578  0.4658  0.0430
 6570TIP3    H241126   4.105   5.680   4.553  0.6076 -1.9941  2.0616
 6571TIP3   OH241127   2.836   5.710   5.917  0.4018 -0.4058 -0.1894
 6571TIP3    H141128   2.788   5.725   5.836 -0.6739 -2.0683  0.0804
 6571TIP3    H241129   2.852   5.615   5.918 -0.3412 -0.5656  1.8989
 6572TIP3   OH241130   0.943   4.090   0.241 -0.0545  0.1165  0.6945
 6572TIP3    H141131   1.002   4.034   0.291  0.0621 -1.0163 -0.6432
 6572TIP3    H241132   1.000   4.138   0.180 -0.4908 -1.4549 -1.0473
 6573TIP3   OH241133   6.095   1.898   6.271  0.0099 -0.6310  0.0017
 6573TIP3    H141134   6.184   1.867   6.255 -1.0846 -3.0477 -2.1837
 6573TIP3    H241135   6.060   1.836   6.335 -0.5749 -0.6948 -0.3754
 6574TIP3   OH241136   4.048   1.504   1.432  0.1783 -0.3648 -0.3067
 6574TIP3    H141137   4.001   1.571   1.481  1.1927 -1.1863  1.9023
 6574TIP3    H241138   4.040   1.424   1.484  3.1563 -0.7745 -0.2560
 6575TIP3   OH241139   5.990   0.317  14.110 -0.0679  0.1273  0.0045
 6575TIP3    H141140   5.922   0.323  14.043  1.0396 -0.9125 -1.2740
 6575TIP3    H241141   5.943   0.295  14.190 -1.1277 -2.7732 -1.2623
 6576TIP3   OH241142   2.051   5.900  13.505  0.3041  0.0424 -0.2607
 6576TIP3    H141143   2.030   5.946  13.587 -2.1581 -1.3305 -0.0378
 6576TIP3    H241144   2.004   5.948  13.437  1.4234  0.4992 -0.7434
 6577TIP3   OH241145   2.976   6.151   3.548  0.3790  0.0448 -0.0772
 6577TIP3    H141146   2.927   6.199   3.615 -0.1480 -1.1824  0.4565
 6577TIP3    H241147   3.024   6.218   3.500  0.8365  0.9608  1.5887
 6578TIP3   OH241148   6.527   3.251   2.821 -0.7549 -0.0162  0.1513
 6578TIP3    H141149   6.432   3.256   2.829 -0.8829  0.2629 -1.3925
 6578TIP3    H241150   6.549   3.163   2.851 -1.4665 -0.0048  0.7251
 6579TIP3   OH241151   4.367   0.790  16.335  0.2772 -0.2394 -0.4677
 6579TIP3    H141152   4.338   0.758  16.250 -0.0261  2.8637 -1.6568
 6579TIP3    H241153   4.287   0.795  16.387 -0.0285  0.5646 -0.9947
 6580TIP3   OH241154   3.999   2.332   3.744 -0.0478  0.5823 -0.2945
 6580TIP3    H141155   4.016   2.404   3.684 -0.2365  0.7581 -0.1402
 6580TIP3    H241156   3.981   2.374   3.828 -3.1756  0.5919 -0.8317
 6581TIP3   OH241157   1.125   6.228  17.024 -0.4424 -0.7643  0.3416
 6581TIP3    H141158   1.052   6.218  16.962  0.1405 -0.2765 -0.4518
 6581TIP3    H241159   1.204   6.214  16.970  0.0295 -2.7286  1.4640
 6582TIP3   OH241160   3.874   5.116   3.719  0.0880 -0.1208  0.0095
 6582TIP3    H141161   3.902   5.025   3.726 -0.0621 -0.0836  1.4218
 6582TIP3    H241162   3.809   5.117   3.649 -1.3422 -1.4766  1.2453
 6583TIP3   OH241163   4.033   5.612   3.674  0.0526 -0.3151  0.0084
 6583TIP3    H141164   3.960   5.624   3.735 -1.6111 -0.4456 -1.8581
 6583TIP3    H241165   4.084   5.540   3.713 -2.1957 -1.9343  0.1912
 6584TIP3   OH241166   5.412   5.491  10.812 -0.0594 -0.1147 -0.3932
 6584TIP3    H141167   5.324   5.529  10.819  0.4927  1.0435  0.4092
 6584TIP3    H241168   5.465   5.560  10.772  0.7444 -0.3793  0.1956
 6585TIP3   OH241169   0.455   0.562   5.688 -0.1058 -0.0721  0.1660
 6585TIP3    H141170   0.545   0.551   5.718  0.8902  2.1101 -1.6960
 6585TIP3    H241171   0.420   0.634   5.741 -0.3050 -0.0463  0.0028
 6586TIP3   OH241172   1.565   0.133  10.943 -0.4026 -0.8667 -0.1332
 6586TIP3    H141173   1.628   0.151  10.873 -0.7438 -0.6682 -0.3882
 6586TIP3    H241174   1.504   0.206  10.940  0.6066  0.1140  1.5516
 6587TIP3   OH241175   6.594   2.583  13.293 -0.5934 -0.3014  0.5947
 6587TIP3    H141176   6.529   2.519  13.322  0.0663 -0.1824  2.5517
 6587TIP3    H241177   6.545   2.664  13.281 -1.1224 -0.7012  0.0207
 6588TIP3   OH241178   0.323   2.525  11.529  0.2401  0.1145 -0.0570
 6588TIP3    H141179   0.275   2.602  11.559  1.2031  0.3667  0.8894
 6588TIP3    H241180   0.415   2.546  11.546  0.7627 -0.1638 -2.2184
 6589TIP3   OH241181   4.314   6.710  11.017 -0.0819 -0.1731 -0.4138
 6589TIP3    H141182   4.378   6.685  10.951 -0.2150  0.7260 -0.8873
 6589TIP3    H241183   4.253   6.768  10.971 -1.0744 -0.7734  0.0942
 6590TIP3   OH241184   3.532   2.831  13.262  0.1508  0.2058 -0.0274
 6590TIP3    H141185   3.526   2.901  13.327 -2.2219 -0.5516  0.6722
 6590TIP3    H241186   3.546   2.877  13.179 -3.0366  1.7531  0.1431
 6591TIP3   OH241187   3.746   5.881   4.800  0.2422 -0.2825 -0.0165
 6591TIP3    H141188   3.655   5.907   4.785 -0.3376 -1.0580  1.7994
 6591TIP3    H241189   3.793   5.914   4.724 -1.4590  0.6240 -0.7491
 6592TIP3   OH241190   1.042   4.536  14.643 -0.3822  0.1230 -0.5567
 6592TIP3    H141191   1.079   4.541  14.555  0.6222  0.0549 -0.1566
 6592TIP3    H241192   1.117   4.514  14.699 -1.2135 -0.9426  0.1766
 6593TIP3   OH241193   4.264   3.121  15.615  0.8280 -0.0573  0.3033
 6593TIP3    H141194   4.352   3.129  15.651  0.8188  0.2678  0.2584
 6593TIP3    H241195   4.277   3.118  15.520  0.6377  2.7488  0.1133
 6594TIP3   OH241196   4.774   3.990  15.414  0.3667  0.0023  0.0020
 6594TIP3    H141197   4.762   3.965  15.322 -0.9432 -0.6380  0.3297
 6594TIP3    H241198   4.729   4.074  15.422 -0.1462 -0.2866  0.2129
 6595TIP3   OH241199   5.490   0.099   0.838  0.4631  0.2579 -0.0851
 6595TIP3    H141200   5.441   0.061   0.910 -2.7425  2.1465 -1.0700
 6595TIP3    H241201   5.458   0.054   0.760  0.8550  1.0438 -0.7147
 6596TIP3   OH241202   3.652   4.492  17.207  0.3694 -0.2420  0.2110
 6596TIP3    H141203   3.674   4.448  17.125  1.0010 -0.7272  0.6397
 6596TIP3    H241204   3.565   4.457  17.230  1.8004 -3.1680  1.7787
 6597TIP3   OH241205   2.859   4.960  11.405 -0.0149 -0.0367 -0.3586
 6597TIP3    H141206   2.825   4.899  11.471  0.1686 -0.7049 -0.8629
 6597TIP3    H241207   2.792   5.027  11.398 -0.0506  0.0301  0.4866
 6598TIP3   OH241208   6.487   3.352  11.210  0.2584  0.7071 -0.4678
 6598TIP3    H141209   6.518   3.292  11.277 -2.7472  0.0046  0.4534
 6598TIP3    H241210   6.546   3.337  11.136  1.5605 -1.0206  0.8106
 6599TIP3   OH241211   3.450   3.936   3.354  0.0095 -0.0373  0.3663
 6599TIP3    H141212   3.528   3.882   3.350  1.0385  1.0796  3.1346
 6599TIP3    H241213   3.482   4.026   3.348 -1.1305  0.4187  0.7462
 6600TIP3   OH241214   3.792   2.786  12.410  0.3453  0.0223 -0.2045
 6600TIP3    H141215   3.799   2.803  12.504  0.3949 -0.0003 -0.2039
 6600TIP3    H241216   3.700   2.804  12.389  0.0895 -0.9343  0.0392
 6601TIP3   OH241217   6.013   1.073   5.397 -0.4017  0.0842 -0.4812
 6601TIP3    H141218   5.988   1.098   5.308  2.2744  1.1806 -1.0426
 6601TIP3    H241219   6.026   1.157   5.442 -0.3783 -0.4510  0.5286
 6602TIP3   OH241220   3.223   4.465   0.176 -0.5549 -0.9233 -0.7041
 6602TIP3    H141221   3.293   4.446   0.238 -0.3290 -0.8732 -0.9424
 6602TIP3    H241222   3.268   4.503   0.100 -1.0571  1.6010  0.1607
 6603TIP3   OH241223   2.545   1.451  15.533 -0.0244  0.0049  0.4698
 6603TIP3    H141224   2.525   1.393  15.459 -2.0256 -0.2567  1.1605
 6603TIP3    H241225   2.639   1.438  15.549  0.6201  0.4023 -2.2663
 6604TIP3   OH241226   5.679   1.740  13.394 -0.3709  0.1714  0.3823
 6604TIP3    H141227   5.654   1.779  13.477  0.2617 -0.5400  0.9173
 6604TIP3    H241228   5.740   1.802  13.355 -0.9541  0.6816  0.2715
 6605TIP3   OH241229   1.134   3.964   6.578 -0.4283 -0.3459 -0.4615
 6605TIP3    H141230   1.207   3.999   6.629 -0.8593 -0.2511  0.0970
 6605TIP3    H241231   1.095   4.042   6.537 -1.4263 -0.1331  0.8322
 6606TIP3   OH241232   0.478   1.223  15.817 -0.2030 -0.6176 -0.2195
 6606TIP3    H141233   0.498   1.129  15.826 -1.2879 -0.8525 -0.1005
 6606TIP3    H241234   0.382   1.226  15.806 -0.5325  0.6371  2.3640
 6607TIP3   OH241235   4.089   0.099  17.090  0.1040  0.1646  0.3123
 6607TIP3    H141236   4.108   0.006  17.101  1.4141  0.1435 -1.6850
 6607TIP3    H241237   4.002   0.101  17.051  0.5188 -0.2984 -0.6610
 6608TIP3   OH241238   6.634   5.555   5.461 -0.2458 -0.1367  0.0558
 6608TIP3    H141239   6.708   5.563   5.400 -0.5780  0.7506 -0.2590
 6608TIP3    H241240   6.617   5.646   5.488 -1.1156 -0.3495  0.2410
 6609TIP3   OH241241   2.482   0.460  14.863 -0.4257  0.0925 -0.0130
 6609TIP3    H141242   2.461   0.469  14.956  1.2136 -0.3627  0.4362
 6609TIP3    H241243   2.515   0.545  14.838 -1.0327  0.2674 -0.2441
 6610TIP3   OH241244   3.988   0.113  13.612 -0.5260 -0.5849 -0.5072
 6610TIP3    H141245   3.985   0.209  13.610  0.6386 -0.5216  0.2198
 6610TIP3    H241246   3.898   0.087  13.631 -0.6106  0.4112  0.5219
 6611TIP3   OH241247   3.039   6.033   3.282 -0.2085  0.1197 -0.0504
 6611TIP3    H141248   2.952   5.999   3.300 -0.2526  0.5738  0.6445
 6611TIP3    H241249   3.030   6.128   3.289  0.0065  0.2809 -1.5190
 6612TIP3   OH241250   0.262   4.051   1.111  0.3932  0.3054  0.5964
 6612TIP3    H141251   0.220   3.967   1.131 -0.5325  0.2378 -1.3545
 6612TIP3    H241252   0.283   4.045   1.018  1.4393  1.7780  0.7081
 6613TIP3   OH241253   4.003   1.511   0.589  0.5314  0.0841  0.2688
 6613TIP3    H141254   4.096   1.530   0.595  0.7024 -0.6775  0.1480
 6613TIP3    H241255   3.994   1.422   0.623 -0.0024 -0.2377 -0.6730
 6614TIP3   OH241256   4.743   0.841   3.760 -0.0377  0.3040 -0.5139
 6614TIP3    H141257   4.775   0.930   3.773 -0.0012 -0.0067  1.8906
 6614TIP3    H241258   4.744   0.829   3.665 -1.0894  3.2158 -0.9832
 6615TIP3   OH241259   6.147   6.268   4.525 -0.1615  0.2954  0.4732
 6615TIP3    H141260   6.148   6.177   4.495 -1.4588 -0.1808  1.7530
 6615TIP3    H241261   6.079   6.270   4.592 -1.2964  2.5821 -0.6309
 6616TIP3   OH241262   6.265   1.018   5.262  0.5566 -0.2109  0.0045
 6616TIP3    H141263   6.175   1.024   5.296  0.2739  1.5138 -0.9514
 6616TIP3    H241264   6.316   0.987   5.337 -0.6218  0.0234  0.9443
 6617TIP3   OH241265   4.926   0.246   3.175 -0.5578  0.6745 -0.7976
 6617TIP3    H141266   4.933   0.331   3.131  0.4162  0.8281 -0.3582
 6617TIP3    H241267   5.011   0.232   3.216 -0.8076 -0.3712 -0.5875
 6618TIP3   OH241268   6.176   5.310   0.925 -0.1318 -0.3477  0.4593
 6618TIP3    H141269   6.213   5.231   0.884  1.2530  0.5557 -0.1048
 6618TIP3    H241270   6.251   5.355   0.962 -0.8464  0.9324  0.4039
 6619TIP3   OH241271   6.250   6.535  15.642  0.3374 -0.1572 -0.5612
 6619TIP3    H141272   6.336   6.518  15.680  0.4276  0.3647 -0.5254
 6619TIP3    H241273   6.195   6.464  15.676  0.6850 -0.3399 -0.3689
 6620TIP3   OH241274   0.994   2.085  10.852  0.6473 -0.0547  0.1932
 6620TIP3    H141275   0.982   2.176  10.827  0.3117 -0.4423 -1.1152
 6620TIP3    H241276   0.915   2.041  10.821  0.1559 -0.5686  2.0313
 6621TIP3   OH241277   1.191   2.903   0.841  0.2916 -0.2601 -0.6685
 6621TIP3    H141278   1.180   2.992   0.874  0.9138 -0.6674  0.7457
 6621TIP3    H241279   1.200   2.912   0.747  1.1456  1.2522 -0.4679
 6622TIP3   OH241280   4.679   0.924  15.331  0.6055  0.4218  0.1187
 6622TIP3    H141281   4.714   0.927  15.421  0.2524  0.2615  0.2632
 6622TIP3    H241282   4.745   0.969  15.278  1.1280 -0.0369  0.3619
 6623TIP3   OH241283   4.486   1.090  12.863 -0.0998 -0.1072 -0.2761
 6623TIP3    H141284   4.420   1.090  12.795 -0.6115  0.6633  0.1981
 6623TIP3    H241285   4.556   1.147  12.829 -0.0323 -0.2963 -0.4530
 6624TIP3   OH241286   1.008   4.688   4.549 -0.4886  0.4625 -0.2005
 6624TIP3    H141287   0.926   4.663   4.507 -0.1402  0.3448 -0.8156
 6624TIP3    H241288   1.054   4.606   4.564 -0.0984  0.5897 -0.6619
 6625TIP3   OH241289   0.256   3.100  15.337 -0.1112 -0.0273 -0.4660
 6625TIP3    H141290   0.163   3.121  15.333 -0.0314  0.2012 -1.1472
 6625TIP3    H241291   0.301   3.182  15.317  0.2545  0.0132  0.4408
 6626TIP3   OH241292   2.075   5.910   1.407 -0.3998  0.1880  0.4191
 6626TIP3    H141293   2.157   5.867   1.383  0.5746  2.8901 -1.5366
 6626TIP3    H241294   2.098   5.969   1.478 -0.0916  2.4116 -1.4320
 6627TIP3   OH241295   4.121   4.413   6.112 -0.4396 -0.2712 -0.3195
 6627TIP3    H141296   4.090   4.499   6.084 -0.8600 -0.0082  0.8982
 6627TIP3    H241297   4.137   4.422   6.206  0.6172 -1.2058 -0.3745
 6628TIP3   OH241298   1.564   0.366   2.544 -0.3611  0.3154  0.2149
 6628TIP3    H141299   1.469   0.360   2.536 -0.4864  1.5564  0.6216
 6628TIP3    H241300   1.579   0.442   2.600  0.8899  0.5198 -0.3603
 6629TIP3   OH241301   2.611   1.262   3.494  0.1511 -0.3224 -0.1236
 6629TIP3    H141302   2.669   1.230   3.425 -0.0699  0.2355 -0.5742
 6629TIP3    H241303   2.655   1.339   3.530 -0.0513 -0.2143 -0.1026
 6630TIP3   OH241304   2.839   2.520  14.452  0.0377  0.0712 -0.3392
 6630TIP3    H141305   2.778   2.465  14.502  1.3305 -0.7961  0.3346
 6630TIP3    H241306   2.816   2.610  14.476  0.1716 -0.3038  1.2997
 6631TIP3   OH241307   6.081   5.248   3.923  0.4702  0.4184  0.5567
 6631TIP3    H141308   6.108   5.291   3.842  2.6978 -2.5048 -0.4587
 6631TIP3    H241309   5.995   5.212   3.904  1.2437 -0.7927 -0.8356
 6632TIP3   OH241310   2.011   1.329   3.099  0.9354  0.2510  0.9810
 6632TIP3    H141311   1.972   1.242   3.088  2.5342 -0.3138 -0.9500
 6632TIP3    H241312   1.937   1.389   3.106 -0.3028 -0.8701 -1.4941
 6633TIP3   OH241313   4.873   2.626  16.089  0.5776  0.1260 -0.2121
 6633TIP3    H141314   4.943   2.690  16.077  1.9794 -0.7049  2.6435
 6633TIP3    H241315   4.911   2.543  16.061 -0.4298  0.1020 -1.6490
 6634TIP3   OH241316   3.513   4.399   0.365 -0.6681 -0.1563  0.7778
 6634TIP3    H141317   3.593   4.382   0.316 -0.6340 -0.2732  0.8709
 6634TIP3    H241318   3.501   4.320   0.419 -1.1170 -0.3515  0.3959
 6635TIP3   OH241319   6.641   5.118   0.790  0.7041 -0.3727 -0.0370
 6635TIP3    H141320   6.731   5.147   0.774  0.8727 -1.0781 -0.4157
 6635TIP3    H241321   6.606   5.182   0.852  1.4033  0.0220 -0.0357
 6636TIP3   OH241322   1.140   0.411   3.285 -0.4422  0.4162  0.0123
 6636TIP3    H141323   1.187   0.344   3.235 -0.7051 -0.8609  1.4112
 6636TIP3    H241324   1.170   0.494   3.247 -1.0458 -0.4600 -2.6173
 6637TIP3   OH241325   3.413   1.658   5.660  0.4058  0.3059  0.8940
 6637TIP3    H141326   3.416   1.738   5.713  0.1761  1.7209 -1.1401
 6637TIP3    H241327   3.501   1.621   5.667  1.6471  2.6426 -0.8515
 6638TIP3   OH241328   3.972   5.724   2.213 -0.0793  0.4740 -0.3126
 6638TIP3    H141329   3.915   5.698   2.140 -1.2863  0.0365  0.7477
 6638TIP3    H241330   3.977   5.819   2.208 -0.4007  0.4670 -0.7870
 6639TIP3   OH241331   3.710   1.302   1.891  0.1354  0.1655 -0.2627
 6639TIP3    H141332   3.730   1.344   1.807 -0.3936 -1.2864 -1.1539
 6639TIP3    H241333   3.684   1.213   1.867  0.6584 -0.4975  1.5080
 6640TIP3   OH241334   1.461   3.002   6.093  0.6170  0.1913  0.2600
 6640TIP3    H141335   1.500   2.915   6.090  0.7440  0.2652 -1.1527
 6640TIP3    H241336   1.391   2.994   6.157 -0.0769 -1.2839 -0.6049
 6641TIP3   OH241337   3.732   0.026  13.614 -0.3381 -0.1057 -0.0674
 6641TIP3    H141338   3.703  -0.060  13.583  0.1001 -0.2590 -0.0563
 6641TIP3    H241339   3.658   0.058  13.667 -1.3409  0.4223 -1.7213
 6642TIP3   OH241340   6.223   1.427   0.001 -0.3017 -0.3780  0.3537
 6642TIP3    H141341   6.262   1.349   0.041  0.2670 -0.1503  0.2558
 6642TIP3    H241342   6.262   1.500   0.049  1.3147 -0.0419 -1.3789
 6643TIP3   OH241343   5.756   0.072  13.047 -0.3229  0.2244 -0.0753
 6643TIP3    H141344   5.692   0.118  12.992  0.3063  2.2694  0.8181
 6643TIP3    H241345   5.786   0.138  13.109  1.5626 -1.0843  0.4913
 6644TIP3   OH241346   3.237   2.212  12.608 -0.5224  0.3962  0.2479
 6644TIP3    H141347   3.165   2.177  12.660  0.4454  0.7512  1.9031
 6644TIP3    H241348   3.313   2.207  12.665  0.6352  0.7124 -1.1941
 6645TIP3   OH241349   1.658   6.101   5.413 -0.2111 -0.0184 -0.2957
 6645TIP3    H141350   1.665   6.168   5.481 -2.7294  0.6768 -0.5971
 6645TIP3    H241351   1.717   6.130   5.343 -1.9070  2.4753 -0.8179
 6646TIP3   OH241352   3.756   3.294  13.272 -0.1488 -0.2159 -0.2825
 6646TIP3    H141353   3.767   3.200  13.281 -1.4687 -0.4760 -0.9961
 6646TIP3    H241354   3.742   3.326  13.361 -1.3272 -0.9549 -0.1876
 6647TIP3   OH241355   1.816   1.758   3.803  0.0337  0.3968  0.0016
 6647TIP3    H141356   1.906   1.728   3.804  0.5823  1.3514 -3.9395
 6647TIP3    H241357   1.822   1.853   3.815 -0.5693  0.3311  0.8761
 6648TIP3   OH241358   4.614   0.656  16.430 -0.5190 -0.2003 -0.1229
 6648TIP3    H141359   4.535   0.689  16.387 -0.0304 -1.0297 -1.7343
 6648TIP3    H241360   4.669   0.624  16.359  1.3227  0.3986  0.9523
 6649TIP3   OH241361   0.991   0.522   5.790  0.4253  0.1760 -0.4615
 6649TIP3    H141362   1.022   0.432   5.778  0.5848 -0.0135  1.1887
 6649TIP3    H241363   1.070   0.575   5.783  0.4155  0.1390 -0.8766
 6650TIP3   OH241364   3.861   1.848   1.374 -0.4287 -0.1227 -0.4633
 6650TIP3    H141365   3.861   1.831   1.280  1.4939  0.5303 -0.6308
 6650TIP3    H241366   3.859   1.943   1.382  0.2854 -0.1412  0.1048
 6651TIP3   OH241367   0.861   4.247   4.151  0.2735  0.9818  0.3408
 6651TIP3    H141368   0.936   4.189   4.153 -0.0415  0.5775  0.9611
 6651TIP3    H241369   0.815   4.226   4.069  0.6060  0.9417  0.1659
 6652TIP3   OH241370   4.258   2.650  13.403 -0.2294  0.0395  0.2536
 6652TIP3    H141371   4.236   2.700  13.324 -1.1549 -2.1255 -0.9507
 6652TIP3    H241372   4.192   2.581  13.407 -0.5624  0.3849  3.3067
 6653TIP3   OH241373   2.626   0.089  16.218 -0.3422  0.3650  0.2384
 6653TIP3    H141374   2.572   0.037  16.158  1.2378 -0.0605 -0.8791
 6653TIP3    H241375   2.655   0.026  16.284  1.3311 -0.2069 -0.9521
 6654TIP3   OH241376   6.270   3.538   6.861  0.8774  0.2905 -0.1179
 6654TIP3    H141377   6.251   3.503   6.949 -1.9989 -0.1454 -0.8173
 6654TIP3    H241378   6.356   3.501   6.839  0.9982 -0.8014  1.9040
 6655TIP3   OH241379   2.585   2.903  12.671 -0.6667 -0.4910  0.2242
 6655TIP3    H141380   2.636   2.823  12.667  1.2044  0.7091 -1.1658
 6655TIP3    H241381   2.521   2.895  12.600  0.4299 -0.2006 -0.8264
 6656TIP3   OH241382   1.260   6.551   3.659  0.0436 -0.1548  0.0406
 6656TIP3    H141383   1.323   6.510   3.599 -2.1728 -0.2907 -2.3987
 6656TIP3    H241384   1.294   6.639   3.673  0.9574 -0.3295 -0.9577
 6657TIP3   OH241385   0.722   5.982   4.517  0.0502  0.1712 -0.3671
 6657TIP3    H141386   0.747   5.940   4.435 -1.4978  1.0790 -1.3743
 6657TIP3    H241387   0.629   5.962   4.527  0.2619 -0.1508  1.3463
 6658TIP3   OH241388   1.414   4.274  10.797 -0.1740  0.2680  0.1043
 6658TIP3    H141389   1.491   4.299  10.848 -0.1121  0.1105  0.0883
 6658TIP3    H241390   1.369   4.357  10.780 -0.0487  0.3521  0.1790
 6659TIP3   OH241391   1.292   1.919  16.530  0.3977 -0.2220 -0.4082
 6659TIP3    H141392   1.296   2.015  16.529  0.5505 -0.1873  1.0625
 6659TIP3    H241393   1.241   1.898  16.609  0.7750 -1.3598 -0.4502
 6660TIP3   OH241394   0.758   1.324   1.743  0.7593 -0.4357  0.2992
 6660TIP3    H141395   0.677   1.359   1.779  0.9316  0.9745 -0.5842
 6660TIP3    H241396   0.788   1.392   1.683  1.9043 -1.5146 -0.3906
 6661TIP3   OH241397   6.345   0.610   0.615 -0.3222  0.5015  0.8259
 6661TIP3    H141398   6.329   0.675   0.684 -0.3520 -0.2373  1.5328
 6661TIP3    H241399   6.258   0.582   0.588 -0.3039  0.4928  0.7768
 6662TIP3   OH241400   5.110   1.444   5.145  0.5928 -0.4168 -0.0326
 6662TIP3    H141401   5.193   1.400   5.160  1.1339  1.0968  1.8409
 6662TIP3    H241402   5.100   1.445   5.049  2.1027 -1.6805 -0.2369
 6663TIP3   OH241403   1.595   2.772  14.131 -0.2137  0.5991 -0.0233
 6663TIP3    H141404   1.596   2.677  14.140  0.5100  0.5672 -0.3970
 6663TIP3    H241405   1.627   2.805  14.215 -0.5049  0.5176  0.1211
 6664TIP3   OH241406   0.970   6.180   1.159  0.4457 -0.6867 -0.4378
 6664TIP3    H141407   0.895   6.144   1.205 -0.1472 -0.5765 -1.2861
 6664TIP3    H241408   1.046   6.150   1.208 -0.1772  0.1557  1.1016
 6665TIP3   OH241409   0.332   2.074  16.726  0.1285  0.4180 -0.0578
 6665TIP3    H141410   0.304   1.986  16.753  0.1259  0.7048  0.9374
 6665TIP3    H241411   0.256   2.109  16.680 -0.8060  0.7781  1.6598
 6666TIP3   OH241412   3.814   3.792  11.975  0.0768 -0.4520 -0.0129
 6666TIP3    H141413   3.756   3.858  12.014 -0.6895 -0.5253 -1.0187
 6666TIP3    H241414   3.756   3.723  11.944  0.9011 -1.9891  1.6389
 6667TIP3   OH241415   1.771   1.555   0.100  0.1012  0.3483  0.2591
 6667TIP3    H141416   1.778   1.551   0.004  0.6494 -0.4435  0.3210
 6667TIP3    H241417   1.721   1.634   0.117 -2.4832 -0.9371 -0.7958
 6668TIP3   OH241418   0.873   1.448  15.558 -0.1699  0.0167 -0.1675
 6668TIP3    H141419   0.891   1.541  15.547 -1.6950  0.3187 -0.3475
 6668TIP3    H241420   0.891   1.409  15.473 -0.0897  0.2500 -0.2585
 6669TIP3   OH241421   6.670   3.826   2.593 -0.3353 -0.4005  0.0518
 6669TIP3    H141422   6.595   3.838   2.535 -1.1894  0.5077  1.2746
 6669TIP3    H241423   6.741   3.874   2.550 -0.7828 -0.2550 -0.5421
 6670TIP3   OH241424   4.634   0.684   3.409  0.3821 -0.1340  0.3994
 6670TIP3    H141425   4.613   0.777   3.424  1.4058  0.0399  0.8051
 6670TIP3    H241426   4.633   0.645   3.496 -0.7215 -0.6704  0.1670
 6671TIP3   OH241427   6.044   1.122  11.031  0.4864  0.3048 -0.1045
 6671TIP3    H141428   5.962   1.172  11.028  0.8308  0.8706 -0.3519
 6671TIP3    H241429   6.030   1.057  11.100 -1.1084 -1.2808 -1.8100
 6672TIP3   OH241430   2.642   6.435  14.106  0.6482 -0.0544 -0.4356
 6672TIP3    H141431   2.620   6.499  14.038  3.0163  1.6045  0.2578
 6672TIP3    H241432   2.606   6.473  14.186  0.6403 -0.4319 -0.2590
 6673TIP3   OH241433   5.393   4.645  14.781 -0.1319 -0.1931 -0.5964
 6673TIP3    H141434   5.453   4.672  14.850 -1.3819 -0.3021  0.5774
 6673TIP3    H241435   5.354   4.727  14.750 -1.2278 -0.2940  0.4294
 6674TIP3   OH241436   0.368   1.294   5.426 -0.4047 -0.0720 -0.1761
 6674TIP3    H141437   0.342   1.364   5.486  1.2268  0.6567 -0.2757
 6674TIP3    H241438   0.328   1.215   5.463 -1.8787  0.7996  0.2048
 6675TIP3   OH241439   2.983   1.635  15.940 -0.0633 -0.0063 -0.0997
 6675TIP3    H141440   3.023   1.558  15.981  2.1569  1.6364  1.0292
 6675TIP3    H241441   2.949   1.686  16.014  1.0228  1.4062 -0.5278
 6676TIP3   OH241442   4.368   0.519  17.284  0.3224 -0.1618 -0.4077
 6676TIP3    H141443   4.336   0.444  17.234 -0.4083 -0.4326  0.4311
 6676TIP3    H241444   4.289   0.559  17.320  0.8858 -1.1792  2.2051
 6677TIP3   OH241445   6.556   2.777  11.033 -0.7034  0.2222 -0.1467
 6677TIP3    H141446   6.529   2.749  10.945  1.5888 -0.9141 -0.5878
 6677TIP3    H241447   6.569   2.871  11.026 -2.5979  0.4906 -0.3993
 6678TIP3   OH241448   5.822   0.697  11.282 -0.1318 -0.1943 -0.7654
 6678TIP3    H141449   5.847   0.727  11.369 -1.1317  0.5789 -0.7350
 6678TIP3    H241450   5.892   0.635  11.257 -0.2005 -0.9590  0.8550
 6679TIP3   OH241451   5.438   0.836  12.038  0.4231  0.7333 -0.2825
 6679TIP3    H141452   5.491   0.849  12.117  0.6514  1.3172 -0.5248
 6679TIP3    H241453   5.398   0.921  12.022  0.3987  0.6256 -0.8077
 6680TIP3   OH241454   3.372   2.103  13.317 -0.3347 -0.9902  0.2805
 6680TIP3    H141455   3.465   2.096  13.336  0.2615 -1.7552 -2.4787
 6680TIP3    H241456   3.353   2.197  13.326  1.6969 -0.1420 -2.7158
 6681TIP3   OH241457   6.122   0.370   2.080  0.2858 -0.7488  0.4266
 6681TIP3    H141458   6.181   0.381   2.155  0.9669  0.3879 -0.2462
 6681TIP3    H241459   6.180   0.358   2.005 -0.0505  3.7660 -0.8234
 6682TIP3   OH241460   5.282   3.519   5.056  0.6469  0.1583  0.1697
 6682TIP3    H141461   5.264   3.590   5.117  0.1427  0.8020 -0.7024
 6682TIP3    H241462   5.369   3.538   5.022 -0.1698  1.3793 -1.3717
 6683TIP3   OH241463   5.137   0.872  12.399 -0.5262 -0.3233 -0.0700
 6683TIP3    H141464   5.178   0.827  12.325 -0.0010  1.1331 -0.7037
 6683TIP3    H241465   5.170   0.826  12.476  0.9155 -0.3227 -0.6459
 6684TIP3   OH241466   0.887   0.984  14.135  0.1275  0.1024  0.1533
 6684TIP3    H141467   0.973   0.946  14.154 -0.4259 -1.7616 -0.8442
 6684TIP3    H241468   0.827   0.909  14.134 -1.1906  1.1149 -1.0830
 6685TIP3   OH241469   6.086   3.988  15.701  0.0405  0.3072  0.1586
 6685TIP3    H141470   6.126   3.986  15.614 -0.2457 -0.1845  0.0362
 6685TIP3    H241471   6.010   4.044  15.692  0.1565  0.4646  0.1571
 6686TIP3   OH241472   6.701   0.995   6.038 -0.3386  0.2912  0.3854
 6686TIP3    H141473   6.621   0.968   6.082  0.7787 -0.3564  2.1226
 6686TIP3    H241474   6.749   0.914   6.022 -0.0869  0.6526 -0.7673
 6687TIP3   OH241475   2.768   4.677  15.794 -0.0517 -0.1116  0.5752
 6687TIP3    H141476   2.764   4.638  15.706  0.5281 -0.3745  0.6675
 6687TIP3    H241477   2.728   4.611  15.851 -0.9491  0.2957  0.4326
 6688TIP3   OH241478   3.979   2.458  16.317 -0.2322  0.1672  0.0333
 6688TIP3    H141479   4.069   2.471  16.346 -0.0863  1.2570 -0.8478
 6688TIP3    H241480   3.986   2.422  16.229 -0.6159  1.8752 -0.7346
 6689TIP3   OH241481   1.047   3.824   4.192 -0.3966 -0.2800 -0.0591
 6689TIP3    H141482   1.018   3.911   4.220  1.7712 -0.1434  2.0386
 6689TIP3    H241483   0.966   3.774   4.183 -1.5775  1.3976  0.6088
 6690TIP3   OH241484   5.747   4.531  14.594  0.5874 -0.3901  0.4014
 6690TIP3    H141485   5.682   4.588  14.635  0.5491  1.2549 -1.7481
 6690TIP3    H241486   5.697   4.477  14.533  1.1597  1.2510 -1.6573
 6691TIP3   OH241487   2.083   0.645  11.408  0.4627 -0.3925  0.0327
 6691TIP3    H141488   2.047   0.567  11.366  0.9856  0.3078 -1.8077
 6691TIP3    H241489   2.063   0.716  11.348  1.2514  0.6725  0.9818
 6692TIP3   OH241490   2.090   1.130   2.875  0.8990 -0.4285 -0.0768
 6692TIP3    H141491   2.106   1.040   2.845  2.9318  0.3155 -1.4598
 6692TIP3    H241492   2.146   1.140   2.952 -1.3177 -1.0779  1.7526
 6693TIP3   OH241493   6.632   6.361  16.854  0.0728  0.2003 -0.1224
 6693TIP3    H141494   6.568   6.312  16.803  0.4855 -0.3645 -0.1031
 6693TIP3    H241495   6.606   6.452  16.844 -1.2105 -0.0630  0.5119
 6694TIP3   OH241496   5.329   1.049  13.927  0.2189  0.0426  0.5090
 6694TIP3    H141497   5.234   1.051  13.916  0.2980 -0.9159 -0.5928
 6694TIP3    H241498   5.346   0.971  13.979  0.4294 -0.1497  0.1604
 6695TIP3   OH241499   1.092   2.623  16.352 -0.2706 -0.0829  0.2869
 6695TIP3    H141500   1.159   2.600  16.287 -1.7259 -1.8298 -0.6940
 6695TIP3    H241501   1.078   2.717  16.340  1.3131  0.1467 -0.0962
 6696TIP3   OH241502   0.133   3.826   1.581 -0.4641 -0.2409  0.2892
 6696TIP3    H141503   0.183   3.767   1.526 -1.5173 -1.9760  1.1112
 6696TIP3    H241504   0.158   3.914   1.552  1.3485 -1.0653 -0.7876
 6697TIP3   OH241505   0.197   5.710   4.082 -0.2981 -0.4477  0.2159
 6697TIP3    H141506   0.200   5.619   4.111 -1.5870 -0.3741  0.6396
 6697TIP3    H241507   0.258   5.755   4.139  0.2494 -1.0211  0.0929
 6698TIP3   OH241508   0.726   2.366   0.993 -0.0540  0.4678 -0.2032
 6698TIP3    H141509   0.752   2.454   0.967 -1.3363  1.3009  1.1497
 6698TIP3    H241510   0.772   2.308   0.933  0.7316  2.0626 -1.1964
 6699TIP3   OH241511   1.594   4.430   2.496 -0.0947 -0.4336 -0.4978
 6699TIP3    H141512   1.516   4.484   2.481 -1.6367 -2.8836 -2.0031
 6699TIP3    H241513   1.564   4.358   2.551  1.6943 -0.3226  0.7252
 6700TIP3   OH241514   3.247   5.818  14.102  0.0754  0.0034  0.8095
 6700TIP3    H141515   3.314   5.863  14.049 -0.4320  0.6546  0.7045
 6700TIP3    H241516   3.241   5.731  14.063  0.1965  0.2480  0.2201
 6701TIP3   OH241517   1.032   1.330  13.097  0.1417 -0.4759  0.1530
 6701TIP3    H141518   1.047   1.280  13.177 -0.0850 -0.2200  0.3544
 6701TIP3    H241519   1.067   1.417  13.115  0.7271 -0.6136 -0.2702
 6702TIP3   OH241520   5.849   6.219   1.861 -0.2554  0.2034 -0.0588
 6702TIP3    H141521   5.775   6.248   1.807  0.6901 -0.8712 -2.0262
 6702TIP3    H241522   5.820   6.137   1.900  0.3935 -1.1100 -2.1663
 6703TIP3   OH241523   1.904   0.293  14.353  0.0182  0.3209  0.0484
 6703TIP3    H141524   1.991   0.255  14.349 -0.5017 -0.8932  0.0030
 6703TIP3    H241525   1.904   0.345  14.434 -0.0852 -1.9415  1.5746
 6704TIP3   OH241526   1.584   5.726   0.151  0.1534  0.3872  0.2700
 6704TIP3    H141527   1.492   5.748   0.163 -0.3110 -1.0074 -0.4731
 6704TIP3    H241528   1.604   5.664   0.221  0.2201 -0.1241 -0.1945
 6705TIP3   OH241529   0.865   3.630  14.532 -0.1365 -0.2980  0.2549
 6705TIP3    H141530   0.822   3.558  14.578 -0.4166  0.0873  0.5985
 6705TIP3    H241531   0.937   3.655  14.589 -0.8210  0.5505  0.7547
 6706TIP3   OH241532   4.349   3.391  13.116  0.2202  0.0492 -0.2543
 6706TIP3    H141533   4.263   3.430  13.135  1.2166  1.7914  0.9789
 6706TIP3    H241534   4.331   3.298  13.104 -1.8048  0.3180  0.2768
 6707TIP3   OH241535   5.145   5.136   6.348 -0.2600  0.0263 -0.5740
 6707TIP3    H141536   5.234   5.110   6.371 -1.2999 -4.4338 -0.7599
 6707TIP3    H241537   5.155   5.224   6.311  4.0447 -0.3283 -0.7771
 6708TIP3   OH241538   5.019   3.221   5.443  0.4188 -0.1146  0.0911
 6708TIP3    H141539   5.083   3.225   5.372  1.4556  1.1345  1.0545
 6708TIP3    H241540   5.050   3.283   5.508  0.3737 -2.3319  2.4070
 6709TIP3   OH241541   4.745   4.437   6.445 -0.7299 -0.0375  0.1284
 6709TIP3    H141542   4.807   4.372   6.478  0.8393  1.7322  0.8323
 6709TIP3    H241543   4.758   4.513   6.502 -2.3013  1.0078 -0.8399
 6710TIP3   OH241544   5.873   3.875   4.344  0.3151 -0.2473  0.3132
 6710TIP3    H141545   5.958   3.911   4.370  0.5166 -1.5719  1.6150
 6710TIP3    H241546   5.854   3.808   4.410 -1.1121 -0.9165 -0.7257
 6711TIP3   OH241547   1.488   4.370  17.298 -0.2199 -0.2969  0.4644
 6711TIP3    H141548   1.554   4.316  17.253 -0.3786 -0.4246  0.3814
 6711TIP3    H241549   1.534   4.405  17.374  0.4671  1.0501 -0.5305
 6712TIP3   OH241550   3.625   1.883   4.638  0.5729  1.0523 -0.2455
 6712TIP3    H141551   3.673   1.931   4.571  2.3409  0.0584  0.2258
 6712TIP3    H241552   3.691   1.826   4.678 -1.0969 -0.6694  0.2039
 6713TIP3   OH241553   3.230   2.433  15.144 -0.2642 -0.1759 -0.0334
 6713TIP3    H141554   3.291   2.500  15.174 -0.1871 -0.8639  1.4105
 6713TIP3    H241555   3.277   2.389  15.072 -0.2930  1.2280 -0.9588
 6714TIP3   OH241556   5.454   4.495  11.861 -0.1540 -0.0480  0.1351
 6714TIP3    H141557   5.490   4.582  11.880 -1.5287  0.5368  0.1854
 6714TIP3    H241558   5.527   4.435  11.877  1.0511  1.1471 -0.6348
 6715TIP3   OH241559   1.268   2.050  15.887  0.0794  0.2220  0.3319
 6715TIP3    H141560   1.246   2.041  15.979 -1.3577  1.2328  0.1396
 6715TIP3    H241561   1.330   2.123  15.884 -1.1696  1.3382  0.3950
 6716TIP3   OH241562   2.615   1.090  16.636  0.3847 -0.4980  0.0791
 6716TIP3    H141563   2.642   1.175  16.602 -0.7939  0.4432  1.3781
 6716TIP3    H241564   2.654   1.086  16.724 -3.4911  0.9838  2.0901
 6717TIP3   OH241565   2.017   0.522   1.082  0.5805 -0.4321  0.1050
 6717TIP3    H141566   2.071   0.601   1.076  1.1478 -0.6367  1.9863
 6717TIP3    H241567   2.079   0.451   1.094  0.0236 -1.0468 -0.5834
 6718TIP3   OH241568   4.228   3.212   2.135  0.2454 -0.2048 -0.6449
 6718TIP3    H141569   4.276   3.147   2.084  0.4748 -1.7278  1.3923
 6718TIP3    H241570   4.162   3.161   2.182 -0.5301  1.2609 -0.0964
 6719TIP3   OH241571   4.146   4.775  17.043 -0.1894  0.1607  0.1312
 6719TIP3    H141572   4.234   4.799  17.071 -0.3971  0.7584  0.2891
 6719TIP3    H241573   4.100   4.859  17.035 -1.3837 -0.2364  2.1906
 6720TIP3   OH241574   0.460   3.928  16.964 -0.2496 -0.5966  0.2322
 6720TIP3    H141575   0.523   3.945  17.034  0.3896  0.1103 -0.4957
 6720TIP3    H241576   0.503   3.865  16.907 -0.8503 -1.3258  0.5560
 6721TIP3   OH241577   0.370   4.852   0.377 -0.4061 -0.0932  0.5155
 6721TIP3    H141578   0.281   4.840   0.345 -1.0084  1.2932  1.5514
 6721TIP3    H241579   0.423   4.860   0.297 -1.2634 -0.5188 -0.1139
 6722TIP3   OH241580   0.594   6.679  11.005  0.0773 -0.0456 -0.0854
 6722TIP3    H141581   0.661   6.714  10.945 -0.6831  1.0616 -0.3196
 6722TIP3    H241582   0.513   6.722  10.977 -0.6013 -0.8169  0.6637
 6723TIP3   OH241583   1.316   5.802  13.472  0.1476  0.1170  0.4978
 6723TIP3    H141584   1.295   5.889  13.437 -1.1043 -0.5143 -0.3813
 6723TIP3    H241585   1.356   5.756  13.398  0.5322 -0.1673  0.8783
 6724TIP3   OH241586   1.458   5.527   5.199 -0.4337  0.7922 -0.1169
 6724TIP3    H141587   1.481   5.472   5.275 -0.7849  0.9456  0.1025
 6724TIP3    H241588   1.370   5.559   5.219 -0.9677 -0.0213 -1.0744
 6725TIP3   OH241589   0.886   6.121  11.958 -0.4621 -0.7245 -0.0205
 6725TIP3    H141590   0.980   6.102  11.959 -0.6399 -1.6281  0.4142
 6725TIP3    H241591   0.878   6.206  12.000  0.1929 -0.4867 -0.3672
 6726TIP3   OH241592   6.361   2.427   2.500 -0.0221  0.6550 -0.2229
 6726TIP3    H141593   6.420   2.472   2.561 -0.5327 -0.6825  1.3256
 6726TIP3    H241594   6.378   2.468   2.416  2.8621  0.6223  0.2314
 6727TIP3   OH241595   2.227   3.694  15.657  0.2173 -0.4183  0.0108
 6727TIP3    H141596   2.211   3.737  15.573  1.9425 -0.0297 -0.1379
 6727TIP3    H241597   2.314   3.723  15.684  0.0547 -1.2170  1.5245
 6728TIP3   OH241598   1.439   2.217   5.099  0.4057  0.0407  0.1363
 6728TIP3    H141599   1.497   2.201   5.174 -1.8321  0.7344  2.1183
 6728TIP3    H241600   1.446   2.311   5.083 -0.1724  0.1319  0.4028
 6729TIP3   OH241601   0.288   1.697   0.049 -0.7539  0.1909 -0.2275
 6729TIP3    H141602   0.343   1.775   0.042 -0.4253  0.1913  1.7147
 6729TIP3    H241603   0.329   1.633  -0.008  1.2512  0.2281  1.0900
 6730TIP3   OH241604   2.046   6.716   5.515 -0.2288  0.7052  0.1188
 6730TIP3    H141605   2.111   6.649   5.492 -0.3321 -0.0152  1.7763
 6730TIP3    H241606   1.965   6.686   5.474  0.2326  1.0596 -1.0887
 6731TIP3   OH241607   0.581   2.155  16.640  0.3498  0.5283  0.3961
 6731TIP3    H141608   0.644   2.087  16.663  0.1517 -0.0685 -0.7654
 6731TIP3    H241609   0.497   2.121  16.669  0.2900  0.4196  0.0911
 6732TIP3   OH241610   1.175   4.831   2.864  0.4407 -0.1529  0.5613
 6732TIP3    H141611   1.101   4.878   2.902  1.1705 -0.3566  2.3205
 6732TIP3    H241612   1.205   4.772   2.933  1.5608 -0.8929 -0.4967
 6733TIP3   OH241613   6.265   4.008   3.554  0.1842  0.1075 -0.0969
 6733TIP3    H141614   6.340   3.949   3.550 -0.0771 -0.1850 -0.8315
 6733TIP3    H241615   6.213   3.975   3.627 -0.7689 -1.5943 -1.4468
 6734TIP3   OH241616   4.764   6.456   2.550 -0.0203  0.2924  0.3388
 6734TIP3    H141617   4.770   6.550   2.570  2.8333  0.0375  1.0097
 6734TIP3    H241618   4.680   6.448   2.504 -1.2878  2.8369  1.9118
 6735TIP3   OH241619   3.690   5.333   0.847  0.5069 -0.0363  0.0429
 6735TIP3    H141620   3.761   5.269   0.861  1.2658  0.7324 -0.2589
 6735TIP3    H241621   3.699   5.360   0.756 -1.8552 -1.9081 -0.8533
 6736TIP3   OH241622   6.610   2.664  15.184 -0.5501 -0.4361  0.8971
 6736TIP3    H141623   6.658   2.631  15.260 -0.1214 -0.3945  0.6512
 6736TIP3    H241624   6.620   2.595  15.118 -0.4693 -0.2397  0.7023
 6737TIP3   OH241625   5.570   2.324   4.489  0.1584  0.5957  0.4151
 6737TIP3    H141626   5.648   2.375   4.467 -1.3144  2.3334 -1.1826
 6737TIP3    H241627   5.509   2.388   4.524 -1.4420 -0.2044 -0.7844
 6738TIP3   OH241628   4.015   4.483   2.050 -0.7624  0.2308  0.4106
 6738TIP3    H141629   3.998   4.411   1.989  0.5765 -0.8948  1.2964
 6738TIP3    H241630   3.928   4.514   2.075 -1.4357 -1.7102  0.6910
 6739TIP3   OH241631   1.443   5.562   4.261 -0.0920  0.0359 -0.3197
 6739TIP3    H141632   1.538   5.550   4.262 -0.1295 -0.2580  1.4076
 6739TIP3    H241633   1.407   5.474   4.251 -0.2146  0.2398 -2.1058
 6740TIP3   OH241634   1.815   0.139   1.490 -0.3877  0.0080 -0.1234
 6740TIP3    H141635   1.811   0.227   1.453 -0.7418  0.6612  1.3795
 6740TIP3    H241636   1.758   0.086   1.434 -1.6205  1.1575 -0.0139
 6741TIP3   OH241637   5.858   6.248  16.620 -0.0353 -0.2823 -0.1544
 6741TIP3    H141638   5.901   6.334  16.619 -0.7469  0.0742 -0.2134
 6741TIP3    H241639   5.920   6.191  16.667  1.0814 -0.0851 -1.3102
 6742TIP3   OH241640   1.856   3.650  16.369 -0.3390  0.0717  0.2522
 6742TIP3    H141641   1.825   3.601  16.445 -0.7786 -0.6582 -0.3876
 6742TIP3    H241642   1.867   3.584  16.301  0.8957  0.5937 -0.0665
 6743TIP3   OH241643   6.179   6.337   0.644 -0.2409 -0.4345  0.1355
 6743TIP3    H141644   6.162   6.328   0.550 -0.2671 -1.3353  0.2161
 6743TIP3    H241645   6.120   6.274   0.685  0.1584 -0.4281  0.7237
 6744TIP3   OH241646   4.010   4.805  15.505 -0.2791  0.3640  0.1162
 6744TIP3    H141647   4.092   4.765  15.478 -0.6829  0.7340 -1.8448
 6744TIP3    H241648   3.958   4.733  15.541  0.0034 -0.3615 -0.8979
 6745TIP3   OH241649   3.588   6.649   4.076  0.0408 -0.7063  0.3056
 6745TIP3    H141650   3.645   6.694   4.013 -0.4482  1.3804  1.2790
 6745TIP3    H241651   3.541   6.584   4.024  1.0904 -0.3962 -1.0902
 6746TIP3   OH241652   4.902   5.721   1.105  0.0001 -0.1676  0.2856
 6746TIP3    H141653   4.947   5.685   1.182 -1.5133  2.0530  2.3632
 6746TIP3    H241654   4.850   5.648   1.071  0.6993 -1.2098  1.3647
 6747TIP3   OH241655   0.724   4.650   4.506  0.1048 -0.0441 -0.7153
 6747TIP3    H141656   0.676   4.658   4.588 -0.4954 -1.4025 -0.9184
 6747TIP3    H241657   0.712   4.735   4.463  1.1411  1.0177  0.9411
 6748TIP3   OH241658   4.330   0.374   4.219 -0.5097  0.0858 -0.3385
 6748TIP3    H141659   4.400   0.434   4.193  0.5945 -0.4362  1.3078
 6748TIP3    H241660   4.249   0.422   4.200  0.3272  1.7271  0.0968
 6749TIP3   OH241661   2.053   0.301   1.249  0.4589  0.7519 -0.2851
 6749TIP3    H141662   1.958   0.308   1.258  0.3321  1.0982 -1.7458
 6749TIP3    H241663   2.088   0.369   1.306  0.0656 -2.0331  3.7385
 6750TIP3   OH241664   0.427   3.805  12.831  0.2177 -0.3012  0.0569
 6750TIP3    H141665   0.444   3.824  12.924  2.5713  2.4659 -0.7932
 6750TIP3    H241666   0.495   3.742  12.807  0.0892 -0.4290  0.0270
 6751TIP3   OH241667   2.549   3.427  15.314  0.4112 -0.3310 -0.2741
 6751TIP3    H141668   2.491   3.503  15.317 -2.0057 -2.0665  0.1316
 6751TIP3    H241669   2.637   3.462  15.330 -0.6358  2.3057  0.1007
 6752TIP3   OH241670   0.462   1.900   0.041 -0.4052 -0.1347 -0.0300
 6752TIP3    H141671   0.529   1.967   0.026  0.1276 -0.3756  1.1374
 6752TIP3    H241672   0.405   1.937   0.108 -1.2766 -0.0532 -0.8067
 6753TIP3   OH241673   1.331   0.041   0.331  0.1913  0.2472  0.4518
 6753TIP3    H141674   1.311  -0.049   0.358  0.9836  0.3377  1.4223
 6753TIP3    H241675   1.424   0.052   0.353  0.6315  0.6921 -1.4283
 6754TIP3   OH241676   5.906   1.111   5.799 -0.4284 -0.3731  0.0247
 6754TIP3    H141677   5.904   1.017   5.787 -0.6231 -0.3661 -0.0137
 6754TIP3    H241678   5.999   1.134   5.800 -0.3625 -0.6422  0.6438
 6755TIP3   OH241679   4.427   4.864  13.620  0.1356 -0.2851  0.1545
 6755TIP3    H141680   4.390   4.899  13.539  0.4430  0.8123  0.4685
 6755TIP3    H241681   4.482   4.935  13.654  2.3887 -1.7739 -0.1867
 6756TIP3   OH241682   4.099   2.347   2.341  0.5255  0.9922  0.6099
 6756TIP3    H141683   4.041   2.357   2.266 -0.1799 -1.0336  0.8392
 6756TIP3    H241684   4.184   2.378   2.310  0.1457  0.5921 -0.8866
 6757TIP3   OH241685   5.183   3.396  17.300  0.0080 -0.4717  0.0625
 6757TIP3    H141686   5.163   3.482  17.262 -3.1903 -1.9209 -1.9159
 6757TIP3    H241687   5.178   3.411  17.395 -0.1619  1.5639 -0.2126
 6758TIP3   OH241688   3.944   4.652   5.094  0.7723  0.8687 -0.2972
 6758TIP3    H141689   3.876   4.702   5.140 -0.8363 -0.8567 -0.7036
 6758TIP3    H241690   3.963   4.705   5.016 -0.3806  1.1996 -0.3686
 6759TIP3   OH241691   5.218   1.706  12.009 -0.1540 -0.3697  0.2750
 6759TIP3    H141692   5.248   1.796  12.022  1.7676 -1.2824  3.3345
 6759TIP3    H241693   5.142   1.698  12.068 -2.2304 -0.0711 -2.1652
 6760TIP3   OH241694   5.414   6.718   2.230  0.3160 -0.3972  0.3441
 6760TIP3    H141695   5.471   6.737   2.156  2.2454  0.4060  1.9346
 6760TIP3    H241696   5.326   6.719   2.194  1.1243  0.8353 -1.7647
 6761TIP3   OH241697   0.019   1.701  16.074  0.1345 -0.4292 -0.1116
 6761TIP3    H141698   0.063   1.686  16.158 -0.4378  0.0173  0.2741
 6761TIP3    H241699   0.089   1.690  16.008  1.3438  2.1651  0.5872
 6762TIP3   OH241700   1.518   3.067   4.736  0.0921  0.6741 -0.3292
 6762TIP3    H141701   1.493   3.028   4.652  3.3299  1.6647 -1.9218
 6762TIP3    H241702   1.538   2.992   4.792  0.4809 -0.0126 -1.3506
 6763TIP3   OH241703   1.279   5.125   0.130 -0.3199 -0.0574 -0.0406
 6763TIP3    H141704   1.321   5.055   0.180  0.2306 -0.1465 -0.6166
 6763TIP3    H241705   1.306   5.109   0.040  1.1131  1.8037  0.0130
 6764TIP3   OH241706   5.433   5.225  15.206 -0.2935  0.5450  0.4029
 6764TIP3    H141707   5.357   5.256  15.255  0.1073  0.8172  0.8684
 6764TIP3    H241708   5.402   5.215  15.116 -1.4813 -1.5250  0.9813
 6765TIP3   OH241709   1.625   1.834   6.220 -0.3501  0.3328  0.4638
 6765TIP3    H141710   1.542   1.853   6.264  0.4979  1.4085  1.6666
 6765TIP3    H241711   1.605   1.839   6.127 -2.0637 -1.3794  0.6643
 6766TIP3   OH241712   1.192   2.656   0.512 -0.1554  0.3294 -0.2636
 6766TIP3    H141713   1.217   2.694   0.428  0.1830 -0.8102 -0.7059
 6766TIP3    H241714   1.272   2.614   0.544 -0.9658 -1.7852 -0.8108
 6767TIP3   OH241715   3.863   1.856   5.271 -0.0073  0.0167 -0.1298
 6767TIP3    H141716   3.791   1.919   5.275  0.1914  0.1863  1.0042
 6767TIP3    H241717   3.848   1.797   5.345 -0.7770 -1.9521 -1.7373
 6768TIP3   OH241718   2.319   1.567   6.465  0.1738  0.5076 -0.5428
 6768TIP3    H141719   2.395   1.574   6.407  1.3445 -1.1500  0.6992
 6768TIP3    H241720   2.332   1.485   6.512 -1.0884  1.4357  1.5675
 6769TIP3   OH241721   5.932   6.528  11.376  0.7766  0.9154 -0.0199
 6769TIP3    H141722   5.912   6.440  11.344  2.8848  0.9781 -1.7740
 6769TIP3    H241723   5.941   6.580  11.296 -1.0671  2.9391  1.0006
 6770TIP3   OH241724   1.287   0.367  10.527  0.4200  0.2228 -0.1728
 6770TIP3    H141725   1.357   0.394  10.587 -0.7579 -1.2648  2.0073
 6770TIP3    H241726   1.222   0.437  10.534  1.6271  1.6628 -2.2859
 6771TIP3   OH241727   1.838   6.405  15.947 -0.3909  0.3850 -1.1987
 6771TIP3    H141728   1.817   6.314  15.966  1.1456  0.5180  1.5613
 6771TIP3    H241729   1.909   6.401  15.883 -0.0597 -0.3571 -0.7897
 6772TIP3   OH241730   3.461   4.115   2.175  0.5314 -0.3188 -0.7489
 6772TIP3    H141731   3.379   4.152   2.141 -0.0648 -0.0448  0.9120
 6772TIP3    H241732   3.529   4.157   2.123 -0.1944  2.1512  0.1370
 6773TIP3   OH241733   0.331   1.626  14.355 -0.7804 -0.5241 -0.3818
 6773TIP3    H141734   0.280   1.705  14.338  0.9501  0.4322 -1.4699
 6773TIP3    H241735   0.342   1.586  14.269 -0.4260 -1.1642 -0.0416
 6774TIP3   OH241736   2.317   2.752   0.143 -0.1303  0.5376 -0.2659
 6774TIP3    H141737   2.382   2.730   0.210 -0.8809  0.4671  0.4425
 6774TIP3    H241738   2.251   2.684   0.149 -0.2724  0.5970 -1.0049
 6775TIP3   OH241739   6.546   3.748  11.144 -0.7309  0.2966  0.3635
 6775TIP3    H141740   6.612   3.709  11.087  0.7089  0.6473  1.7266
 6775TIP3    H241741   6.471   3.689  11.137  0.1713 -0.8245 -0.2659
 6776TIP3   OH241742   2.171   3.819   2.671  0.5461 -0.2843  0.2251
 6776TIP3    H141743   2.238   3.770   2.719 -0.3848 -2.7478 -0.8403
 6776TIP3    H241744   2.168   3.778   2.585 -0.1663  1.8470 -0.8513
 6777TIP3   OH241745   1.066   3.143   4.833 -0.1507 -1.0042 -0.3442
 6777TIP3    H141746   1.071   3.160   4.739  3.0468 -0.5970 -0.1990
 6777TIP3    H241747   1.063   3.230   4.873  2.2217 -1.0024 -0.0307
 6778TIP3   OH241748   5.816   3.448  15.936 -0.9171 -0.3312  0.5919
 6778TIP3    H141749   5.887   3.441  15.871 -1.9189  0.6772 -0.6591
 6778TIP3    H241750   5.855   3.497  16.008 -0.6884  1.4923 -0.6851
 6779TIP3   OH241751   5.443   2.161  14.497  0.0798  0.2851 -0.2939
 6779TIP3    H141752   5.347   2.158  14.505  0.1991 -0.0086  1.3916
 6779TIP3    H241753   5.466   2.250  14.523  0.1650  0.9596 -2.5067
 6780TIP3   OH241754   6.562   6.437   3.754  0.0011 -0.3501 -0.1233
 6780TIP3    H141755   6.607   6.436   3.839  1.1690  0.6410 -0.6928
 6780TIP3    H241756   6.484   6.490   3.769  0.0995 -0.3384  0.3757
 6781TIP3   OH241757   5.841   4.138  14.443  0.5304  0.0667  0.2532
 6781TIP3    H141758   5.894   4.130  14.522  1.3918  1.0282 -0.1907
 6781TIP3    H241759   5.866   4.223  14.407  0.0678 -0.3018 -0.9820
 6782TIP3   OH241760   4.228   3.213  14.076  0.5438  0.3611 -0.1972
 6782TIP3    H141761   4.135   3.226  14.058  0.8436  1.3322 -1.1389
 6782TIP3    H241762   4.251   3.284  14.136  0.9879  1.0019 -1.1044
 6783TIP3   OH241763   2.528   0.528  14.403 -0.3545 -0.8018 -0.2003
 6783TIP3    H141764   2.460   0.594  14.389 -0.6000 -1.0576 -0.2272
 6783TIP3    H241765   2.512   0.496  14.491  1.1315  0.7393  0.6785
 6784TIP3   OH241766   6.724   5.370   2.082 -0.0747 -0.6352  0.2484
 6784TIP3    H141767   6.757   5.459   2.093  0.6430 -1.1643  2.9321
 6784TIP3    H241768   6.730   5.354   1.987 -0.8948  2.3704 -0.4255
 6785TIP3   OH241769   1.672   0.665   3.762 -0.1959 -0.2847 -0.2760
 6785TIP3    H141770   1.727   0.593   3.732 -0.8432 -1.5192  1.3467
 6785TIP3    H241771   1.625   0.694   3.684  0.3948 -1.3443 -1.0369
 6786TIP3   OH241772   3.590   0.217  16.243  0.1661  0.1072  0.5715
 6786TIP3    H141773   3.628   0.293  16.199 -0.8317  0.3156  0.0258
 6786TIP3    H241774   3.602   0.145  16.181 -0.3491  0.1862  0.3716
 6787TIP3   OH241775   3.424   5.241  13.939 -0.5025  0.0177 -0.5346
 6787TIP3    H141776   3.474   5.164  13.912 -0.6103  0.0473 -0.8312
 6787TIP3    H241777   3.474   5.280  14.010 -0.3634 -0.2350 -0.4954
 6788TIP3   OH241778   6.547   1.419   0.566 -0.0856  0.2717 -0.0201
 6788TIP3    H141779   6.526   1.367   0.644 -2.1234 -3.2113 -2.5845
 6788TIP3    H241780   6.634   1.388   0.539  0.2439  0.8365  0.3883
 6789TIP3   OH241781   3.091   6.460  17.085  0.0240  0.3682  0.4450
 6789TIP3    H141782   3.093   6.367  17.105  2.9434  0.5385  1.3839
 6789TIP3    H241783   3.112   6.465  16.992  0.2912  0.1070  0.4903
 6790TIP3   OH241784   1.104   4.175  15.837 -0.5359  0.1881  0.0537
 6790TIP3    H141785   1.168   4.244  15.822  0.5675 -0.1361  2.8017
 6790TIP3    H241786   1.069   4.192  15.924 -0.9480 -2.1704  0.4235
 6791TIP3   OH241787   3.430   4.376  11.065 -0.3166  0.2264 -0.3465
 6791TIP3    H141788   3.522   4.401  11.058 -0.5077  1.1837  0.2909
 6791TIP3    H241789   3.408   4.340  10.979  0.4330  0.7610 -0.7739
 6792TIP3   OH241790   2.974   5.628  13.829  0.1704 -0.2439 -0.9545
 6792TIP3    H141791   3.057   5.604  13.788 -0.3464 -1.8312 -1.1692
 6792TIP3    H241792   2.924   5.670  13.759  0.7283  0.5898 -0.8611
 6793TIP3   OH241793   3.209   1.860  16.276 -0.5558 -0.2643 -0.4875
 6793TIP3    H141794   3.188   1.903  16.358 -0.9961 -0.9077 -0.2512
 6793TIP3    H241795   3.247   1.776  16.302 -0.6818 -0.4630 -0.9342
 6794TIP3   OH241796   5.384   4.181   1.449 -0.3674 -0.1842  0.2504
 6794TIP3    H141797   5.477   4.164   1.437  0.0125  1.1527  1.1247
 6794TIP3    H241798   5.374   4.275   1.438 -1.5843 -0.2753  0.3696
 6795TIP3   OH241799   1.028   6.392   4.456 -0.1147  0.0085  0.1532
 6795TIP3    H141800   1.117   6.359   4.466 -0.0751  0.2590  0.6575
 6795TIP3    H241801   0.978   6.317   4.421  0.1689 -0.3062  0.4142
 6796TIP3   OH241802   4.095   3.817   1.031  0.5492 -0.3892  0.1507
 6796TIP3    H141803   4.093   3.808   1.127  1.2555  3.1354  0.6545
 6796TIP3    H241804   4.004   3.835   1.007  0.6901  1.1003  0.5841
 6797TIP3   OH241805   0.383   5.936   1.251 -0.5596  0.5193 -0.4770
 6797TIP3    H141806   0.449   5.889   1.303 -1.5394 -2.5694 -1.7553
 6797TIP3    H241807   0.430   6.010   1.214  1.1976  0.5013  1.5384
 6798TIP3   OH241808   4.765   4.828  13.589 -0.0949 -0.5918  0.0743
 6798TIP3    H141809   4.702   4.888  13.628 -1.2504 -2.0141  0.4496
 6798TIP3    H241810   4.838   4.827  13.651 -0.1197  0.2958  0.1324
 6799TIP3   OH241811   2.062   1.290  15.100 -0.4344  0.5049  0.6008
 6799TIP3    H141812   2.147   1.245  15.096 -0.7084  0.0467 -1.8332
 6799TIP3    H241813   2.009   1.235  15.158 -0.4268 -1.8933 -1.4734
 6800TIP3   OH241814   4.068   6.328   2.825 -0.2113 -0.1007 -0.1554
 6800TIP3    H141815   4.164   6.323   2.826 -0.2622 -1.6078  0.8495
 6800TIP3    H241816   4.042   6.323   2.917 -1.2790 -1.0339 -0.4815
 6801TIP3   OH241817   0.746   0.466   0.314  0.4381 -0.1900  0.1674
 6801TIP3    H141818   0.818   0.445   0.254  1.0269 -0.4461  0.9425
 6801TIP3    H241819   0.668   0.436   0.269  1.0865 -2.6030  0.5201
 6802TIP3   OH241820   3.790   5.833   0.151  0.5451  0.3494 -0.0607
 6802TIP3    H141821   3.792   5.739   0.168 -2.2457 -0.1985 -2.0136
 6802TIP3    H241822   3.815   5.842   0.060  1.9790  1.6989  0.4142
 6803TIP3   OH241823   5.341   6.020   5.305 -0.2227 -0.4543  0.4557
 6803TIP3    H141824   5.278   6.091   5.300  1.0386  0.6118 -1.4669
 6803TIP3    H241825   5.423   6.058   5.275  0.8937 -2.3052  0.9517
 6804TIP3   OH241826   3.408   0.602  16.622  0.0025  0.5527 -0.0183
 6804TIP3    H141827   3.370   0.659  16.689  1.2061  0.6672  0.5922
 6804TIP3    H241828   3.336   0.545  16.596 -0.5409  0.6219  1.2471
 6805TIP3   OH241829   3.304   2.375   2.026 -0.4065  0.2892 -0.6725
 6805TIP3    H141830   3.290   2.387   1.933  2.1228 -1.0982 -1.3370
 6805TIP3    H241831   3.386   2.422   2.045 -0.5530  0.0469  0.7217
 6806TIP3   OH241832   4.828   3.373   0.488 -0.5554 -0.1239 -0.0210
 6806TIP3    H141833   4.794   3.445   0.435  1.6757  0.8677 -0.2231
 6806TIP3    H241834   4.920   3.365   0.462 -0.3530 -2.0545  1.0868
 6807TIP3   OH241835   0.958   3.856  15.175  0.1881 -0.4999 -0.4549
 6807TIP3    H141836   1.032   3.894  15.127  0.6201 -1.4097 -0.5361
 6807TIP3    H241837   0.897   3.829  15.106 -0.8930  1.4889 -0.3563
 6808TIP3   OH241838   3.510   0.815  14.004 -0.4708  0.1599  0.2703
 6808TIP3    H141839   3.604   0.813  14.020 -0.5369 -1.5779  0.6118
 6808TIP3    H241840   3.472   0.835  14.090 -0.4960 -1.8922  0.7900
 6809TIP3   OH241841   5.176   1.780  17.171 -0.7757 -0.3123 -1.1710
 6809TIP3    H141842   5.248   1.746  17.224 -1.6593  0.0197  0.3034
 6809TIP3    H241843   5.204   1.767  17.081  0.0940 -2.4034 -0.6511
 6810TIP3   OH241844   1.426   1.524  16.128 -0.6150 -0.3764 -0.1934
 6810TIP3    H141845   1.408   1.585  16.199  2.0542  0.8701 -0.4684
 6810TIP3    H241846   1.420   1.577  16.048  0.7164 -0.6793 -0.5180
 6811TIP3   OH241847   0.836   5.179  10.603 -0.3800  0.4646  0.5578
 6811TIP3    H141848   0.829   5.185  10.698  0.7648  0.5515  0.6537
 6811TIP3    H241849   0.920   5.220  10.583 -0.9985  1.2195 -0.5790
 6812TIP3   OH241850   4.275   4.471  17.055  0.0893 -1.1276  0.1665
 6812TIP3    H141851   4.259   4.531  16.982 -3.9095 -3.0887 -0.8405
 6812TIP3    H241852   4.290   4.528  17.130  3.5360  0.9775 -1.8257
 6813TIP3   OH241853   3.443   5.886  12.732  0.2254 -0.1818  1.0210
 6813TIP3    H141854   3.420   5.824  12.802 -2.0714 -0.8292 -0.1703
 6813TIP3    H241855   3.386   5.961  12.748  0.1750 -0.0554  0.2614
 6814TIP3   OH241856   0.760   0.502   2.427  0.8468  0.6802  0.2456
 6814TIP3    H141857   0.834   0.462   2.380  2.6585  3.6428  0.3193
 6814TIP3    H241858   0.800   0.569   2.481 -1.7950  1.1790  1.7158
 6815TIP3   OH241859   5.591   0.038   2.031 -0.2336 -0.2292 -0.4492
 6815TIP3    H141860   5.591  -0.048   1.989  1.0549 -0.6271  0.2788
 6815TIP3    H241861   5.684   0.054   2.051 -0.6784  0.3675  1.3321
 6816TIP3   OH241862   6.545   0.931  13.554  0.0413  0.4873  0.3103
 6816TIP3    H141863   6.638   0.942  13.572  0.1901 -1.2093  0.6856
 6816TIP3    H241864   6.528   0.990  13.481  1.6528  0.0135 -0.4917
 6817TIP3   OH241865   4.258   3.960   3.266 -0.2558 -0.0840  0.3456
 6817TIP3    H141866   4.177   4.008   3.250  0.0734  0.4837  0.3731
 6817TIP3    H241867   4.279   3.978   3.357 -1.3748 -2.1854  1.1072
 6818TIP3   OH241868   3.160   1.056   5.434 -0.1894 -0.1840  0.8224
 6818TIP3    H141869   3.168   1.124   5.501  1.6002  1.6924 -1.1474
 6818TIP3    H241870   3.248   1.049   5.395 -1.4534 -0.0065 -2.3819
 6819TIP3   OH241871   2.204   3.620   0.132 -0.1254  0.7421  1.2540
 6819TIP3    H141872   2.229   3.712   0.122 -0.0316  0.5852 -0.1408
 6819TIP3    H241873   2.110   3.622   0.149 -1.1109  1.0061 -3.1240
 6820TIP3   OH241874   3.525   5.942   1.104 -0.4954 -0.1876 -0.2744
 6820TIP3    H141875   3.457   5.875   1.110 -0.0835 -0.6527 -0.7112
 6820TIP3    H241876   3.557   5.937   1.014 -0.3869  0.5297 -0.2829
 6821TIP3   OH241877   1.732   1.222   1.838  0.1918  0.2499 -0.3907
 6821TIP3    H141878   1.753   1.171   1.760  1.1936 -0.7762  0.5122
 6821TIP3    H241879   1.751   1.313   1.813  2.4394 -0.2581 -0.7556
 6822TIP3   OH241880   6.647   3.891   2.984  0.6392  0.3342  0.5051
 6822TIP3    H141881   6.639   3.981   3.014 -1.4641 -0.1743  1.6466
 6822TIP3    H241882   6.602   3.839   3.050 -0.5047 -1.2968 -1.4280
 6823TIP3   OH241883   3.989   6.032  11.970  0.0559  0.5259  0.4767
 6823TIP3    H141884   3.943   6.114  11.989 -0.6005  0.0335  1.0548
 6823TIP3    H241885   3.959   6.007  11.883  1.0175  1.3933 -0.1389
 6824TIP3   OH241886   3.658   4.818   1.385 -0.6524  0.5820  0.0209
 6824TIP3    H141887   3.648   4.728   1.354 -0.2087 -0.9520  3.7888
 6824TIP3    H241888   3.751   4.837   1.376 -0.3320 -0.2735  1.3313
 6825TIP3   OH241889   6.507   4.334   5.795 -0.2069 -0.3614  1.0063
 6825TIP3    H141890   6.593   4.323   5.837  0.8326  0.4114 -0.8090
 6825TIP3    H241891   6.465   4.249   5.805  2.2352 -1.9739 -1.0695
 6826TIP3   OH241892   1.170   4.019  11.649 -0.2348  0.5432 -0.3163
 6826TIP3    H141893   1.168   4.000  11.555  0.4671  2.3408 -0.7333
 6826TIP3    H241894   1.245   4.077  11.660  1.1107 -1.4529  1.7595
 6827TIP3   OH241895   2.441   4.505  11.306  0.2217  0.2342 -0.0451
 6827TIP3    H141896   2.368   4.566  11.310 -0.2423 -0.3678  1.0982
 6827TIP3    H241897   2.401   4.419  11.320  0.9735 -0.2595 -0.7971
 6828TIP3   OH241898   4.880   2.545  16.435 -0.0934  0.5833  0.0501
 6828TIP3    H141899   4.951   2.530  16.372  0.6247  1.9768  0.4698
 6828TIP3    H241900   4.831   2.619  16.398 -0.6020  0.4053  0.3661
 6829TIP3   OH241901   0.377   0.445   3.187  0.0979 -0.1957  0.2747
 6829TIP3    H141902   0.299   0.414   3.142  0.2634  1.0664 -0.9522
 6829TIP3    H241903   0.448   0.391   3.152  0.5353  1.9702 -2.5667
 6830TIP3   OH241904   3.789   5.498   2.009  0.2011 -1.0147 -0.1556
 6830TIP3    H141905   3.697   5.512   2.030  0.2713 -0.7912  0.0086
 6830TIP3    H241906   3.796   5.404   1.993 -0.7060 -0.6332 -3.3603
 6831TIP3   OH241907   1.051   2.494   0.102 -0.1679 -0.2426 -0.3464
 6831TIP3    H141908   1.107   2.569   0.120 -2.5765  1.5639  0.0116
 6831TIP3    H241909   1.084   2.459   0.019  1.5799  0.5900 -0.0542
 6832TIP3   OH241910   5.004   1.793   0.833  0.0661  0.0107  0.1155
 6832TIP3    H141911   4.979   1.707   0.867 -0.1935  0.2960  0.6712
 6832TIP3    H241912   4.961   1.799   0.748 -0.5043 -0.1321  0.3873
 6833TIP3   OH241913   5.926   0.083   5.123 -0.1437  0.0668  0.5725
 6833TIP3    H141914   5.995   0.064   5.188 -0.0098  0.6094  0.5946
 6833TIP3    H241915   5.850   0.107   5.175 -0.1525  0.1190  0.5356
 6834TIP3   OH241916   4.834   6.436   1.101 -0.1405  0.6558  0.2660
 6834TIP3    H141917   4.893   6.498   1.058  0.7144  0.2646  0.8448
 6834TIP3    H241918   4.892   6.377   1.150 -0.9176 -0.7324 -0.4183
 6835TIP3   OH241919   0.556   0.278  13.525  0.7790 -0.0727 -0.0260
 6835TIP3    H141920   0.608   0.315  13.454  0.1305  0.7082 -0.1087
 6835TIP3    H241921   0.558   0.345  13.594 -1.5167  0.7674 -0.6915
 6836TIP3   OH241922   3.449   6.384  13.333  0.5841  0.1333 -0.1946
 6836TIP3    H141923   3.499   6.388  13.251  0.3235  2.7036 -0.3206
 6836TIP3    H241924   3.365   6.425  13.311 -0.2446 -0.9094  0.9114
 6837TIP3   OH241925   0.087   5.956   0.100 -0.1360 -0.2152  0.5296
 6837TIP3    H141926   0.002   5.936   0.140  0.0095  1.0566  1.5417
 6837TIP3    H241927   0.068   5.959   0.006 -1.2888  0.3213  0.7533
 6838TIP3   OH241928   3.633   3.283   4.013 -0.8563  0.4904  0.1205
 6838TIP3    H141929   3.649   3.210   4.072 -3.3774 -0.5101 -0.2978
 6838TIP3    H241930   3.577   3.343   4.062 -2.0746  0.1731 -0.8127
 6839TIP3   OH241931   3.936   6.291  11.694  0.0674 -0.4458 -0.0346
 6839TIP3    H141932   3.883   6.256  11.764 -0.0907 -1.0270 -0.4405
 6839TIP3    H241933   3.948   6.384  11.716 -0.3740 -0.5186  0.5052
 6840TIP3   OH241934   0.674   1.455  14.174 -0.1122 -0.3968  0.1199
 6840TIP3    H141935   0.757   1.495  14.151 -0.5649  2.0389  2.2322
 6840TIP3    H241936   0.697   1.386  14.236  0.3984 -0.8005 -0.5005
 6841TIP3   OH241937   2.566   5.621  16.002  0.0947 -0.1507  0.0958
 6841TIP3    H141938   2.560   5.547  16.061  1.8954 -0.4395 -0.0090
 6841TIP3    H241939   2.632   5.678  16.042  0.3289  0.3186 -0.9238
 6842TIP3   OH241940   6.363   4.918  14.573 -0.1345  0.7557 -0.5856
 6842TIP3    H141941   6.448   4.921  14.531  0.2790  0.9070  0.2287
 6842TIP3    H241942   6.371   4.850  14.640  0.5755  3.1230  1.9560
 6843TIP3   OH241943   6.644   0.602  11.300  0.1649  0.4615 -0.3701
 6843TIP3    H141944   6.670   0.620  11.210  0.9163  0.3788 -0.1767
 6843TIP3    H241945   6.592   0.677  11.326 -0.8514  0.0594 -1.1790
 6844TIP3   OH241946   4.587   2.536  10.481  0.2882 -0.2052 -0.0966
 6844TIP3    H141947   4.542   2.582  10.552 -1.0141 -0.9276 -0.4371
 6844TIP3    H241948   4.594   2.446  10.511  0.1755 -0.4128 -0.6869
 6845TIP3   OH241949   4.051   5.133   0.338  0.8031 -0.5060  0.1176
 6845TIP3    H141950   4.050   5.214   0.286  1.1834 -1.6346 -1.7547
 6845TIP3    H241951   3.979   5.144   0.400  0.9924  1.3541  0.0643
 6846TIP3   OH241952   3.147   1.559  15.379  0.0137 -0.3028 -0.4665
 6846TIP3    H141953   3.213   1.504  15.337  0.8657 -0.0312  0.4745
 6846TIP3    H241954   3.189   1.591  15.459 -0.8533  0.8114 -0.4251
 6847TIP3   OH241955   0.032   4.285   5.839 -0.3689  0.2562  0.1579
 6847TIP3    H141956   0.094   4.346   5.799 -1.8535  0.4483 -2.1036
 6847TIP3    H241957   0.047   4.202   5.793 -1.1637  0.0831  0.1955
 6848TIP3   OH241958   2.900   6.171   0.232  0.4879  0.2644 -0.3532
 6848TIP3    H141959   2.917   6.241   0.295 -1.0132 -0.0531  0.4525
 6848TIP3    H241960   2.818   6.197   0.190 -2.0014 -2.5106  2.3133
 6849TIP3   OH241961   2.600   0.359  11.009  0.0473 -0.2473 -0.1853
 6849TIP3    H141962   2.504   0.354  11.016 -0.0958  0.4012 -1.4857
 6849TIP3    H241963   2.629   0.268  11.013 -0.6132 -0.4511  0.2296
 6850TIP3   OH241964   6.112   6.130   5.557  0.0573  0.7832 -0.1993
 6850TIP3    H141965   6.168   6.137   5.634  1.6824 -0.8989 -1.1636
 6850TIP3    H241966   6.151   6.189   5.493  1.7150 -1.4515 -1.3733
 6851TIP3   OH241967   5.258   4.510  12.875  0.0073  0.5869 -0.1381
 6851TIP3    H141968   5.205   4.521  12.796  1.7119 -2.0186 -1.8039
 6851TIP3    H241969   5.211   4.447  12.928  1.6015 -2.3681 -1.9954
 6852TIP3   OH241970   0.886   1.461  12.634 -0.0648 -0.0974 -0.4310
 6852TIP3    H141971   0.895   1.421  12.548  0.6295 -0.7555 -0.0711
 6852TIP3    H241972   0.959   1.425  12.685 -1.3619 -1.0004  0.8940
 6853TIP3   OH241973   0.508   3.882   6.233 -0.2376  0.8459  0.0149
 6853TIP3    H141974   0.522   3.914   6.322  0.1429 -1.0162  0.6595
 6853TIP3    H241975   0.464   3.798   6.244 -0.8042  0.8915 -1.6012
 6854TIP3   OH241976   4.382   5.881   4.423 -0.3187  0.1670  0.3979
 6854TIP3    H141977   4.325   5.827   4.479 -0.1601  1.0116  1.4067
 6854TIP3    H241978   4.328   5.955   4.398 -0.6047 -0.5480 -1.1770
 6855TIP3   OH241979   4.690   3.287   0.942  0.0820  0.7698 -0.0155
 6855TIP3    H141980   4.664   3.291   0.849 -3.5223 -0.6734  0.7251
 6855TIP3    H241981   4.737   3.204   0.949 -0.7205  0.2650 -0.3835
 6856TIP3   OH241982   3.788   4.657   0.241 -0.3552 -0.0249 -0.3941
 6856TIP3    H141983   3.771   4.694   0.328  0.3993 -0.9203  0.1585
 6856TIP3    H241984   3.874   4.615   0.249  0.6972  1.6449 -2.1867
 6857TIP3   OH241985   1.146   4.021   2.460  0.0995 -0.0585  0.0343
 6857TIP3    H141986   1.241   4.037   2.462  0.0882  0.1423 -0.6252
 6857TIP3    H241987   1.108   4.100   2.498  0.2549 -1.0176  2.3499
 6858TIP3   OH241988   3.970   6.479  17.064  0.8796  0.0788 -0.2911
 6858TIP3    H141989   3.922   6.502  16.985 -0.8686 -0.5339  0.5457
 6858TIP3    H241990   3.986   6.385  17.056 -0.2285 -0.1984  0.5275
 6859TIP3   OH241991   5.078   4.274  14.528 -0.4439 -0.4057 -0.3676
 6859TIP3    H141992   5.074   4.327  14.449 -1.2009  1.4975  0.8756
 6859TIP3    H241993   5.167   4.284  14.560 -0.2617 -0.8327 -0.7229
 6860TIP3   OH241994   0.976   4.078  13.739 -1.0359 -0.0672  0.0456
 6860TIP3    H141995   0.980   4.144  13.670  0.2397  0.4044  0.5419
 6860TIP3    H241996   0.933   4.003  13.698  1.1342 -0.4104 -1.7973
 6861TIP3   OH241997   5.582   5.009   3.415 -0.6460  0.1210 -0.1598
 6861TIP3    H141998   5.621   5.092   3.442 -0.5847  0.0301  0.0345
 6861TIP3    H241999   5.503   5.002   3.470  0.1761 -0.6986  0.9509
 6862TIP3   OH242000   2.576   0.513   0.676 -0.3315 -0.4728  0.4421
 6862TIP3    H142001   2.517   0.459   0.728 -2.0789  0.6420 -0.2843
 6862TIP3    H242002   2.526   0.534   0.597  0.3209  2.0145  0.5985
 6863TIP3   OH242003   1.850   4.547   4.697 -0.0711 -0.3353 -0.0848
 6863TIP3    H142004   1.785   4.601   4.744 -0.3698 -0.3352 -0.4896
 6863TIP3    H242005   1.808   4.528   4.613  0.4261 -0.4065 -0.3163
 6864TIP3   OH242006   1.138   6.142  12.786  0.4106 -0.3501 -0.2241
 6864TIP3    H142007   1.231   6.160  12.774  0.0284  0.9973 -1.4088
 6864TIP3    H242008   1.118   6.177  12.873  0.2466  2.9332 -1.4580
 6865TIP3   OH242009   0.583   3.933  17.220 -0.0014  0.0612 -0.3587
 6865TIP3    H142010   0.525   3.956  17.293  0.1775  0.1107 -0.2314
 6865TIP3    H242011   0.654   3.884  17.261 -0.4806 -0.9146 -0.6495
 6866TIP3   OH242012   0.797   4.499  11.970  0.3035  0.0536  0.0297
 6866TIP3    H142013   0.721   4.507  11.912 -0.2269 -0.1624  0.6694
 6866TIP3    H242014   0.838   4.585  11.968 -0.6174  0.5282  0.5274
 6867TIP3   OH242015   2.806   4.357   4.156  0.0404 -0.5179 -0.2913
 6867TIP3    H142016   2.772   4.287   4.100 -0.3993  0.2669 -1.0380
 6867TIP3    H242017   2.885   4.387   4.111 -1.2221  1.2615 -1.4640
 6868TIP3   OH242018   0.792   2.974   2.245  0.1017 -0.0329  0.2824
 6868TIP3    H142019   0.737   2.914   2.194  0.0072 -0.0698  0.4257
 6868TIP3    H242020   0.825   2.921   2.318 -0.5687  0.2653  0.8185
 6869TIP3   OH242021   3.023   6.679  11.080  0.0377 -0.3870  0.6496
 6869TIP3    H142022   3.010   6.773  11.072 -1.8306 -0.5715  1.0443
 6869TIP3    H242023   3.048   6.651  10.992 -0.2756  0.3514  0.3179
 6870TIP3   OH242024   4.737   1.218   2.488 -0.1988  0.3947 -0.9610
 6870TIP3    H142025   4.694   1.283   2.432 -1.1132  0.6259 -0.0199
 6870TIP3    H242026   4.687   1.138   2.474 -1.7046  0.9242  0.9491
 6871TIP3   OH242027   3.403   3.905  13.934 -0.4305  0.2434 -0.1324
 6871TIP3    H142028   3.431   3.925  14.023 -0.2664 -2.0605  0.3957
 6871TIP3    H242029   3.480   3.866  13.892 -0.4238  1.5212 -1.4138
 6872TIP3   OH242030   1.463   0.187  11.599  0.2326  0.6739 -0.2517
 6872TIP3    H142031   1.497   0.114  11.650 -0.4584 -0.2173 -1.0417
 6872TIP3    H242032   1.368   0.178  11.605  0.1308  1.8726  0.1517
 6873TIP3   OH242033   6.017   6.471  12.299 -0.3144 -0.0404  0.5023
 6873TIP3    H142034   5.978   6.553  12.328  1.0121  0.3460  1.2840
 6873TIP3    H242035   5.992   6.407  12.365  0.5788  0.2737  1.1677
 6874TIP3   OH242036   1.623   0.445  12.028 -0.7795  1.0402 -0.3643
 6874TIP3    H142037   1.636   0.386  12.103  0.1225 -1.2591 -2.1894
 6874TIP3    H242038   1.529   0.461  12.026 -1.0733 -0.4336  0.1862
 6875TIP3   OH242039   2.177   4.956   2.256 -0.2201 -0.0872  0.5366
 6875TIP3    H142040   2.093   4.914   2.237 -0.8237  0.8114  1.2143
 6875TIP3    H242041   2.242   4.891   2.227 -1.1235 -1.4529  1.4191
 6876TIP3   OH242042   2.104   3.253  10.588 -0.1116 -0.1848  0.1271
 6876TIP3    H142043   2.055   3.334  10.606 -1.1324 -0.4570 -1.2754
 6876TIP3    H242044   2.191   3.270  10.624 -0.7691  0.9213  1.2913
 6877TIP3   OH242045   4.381   3.108   5.542  0.0423  0.2755 -0.4690
 6877TIP3    H142046   4.474   3.085   5.536 -0.0445  0.0177 -0.8921
 6877TIP3    H242047   4.379   3.191   5.589  0.4212 -0.2215  0.4615
 6878TIP3   OH242048   5.467   4.499   5.969  0.1402  0.4820  0.8338
 6878TIP3    H142049   5.401   4.531   5.908  0.7002 -1.4332 -0.9422
 6878TIP3    H242050   5.532   4.569   5.974  0.6066  0.3375 -1.7028
 6879TIP3   OH242051   1.454   0.192   3.173  0.2036 -0.4270  0.3660
 6879TIP3    H142052   1.485   0.156   3.256  0.4826  0.2161  0.5380
 6879TIP3    H242053   1.519   0.164   3.108 -0.0301 -0.9533  0.3495
 6880TIP3   OH242054   0.572   0.247   3.098  0.0697 -0.2332 -0.2828
 6880TIP3    H142055   0.604   0.242   3.188 -0.0897 -1.2915 -0.2648
 6880TIP3    H242056   0.651   0.242   3.045  0.1885  0.7073 -0.2056
 6881TIP3   OH242057   5.951   0.546  16.673 -0.0573 -0.9011 -0.0818
 6881TIP3    H142058   5.961   0.452  16.685  0.2206 -0.9991 -0.9819
 6881TIP3    H242059   6.040   0.578  16.657  0.0574 -0.2475  1.6580
 6882TIP3   OH242060   4.605   6.694  13.071  0.1018  0.4221  0.4834
 6882TIP3    H142061   4.516   6.660  13.079 -1.0016  3.1427  1.0653
 6882TIP3    H242062   4.618   6.709  12.978  0.3045 -0.7407  0.3094
 6883TIP3   OH242063   2.675   6.147   4.289  0.1915 -0.0811  0.3381
 6883TIP3    H142064   2.645   6.234   4.315 -1.6336 -0.3345 -0.7418
 6883TIP3    H242065   2.625   6.127   4.209 -0.3641 -2.6024  1.2192
 6884TIP3   OH242066   4.326   3.938   4.392  0.1853  0.0691 -0.0368
 6884TIP3    H142067   4.294   3.979   4.312  2.4152  0.7219 -0.6733
 6884TIP3    H242068   4.257   3.877   4.417  0.5374 -2.3875 -4.1115
 6885TIP3   OH242069   4.887   1.692   1.918  0.0468  0.2603  0.1292
 6885TIP3    H142070   4.837   1.610   1.906  2.1745 -1.1207  0.2451
 6885TIP3    H242071   4.826   1.750   1.964 -1.6718 -1.0923 -0.3179
 6886TIP3   OH242072   2.005   6.412   1.964  0.2898 -0.0357  0.1636
 6886TIP3    H142073   1.917   6.375   1.976  0.2045 -0.2280 -0.9916
 6886TIP3    H242074   1.990   6.506   1.957  0.3772  0.1322  1.7742
 6887TIP3   OH242075   2.363   1.358   5.103  0.4865  0.1194 -0.3199
 6887TIP3    H142076   2.407   1.280   5.136  1.2223  0.0605 -1.4027
 6887TIP3    H242077   2.346   1.411   5.181 -0.1355 -1.1672  0.4365
 6888TIP3   OH242078   6.192   4.619   1.250  0.2022 -0.0173  0.0100
 6888TIP3    H142079   6.107   4.647   1.286 -0.0117 -0.0740 -0.4489
 6888TIP3    H242080   6.212   4.684   1.183  0.8593  0.3882  0.5892
 6889TIP3   OH242081   2.686   6.353   1.580 -0.0420  0.3545 -0.1676
 6889TIP3    H142082   2.712   6.326   1.493  0.8293 -1.1862  0.5300
 6889TIP3    H242083   2.767   6.351   1.631 -0.9157 -1.3488  1.2751
 6890TIP3   OH242084   5.164   5.692   3.480  0.6040  0.1801 -1.1934
 6890TIP3    H142085   5.190   5.639   3.404  0.8387  1.0363 -1.7262
 6890TIP3    H242086   5.191   5.640   3.556  2.7254  0.4156 -1.7108
 6891TIP3   OH242087   5.800   5.867  10.809 -0.6799  0.3704 -0.2979
 6891TIP3    H142088   5.886   5.840  10.777 -0.3286  1.5079 -0.3371
 6891TIP3    H242089   5.819   5.914  10.890 -1.4530 -1.3382  0.9584
 6892TIP3   OH242090   0.579   1.915   0.432 -0.0272 -0.6670 -0.6730
 6892TIP3    H142091   0.511   1.903   0.366 -1.2432 -2.0131  0.7219
 6892TIP3    H242092   0.531   1.940   0.511  1.3275  0.4015 -0.1603
 6893TIP3   OH242093   3.397   2.043   2.303  0.1942 -0.0721 -0.3177
 6893TIP3    H142094   3.311   2.035   2.262  0.7131 -1.6047 -1.2080
 6893TIP3    H242095   3.394   2.126   2.350 -1.8676 -0.2358 -0.0687
 6894TIP3   OH242096   0.795   0.978   2.362 -0.9228 -0.1941 -0.4658
 6894TIP3    H142097   0.798   0.946   2.272 -2.7763 -1.7399 -0.0412
 6894TIP3    H242098   0.773   0.900   2.414  0.4288  0.5915  1.3799
 6895TIP3   OH242099   2.286   4.449  12.334  0.2213 -0.1216 -0.2242
 6895TIP3    H142100   2.263   4.515  12.400  2.2617  1.2271 -0.7691
 6895TIP3    H242101   2.257   4.366  12.372 -1.8023  0.9750  0.7927
 6896TIP3   OH242102   6.205   5.281   2.046 -0.3281 -0.2015  0.3761
 6896TIP3    H142103   6.201   5.193   2.085 -2.4863 -0.5141 -0.3995
 6896TIP3    H242104   6.292   5.314   2.069  0.8340 -2.8268  0.0381
 6897TIP3   OH242105   2.350   2.344  15.339  0.2211 -0.1948 -0.1371
 6897TIP3    H142106   2.417   2.406  15.312 -0.9829  0.8481 -0.8794
 6897TIP3    H242107   2.291   2.395  15.394 -0.8085 -0.6379 -0.7842
 6898TIP3   OH242108   1.279   1.566   3.063 -0.1812  0.2786 -0.4075
 6898TIP3    H142109   1.248   1.564   3.154 -1.6717  0.6535 -0.8673
 6898TIP3    H242110   1.259   1.655   3.034  1.2207  0.4795 -0.8133
 6899TIP3   OH242111   3.907   1.210   3.488  0.2802 -0.4903 -0.2611
 6899TIP3    H142112   3.957   1.283   3.523 -2.0273  1.2492 -0.3276
 6899TIP3    H242113   3.956   1.182   3.411  0.3546  2.2715 -1.3347
 6900TIP3   OH242114   3.607   3.983   0.715  0.0875  0.8381 -0.0061
 6900TIP3    H142115   3.626   3.889   0.706 -1.6912  0.6113 -4.9697
 6900TIP3    H242116   3.534   3.986   0.777  2.0818 -0.5675  2.6163
 6901TIP3   OH242117   6.577   5.947   1.962  0.1587 -0.0382  0.3289
 6901TIP3    H142118   6.493   5.919   1.998  0.0239  1.5487  1.3461
 6901TIP3    H242119   6.555   5.983   1.876  0.2842 -2.4882 -0.8219
 6902TIP3   OH242120   5.702   5.315   5.955 -0.0168  0.1658 -0.6165
 6902TIP3    H142121   5.652   5.345   6.031 -1.0324 -2.4554 -0.1418
 6902TIP3    H242122   5.639   5.264   5.904  1.4746 -0.9265 -1.4567
 6903TIP3   OH242123   4.475   6.658  13.503 -0.3374 -0.2679  0.0619
 6903TIP3    H142124   4.446   6.703  13.423  0.3107  1.3216  0.6836
 6903TIP3    H242125   4.565   6.633  13.485 -0.5830 -1.0318 -0.1474
 6904TIP3   OH242126   6.040   1.210  15.937  0.1920 -0.6024  0.0682
 6904TIP3    H142127   5.959   1.261  15.931  0.3604 -0.2212  0.8141
 6904TIP3    H242128   6.011   1.124  15.966  0.0292 -0.5230  0.1446
 6905TIP3   OH242129   6.303   0.409   0.101 -0.3332  0.0765 -0.3921
 6905TIP3    H142130   6.323   0.316   0.094  0.1428  0.2722 -2.9350
 6905TIP3    H242131   6.386   0.450   0.126 -0.1458 -0.0639 -0.7750
 6906TIP3   OH242132   0.471   4.720   4.674 -0.6256  0.1381 -0.5620
 6906TIP3    H142133   0.487   4.636   4.715 -0.5123 -0.4449 -1.7623
 6906TIP3    H242134   0.390   4.707   4.624 -0.3254  0.5739 -1.1730
 6907TIP3   OH242135   5.500   0.681   1.773 -0.1915 -0.3341 -0.4189
 6907TIP3    H142136   5.535   0.594   1.794  1.1103  0.5803  1.5410
 6907TIP3    H242137   5.551   0.711   1.699  1.7719  0.0720  1.0197
 6908TIP3   OH242138   0.061   0.150  15.698  0.3306 -0.2881  0.2191
 6908TIP3    H142139   0.127   0.193  15.754  1.7093 -0.6025 -1.0924
 6908TIP3    H242140   0.057   0.060  15.730  0.1502 -0.1427  0.6202
 6909TIP3   OH242141   3.971   3.815  16.245  0.8314 -0.0568 -0.1033
 6909TIP3    H142142   3.995   3.726  16.272 -1.7796 -0.6608  0.4357
 6909TIP3    H242143   3.932   3.853  16.323 -0.9777  0.4275 -1.1983
 6910TIP3   OH242144   2.255   5.929  12.750  0.3184 -0.4882 -0.1347
 6910TIP3    H142145   2.304   6.010  12.739  0.4437 -0.2515  1.7958
 6910TIP3    H242146   2.179   5.939  12.692 -0.0448  1.3467  0.5894
 6911TIP3   OH242147   4.690   5.896  12.909  0.2089 -0.2715  0.8892
 6911TIP3    H142148   4.682   5.803  12.888  0.8822 -0.0808 -0.3017
 6911TIP3    H242149   4.625   5.939  12.853  2.4873  0.3155 -1.5144
 6912TIP3   OH242150   2.317   6.301  11.175 -0.2958 -0.1643  0.1331
 6912TIP3    H142151   2.388   6.306  11.111 -1.1443  2.1125 -0.7052
 6912TIP3    H242152   2.248   6.251  11.131  0.3149 -1.4420  0.5538
 6913TIP3   OH242153   5.268   0.726   1.165  0.2637  0.4131  0.7210
 6913TIP3    H142154   5.332   0.663   1.131  0.0499 -0.3567  1.6868
 6913TIP3    H242155   5.252   0.786   1.093  0.2143 -0.8497 -0.3425
 6914TIP3   OH242156   3.129   2.394   5.804 -0.4103 -0.1015 -0.0596
 6914TIP3    H142157   3.089   2.481   5.796 -0.0336  0.0326 -0.5313
 6914TIP3    H242158   3.181   2.399   5.884 -0.9695 -0.1324  0.3133
 6915TIP3   OH242159   1.637   0.441  12.932 -0.0865 -0.6980  0.5117
 6915TIP3    H142160   1.649   0.471  12.842 -0.2063 -0.8112  0.4583
 6915TIP3    H242161   1.608   0.518  12.980  1.6719 -0.1872  0.8271
 6916TIP3   OH242162   1.754   2.995   2.710  0.0804 -0.0193  0.1949
 6916TIP3    H142163   1.717   3.082   2.721 -0.1433  0.0476 -0.9142
 6916TIP3    H242164   1.694   2.951   2.649 -0.4066 -1.3321  1.5656
 6917TIP3   OH242165   5.427   2.717  14.529  0.3430 -0.1740 -0.2958
 6917TIP3    H142166   5.517   2.703  14.559 -0.2934  0.9501  2.4056
 6917TIP3    H242167   5.389   2.777  14.593 -2.7327 -1.6080 -0.5784
 6918TIP3   OH242168   5.145   1.882  11.503 -0.1661 -0.3412  0.0889
 6918TIP3    H142169   5.207   1.810  11.492  1.1043  0.5944  0.8183
 6918TIP3    H242170   5.151   1.932  11.422  1.1714  0.5624  0.7089
 6919TIP3   OH242171   5.764   3.971   2.131 -0.0714  0.1689  0.2678
 6919TIP3    H142172   5.769   3.932   2.044 -0.5340 -1.3303  0.8818
 6919TIP3    H242173   5.695   3.922   2.176  0.0310  1.0311  1.4228
 6920TIP3   OH242174   6.714   5.181  14.724  0.3871  0.3852  0.1525
 6920TIP3    H142175   6.646   5.147  14.666 -0.1830 -1.7666  1.9504
 6920TIP3    H242176   6.670   5.250  14.775  0.2672  0.6875 -0.3479
 6921TIP3   OH242177   2.432   5.508  16.532  0.0509  0.2150 -0.4804
 6921TIP3    H142178   2.465   5.418  16.532 -1.1121 -0.2399 -0.7652
 6921TIP3    H242179   2.510   5.563  16.531  0.9083 -0.7323  2.6075
 6922TIP3   OH242180   3.631   6.047  12.604  0.5144 -0.0309 -0.1691
 6922TIP3    H142181   3.636   5.982  12.534 -0.8112 -0.2160 -0.1154
 6922TIP3    H242182   3.556   6.019  12.657 -0.5386  1.9274 -0.5527
 6923TIP3   OH242183   0.835   5.952   2.289  0.3717 -0.1940 -0.1552
 6923TIP3    H142184   0.801   5.994   2.210 -1.6428  0.6515  1.0842
 6923TIP3    H242185   0.779   5.874   2.300 -0.9327  0.9308  1.6322
 6924TIP3   OH242186   5.864   3.545  10.838 -0.0990  0.2666  0.0937
 6924TIP3    H142187   5.793   3.483  10.821 -0.0110  0.0024  0.6609
 6924TIP3    H242188   5.942   3.502  10.804  0.0080 -0.0669  0.7516
 6925TIP3   OH242189   6.679   2.296   5.143  0.6126 -0.1366 -0.0429
 6925TIP3    H142190   6.664   2.266   5.053  1.7643 -0.1789 -0.2420
 6925TIP3    H242191   6.775   2.295   5.152  0.5495  0.8891  0.8342
 6926TIP3   OH242192   5.793   4.106  15.712 -0.2556 -0.2279 -0.1245
 6926TIP3    H142193   5.725   4.100  15.644 -1.5526  0.1628  1.0852
 6926TIP3    H242194   5.746   4.135  15.790  0.8231 -2.4652  1.4664
 6927TIP3   OH242195   6.061   0.733   1.199 -0.1063  0.0513  0.4106
 6927TIP3    H142196   5.980   0.755   1.153 -0.3215  0.3080  0.9019
 6927TIP3    H242197   6.061   0.791   1.275 -0.2766 -1.0854  1.2996
 6928TIP3   OH242198   1.570   2.072   0.894 -0.1288  0.0088 -0.2711
 6928TIP3    H142199   1.663   2.050   0.896 -0.4973 -1.7713 -1.0861
 6928TIP3    H242200   1.540   2.056   0.984  0.3356  0.5949 -0.0030
 6929TIP3   OH242201   3.346   0.006   1.099  0.2087  0.0934 -0.2978
 6929TIP3    H142202   3.353  -0.089   1.103  1.0911  0.1727  0.5786
 6929TIP3    H242203   3.330   0.033   1.190  0.9585  0.8336 -0.3706
 6930TIP3   OH242204   6.748   2.218   6.444 -0.1203  0.0857 -0.4756
 6930TIP3    H142205   6.674   2.254   6.395  0.5891 -0.3793 -1.9502
 6930TIP3    H242206   6.710   2.188   6.527 -1.4296  0.5179 -0.8988
 6931TIP3   OH242207   5.257   1.859   1.748 -0.6105  0.4007  0.3968
 6931TIP3    H142208   5.338   1.824   1.711 -1.1876  1.5464 -2.2035
 6931TIP3    H242209   5.189   1.799   1.719 -0.9845  0.8171  0.4050
 6932TIP3   OH242210   5.783   2.861   2.784  0.0237 -0.0148 -0.3865
 6932TIP3    H142211   5.760   2.940   2.833  1.2053 -0.3150  0.7016
 6932TIP3    H242212   5.844   2.891   2.717 -0.0253  0.1005 -0.3790
 6933TIP3   OH242213   2.598   2.023  15.122  0.2566 -0.3740 -0.3084
 6933TIP3    H142214   2.605   1.942  15.072 -1.4226  0.0896 -1.4022
 6933TIP3    H242215   2.639   2.089  15.065 -0.0816 -0.1389 -0.2814
 6934TIP3   OH242216   5.988   4.853   4.942 -0.0877  0.4050  0.1155
 6934TIP3    H142217   5.993   4.831   4.849  1.2337  2.3799 -0.3418
 6934TIP3    H242218   5.935   4.932   4.946 -1.7095 -0.6579  1.3073
 6935TIP3   OH242219   3.875   2.317  12.705  0.9733 -0.1993 -0.4460
 6935TIP3    H142220   3.883   2.410  12.685  1.4261 -0.1423 -0.0395
 6935TIP3    H242221   3.782   2.299  12.701  0.7187  0.6182  0.9266
 6936TIP3   OH242222   0.690   4.290   5.003 -0.6338 -0.3724 -0.4293
 6936TIP3    H142223   0.767   4.337   4.974 -1.9666  1.3639 -1.3749
 6936TIP3    H242224   0.662   4.239   4.927 -0.8217 -0.4181 -0.3316
 6937TIP3   OH242225   2.703   2.572  13.472  0.0128  0.1051  0.1338
 6937TIP3    H142226   2.618   2.545  13.436 -1.3235  2.3958  1.3046
 6937TIP3    H242227   2.757   2.591  13.395 -0.1541 -2.3143 -0.6455
 6938TIP3   OH242228   3.139   1.246   0.174 -0.7311 -0.0429  0.2304
 6938TIP3    H142229   3.230   1.263   0.196 -0.6660 -0.1376  0.0301
 6938TIP3    H242230   3.110   1.184   0.241 -0.1251 -1.4458 -0.7832
 6939TIP3   OH242231   6.608   6.497   2.817 -0.4105  0.0657 -0.0865
 6939TIP3    H142232   6.597   6.452   2.900 -2.3820  0.8467  0.1149
 6939TIP3    H242233   6.651   6.580   2.839 -1.0044  0.3058  0.1572
 6940TIP3   OH242234   2.760   0.907   5.975 -0.0642  0.1558  0.3358
 6940TIP3    H142235   2.670   0.887   5.950 -0.2379  1.3245 -0.0054
 6940TIP3    H242236   2.812   0.878   5.900 -0.4231  1.9445 -0.6633
 6941TIP3   OH242237   4.825   0.211   2.810  0.3725  0.5623 -0.0376
 6941TIP3    H142238   4.858   0.223   2.721  1.0250 -0.4259  0.0533
 6941TIP3    H242239   4.734   0.185   2.798  0.0148  1.8537 -0.3430
 6942TIP3   OH242240   4.732   5.797   0.227  0.8216 -0.2615 -0.0404
 6942TIP3    H142241   4.726   5.757   0.314  1.1258 -1.8762 -0.7323
 6942TIP3    H242242   4.641   5.814   0.202  0.5039 -2.3706 -0.5237
 6943TIP3   OH242243   0.266   4.694  13.883  0.6720 -0.0531  0.3219
 6943TIP3    H142244   0.175   4.665  13.893  0.8297 -0.4019  0.7963
 6943TIP3    H242245   0.261   4.789  13.873  0.1328 -0.2344 -1.3068
 6944TIP3   OH242246   5.064   0.192  14.298  0.0501 -0.1769 -0.4076
 6944TIP3    H142247   5.111   0.226  14.374 -0.3678  0.2266 -0.3309
 6944TIP3    H242248   5.061   0.097  14.313 -0.0276 -0.1013  0.0746
 6945TIP3   OH242249   5.144   0.418  13.046 -0.1034  0.0700  0.0086
 6945TIP3    H142250   5.078   0.483  13.021 -0.6360  0.5840  2.4046
 6945TIP3    H242251   5.105   0.334  13.024 -1.3213  0.4081  0.7578
 6946TIP3   OH242252   3.135   6.719   5.502  0.0154  0.2167  0.3040
 6946TIP3    H142253   3.053   6.742   5.457 -0.9538  0.2329  2.0078
 6946TIP3    H242254   3.184   6.801   5.504 -0.0966  0.3098 -0.3441
 6947TIP3   OH242255   2.733   5.287  16.210  0.6292  0.5424 -0.1135
 6947TIP3    H142256   2.730   5.314  16.118 -1.2898  1.7219  0.2271
 6947TIP3    H242257   2.652   5.322  16.248 -0.1067 -2.4213  1.3575
 6948TIP3   OH242258   2.314   6.576   1.584  0.6972  0.0405  0.1709
 6948TIP3    H142259   2.361   6.570   1.667  2.3268  0.4910 -0.6716
 6948TIP3    H242260   2.233   6.621   1.605  0.8279 -0.3648  1.6158
 6949TIP3   OH242261   6.539   2.373   1.199  0.5591  0.2549  0.0184
 6949TIP3    H142262   6.508   2.292   1.239  1.8212  0.2869  1.1362
 6949TIP3    H242263   6.513   2.366   1.107 -0.9156 -0.5946  0.4638
 6950TIP3   OH242264   0.462   6.510   4.534  0.3765 -0.6012  0.2976
 6950TIP3    H142265   0.391   6.503   4.597  0.2387 -0.2400  0.1850
 6950TIP3    H242266   0.446   6.593   4.489 -0.3230 -1.4924 -1.1702
 6951TIP3   OH242267   2.116   0.843  13.507  0.0805  0.0600  0.4682
 6951TIP3    H142268   2.065   0.773  13.547 -2.0319  1.7652  0.8795
 6951TIP3    H242269   2.056   0.886  13.447  1.7983  0.5844 -0.9843
 6952TIP3   OH242270   3.558   4.379   2.068 -0.8839  0.7598 -0.1048
 6952TIP3    H142271   3.620   4.449   2.088  0.3464 -0.2898 -0.0998
 6952TIP3    H242272   3.486   4.391   2.130 -0.3757  1.6065  0.3339
 6953TIP3   OH242273   1.613   5.806   0.754  0.6747 -0.4900 -0.0636
 6953TIP3    H142274   1.582   5.760   0.831  0.2215  0.4728  0.3484
 6953TIP3    H242275   1.690   5.856   0.784 -0.0547  0.6202  0.0173
 6954TIP3   OH242276   5.214   6.542  14.125 -0.0666 -0.5738  0.1407
 6954TIP3    H142277   5.199   6.611  14.189  0.1630 -1.2548  0.9508
 6954TIP3    H242278   5.309   6.544  14.109 -0.2564  0.2959 -1.0092
 6955TIP3   OH242279   2.695   5.344  13.966 -0.4819 -0.4420 -0.2757
 6955TIP3    H142280   2.611   5.350  14.011 -0.6008 -2.4501 -0.1397
 6955TIP3    H242281   2.673   5.351  13.873 -0.8019 -0.8790 -0.2350
 6956TIP3   OH242282   4.576   2.790   5.189  0.1408 -0.0277 -0.1642
 6956TIP3    H142283   4.607   2.829   5.270  0.1053  0.6882 -0.4846
 6956TIP3    H242284   4.656   2.776   5.137  0.2088 -0.9052  0.1700
 6957TIP3   OH242285   0.133   5.489   5.598  0.7649  0.5765 -0.2298
 6957TIP3    H142286   0.201   5.432   5.562  0.1162 -0.9996  0.9197
 6957TIP3    H242287   0.069   5.498   5.527 -0.3611 -2.2540  0.2929
 6958TIP3   OH242288   1.049   2.629   4.574  0.0030 -0.4496  0.1463
 6958TIP3    H142289   0.961   2.591   4.579 -0.0541 -0.3688 -0.1910
 6958TIP3    H242290   1.101   2.580   4.637 -0.0746 -1.0817 -0.2798
 6959TIP3   OH242291   2.699   5.095  11.141 -0.3310  0.1591 -0.3167
 6959TIP3    H142292   2.639   5.153  11.094 -2.7045 -2.2120 -0.4728
 6959TIP3    H242293   2.709   5.019  11.082 -0.4473 -1.2615  1.4052
 6960TIP3   OH242294   5.070   2.345   0.793 -0.0851  0.1106  0.3181
 6960TIP3    H142295   5.102   2.281   0.730  0.1396  0.4966  0.0312
 6960TIP3    H242296   5.148   2.385   0.830 -0.1674 -1.3616  2.1947
 6961TIP3   OH242297   1.443   4.269   6.025 -0.8307 -0.5824  0.0231
 6961TIP3    H142298   1.429   4.339   6.089  1.2606 -0.8478  0.8519
 6961TIP3    H242299   1.368   4.211   6.037 -1.6767  0.5894  0.5866
 6962TIP3   OH242300   0.095   4.354  17.094  0.2839  0.5677  0.1793
 6962TIP3    H142301   0.123   4.398  17.013 -1.8771  1.0503 -0.3766
 6962TIP3    H242302   0.135   4.267  17.089 -0.6512  0.1786 -2.0071
 6963TIP3   OH242303   4.578   3.526   2.550 -1.0806  0.1003  0.3185
 6963TIP3    H142304   4.633   3.586   2.500  0.0344 -0.4331  0.8817
 6963TIP3    H242305   4.550   3.461   2.485  1.5644 -1.4410  0.5842
 6964TIP3   OH242306   3.078   0.318   3.040 -0.2000  0.3607 -0.2107
 6964TIP3    H142307   3.121   0.394   3.080  1.7623  0.2781 -2.0154
 6964TIP3    H242308   3.076   0.339   2.947 -2.4258 -0.5163 -0.4218
 6965TIP3   OH242309   1.210   0.373  17.295 -0.3913  0.2753 -0.9389
 6965TIP3    H142310   1.243   0.446  17.347  1.8129 -0.6764 -0.8855
 6965TIP3    H242311   1.189   0.411  17.210 -0.7828  1.2295 -0.4220
 6966TIP3   OH242312   1.366   4.229  11.651 -0.5309 -0.0446  0.0277
 6966TIP3    H142313   1.336   4.318  11.632 -0.7134 -0.1903 -0.3685
 6966TIP3    H242314   1.391   4.194  11.566 -1.2976 -0.6813  0.0575
 6967TIP3   OH242315   1.161   5.885   4.342  0.0224 -1.1917 -0.3038
 6967TIP3    H142316   1.103   5.906   4.270 -0.7572 -2.1783  0.0068
 6967TIP3    H242317   1.242   5.932   4.323 -0.8048  0.0748 -0.8322
 6968TIP3   OH242318   3.226   3.039  14.755  0.2543 -0.3900 -0.3835
 6968TIP3    H142319   3.190   2.971  14.698 -1.6138 -0.3722  0.7030
 6968TIP3    H242320   3.310   3.061  14.715  0.2257 -2.2524 -1.6053
 6969TIP3   OH242321   5.515   0.137  15.180  0.1097 -0.0967  0.6334
 6969TIP3    H142322   5.588   0.087  15.143  0.4009  0.0727  0.9773
 6969TIP3    H242323   5.439   0.109  15.129  0.1332 -1.4362  1.2863
 6970TIP3   OH242324   2.665   5.794  14.379 -0.3746  0.2311 -0.5538
 6970TIP3    H142325   2.658   5.699  14.389  0.1603  0.1450 -0.9686
 6970TIP3    H242326   2.682   5.807  14.286  1.9632  0.5859 -0.1241
 6971TIP3   OH242327   4.879   6.224   1.566  0.7237  0.0666  0.4008
 6971TIP3    H142328   4.970   6.220   1.534  1.0194  1.2393  1.0445
 6971TIP3    H242329   4.873   6.151   1.628  0.7199 -1.0318 -0.8544
 6972TIP3   OH242330   4.518   6.288  14.641  0.3612  0.4342 -0.3762
 6972TIP3    H142331   4.569   6.366  14.616 -0.7533  1.7195  1.1446
 6972TIP3    H242332   4.427   6.311  14.618 -0.1773  0.1919  1.3890
 6973TIP3   OH242333   4.088   2.528   3.093  0.4655 -0.4060 -0.2549
 6973TIP3    H142334   4.137   2.499   3.015 -0.0796 -0.2008 -0.6761
 6973TIP3    H242335   4.118   2.469   3.162  1.8315  0.1472 -0.3345
 6974TIP3   OH242336   4.955   3.490  15.098 -0.2205  0.1593  0.9188
 6974TIP3    H142337   4.919   3.579  15.096 -0.9155 -0.1218  0.3421
 6974TIP3    H242338   4.980   3.477  15.189  0.2965  1.0983  0.9294
 6975TIP3   OH242339   5.829   0.112  15.125 -0.1915  0.0718  0.1112
 6975TIP3    H142340   5.914   0.119  15.168  0.6861  1.7539 -1.7629
 6975TIP3    H242341   5.840   0.041  15.062  0.0355  0.6885 -0.5524
 6976TIP3   OH242342   3.827   1.218  13.116  0.1321 -0.6970 -0.0202
 6976TIP3    H142343   3.742   1.224  13.074 -0.2825 -0.9300  0.7779
 6976TIP3    H242344   3.883   1.277  13.065 -0.9760  0.9676  0.6264
 6977TIP3   OH242345   4.554   2.835   3.344  0.0230  0.0866 -0.0467
 6977TIP3    H142346   4.536   2.779   3.269 -0.0994 -0.0170  0.0592
 6977TIP3    H242347   4.469   2.850   3.384  0.2021 -0.6932  0.6583
 6978TIP3   OH242348   6.042   0.153   3.853  0.2567 -0.1850 -0.1112
 6978TIP3    H142349   6.135   0.165   3.873 -0.1040  1.6816  0.7204
 6978TIP3    H242350   6.037   0.163   3.758  0.8085  0.6089 -0.0684
 6979TIP3   OH242351   2.018   6.699   1.963 -0.1476  0.3302  0.1175
 6979TIP3    H142352   1.983   6.785   1.987 -1.3976 -0.3894  0.9829
 6979TIP3    H242353   2.095   6.688   2.019  0.0628  0.9184 -0.0517
 6980TIP3   OH242354   0.503   3.956  11.240  0.3441 -0.3804 -0.1830
 6980TIP3    H142355   0.478   4.039  11.201  1.0893  1.0780  2.2583
 6980TIP3    H242356   0.434   3.936  11.303 -0.1274 -1.9576 -1.1432
 6981TIP3   OH242357   5.655   6.338  14.585 -0.6283  0.6275 -0.0883
 6981TIP3    H142358   5.737   6.375  14.552 -0.9479  1.5133  0.0686
 6981TIP3    H242359   5.596   6.339  14.509 -0.3706 -0.4013 -0.3075
 6982TIP3   OH242360   1.931   1.321   3.903 -0.1840 -0.2048 -0.2311
 6982TIP3    H142361   1.933   1.343   3.810 -2.4734 -1.5366 -0.6666
 6982TIP3    H242362   1.843   1.287   3.918 -0.3914  1.3061  2.7582
 6983TIP3   OH242363   3.915   5.602   3.024  0.4030  0.3125  0.1873
 6983TIP3    H142364   3.967   5.660   3.079  2.5559 -0.4231 -0.9311
 6983TIP3    H242365   3.889   5.530   3.081  1.9084 -0.0363  0.4726
 6984TIP3   OH242366   2.247   1.664   5.571  0.5229  0.1763 -0.0921
 6984TIP3    H142367   2.152   1.669   5.584  0.5091 -1.4213  0.6805
 6984TIP3    H242368   2.282   1.648   5.659  1.2562 -1.7732 -0.6847
 6985TIP3   OH242369   5.278   2.033   2.321  0.3702  0.3809 -0.5044
 6985TIP3    H142370   5.291   2.081   2.239  0.9234 -0.1381 -0.7282
 6985TIP3    H242371   5.290   2.098   2.389 -0.1152  0.8226 -0.8306
 6986TIP3   OH242372   3.968   3.125  14.880 -0.4278 -0.4119  0.0363
 6986TIP3    H142373   4.038   3.135  14.816 -0.6429  1.6841  0.0457
 6986TIP3    H242374   3.901   3.073  14.836  1.0721 -2.4491  0.0229
 6987TIP3   OH242375   1.281   5.926  14.351  0.6757  0.3838 -0.0173
 6987TIP3    H142376   1.246   6.011  14.326  0.8513  0.1399 -1.1646
 6987TIP3    H242377   1.361   5.946  14.400  0.4105  0.8866  0.2137
 6988TIP3   OH242378   1.606   5.389   2.625  0.0650 -0.5826 -0.3091
 6988TIP3    H142379   1.577   5.306   2.587 -0.1132 -0.9266  0.5560
 6988TIP3    H242380   1.629   5.367   2.715 -0.2857  0.3705  0.0222
 6989TIP3   OH242381   6.130   1.966  15.189  0.1684  0.4220 -0.4998
 6989TIP3    H142382   6.208   1.994  15.237 -1.2315  1.5853  1.2452
 6989TIP3    H242383   6.113   1.878  15.221 -0.2427  0.8541  0.5232
 6990TIP3   OH242384   5.613   1.381  15.318  0.1831 -0.1540  0.3082
 6990TIP3    H142385   5.596   1.426  15.235  1.2779 -0.7128 -0.2355
 6990TIP3    H242386   5.568   1.297  15.308  0.2825 -0.2061  0.3040
 6991TIP3   OH242387   4.139   3.840  15.438 -0.1816  0.2180  0.6710
 6991TIP3    H142388   4.141   3.834  15.343  2.6159  2.3150  0.4938
 6991TIP3    H242389   4.061   3.893  15.457 -0.3607  0.3900 -0.4848
 6992TIP3   OH242390   2.375   5.918   1.216 -0.7773 -0.0831  0.5591
 6992TIP3    H142391   2.412   5.830   1.216 -0.7764 -0.1985  3.4156
 6992TIP3    H242392   2.298   5.912   1.160  1.4689 -0.7120 -2.7611
 6993TIP3   OH242393   1.110   2.491  16.596 -0.1254 -0.3395 -0.3126
 6993TIP3    H142394   1.147   2.552  16.532  0.4754  1.5909  1.7320
 6993TIP3    H242395   1.037   2.450  16.551  1.1155 -0.1356 -2.6738
 6994TIP3   OH242396   2.657   1.365   5.285  0.2296  0.1591  0.1314
 6994TIP3    H142397   2.608   1.288   5.255  0.7342  0.4001 -1.4031
 6994TIP3    H242398   2.720   1.331   5.348 -0.5469 -0.4505  0.5954
 6995TIP3   OH242399   5.859   5.915   0.587 -0.7477 -0.3731  0.0558
 6995TIP3    H142400   5.779   5.920   0.640 -1.0741  0.9651 -0.5191
 6995TIP3    H242401   5.930   5.912   0.652 -1.1354  1.3332  0.6254
 6996TIP3   OH242402   6.029   5.338  16.896 -0.0434  0.2887  0.6583
 6996TIP3    H142403   5.999   5.265  16.841 -1.3137 -0.4965  2.2963
 6996TIP3    H242404   5.971   5.336  16.972 -0.7462  3.5746  0.3924
 6997TIP3   OH242405   3.186   3.068   1.287  0.5789  0.4376  0.3517
 6997TIP3    H142406   3.100   3.026   1.298  0.6329 -0.0306 -0.8359
 6997TIP3    H242407   3.171   3.159   1.310 -0.3323  0.4382 -0.1950
 6998TIP3   OH242408   1.053   0.949   2.585  0.5375  0.3385  0.0827
 6998TIP3    H142409   1.110   1.019   2.552 -0.2201  0.7144 -0.4628
 6998TIP3    H242410   1.007   0.917   2.507  0.4448 -0.3690  0.4237
 6999TIP3   OH242411   6.750   3.148   1.200 -0.2045  0.3830  0.5020
 6999TIP3    H142412   6.779   3.108   1.118  0.3833 -0.5990  1.1696
 6999TIP3    H242413   6.737   3.240   1.178 -2.5005 -0.2840 -1.3094
 7000TIP3   OH242414   4.115   4.199   3.860  0.1676  0.2316  0.1767
 7000TIP3    H142415   4.171   4.122   3.853 -1.9425 -1.5532  1.5042
 7000TIP3    H242416   4.135   4.235   3.946  0.3925  0.5454 -0.0056
 7001TIP3   OH242417   4.203   4.076  11.406  0.1022  0.2846 -0.1699
 7001TIP3    H142418   4.176   4.167  11.404  0.1403  0.3851  1.6972
 7001TIP3    H242419   4.122   4.027  11.418  0.3647  0.4148  2.9209
 7002TIP3   OH242420   4.341   6.289   2.149  0.1033 -1.1512  0.3879
 7002TIP3    H142421   4.433   6.264   2.157  0.3688  0.0673  1.3775
 7002TIP3    H242422   4.342   6.374   2.107 -0.5293 -0.8814  0.8944
 7003TIP3   OH242423   2.508   5.176  15.838 -0.6573  0.3806 -0.0741
 7003TIP3    H142424   2.458   5.097  15.857 -0.1946  0.1047  0.0198
 7003TIP3    H242425   2.509   5.182  15.742 -0.9668  0.4511 -0.0717
 7004TIP3   OH242426   4.995   3.880   5.573 -0.0201 -0.5290  0.3194
 7004TIP3    H142427   5.087   3.855   5.560  0.5104  1.0361  0.8798
 7004TIP3    H242428   4.999   3.957   5.629 -1.5035  1.2572 -1.8626
 7005TIP3   OH242429   5.191   2.897   2.065  0.1965 -0.3233 -0.0040
 7005TIP3    H142430   5.284   2.886   2.082  0.5778 -3.1387 -2.8582
 7005TIP3    H242431   5.187   2.943   1.981 -1.0750  0.8992  0.6735
 7006TIP3   OH242432   5.282   2.343   4.827 -0.2605  0.0456  0.0121
 7006TIP3    H142433   5.319   2.358   4.740 -0.1815  2.1581  0.3567
 7006TIP3    H242434   5.353   2.303   4.877  0.2281  0.3586 -0.4298
 7007TIP3   OH242435   1.128   2.555   2.586 -0.2525  0.4333  0.7314
 7007TIP3    H142436   1.071   2.567   2.510  0.1819  2.6195  0.6937
 7007TIP3    H242437   1.215   2.539   2.548  0.0962  2.1962  0.7106
 7008TIP3   OH242438   1.227   0.526  13.107 -0.1486  0.1705  0.2387
 7008TIP3    H142439   1.231   0.524  13.202 -2.3502  4.0669  0.6578
 7008TIP3    H242440   1.144   0.484  13.085 -0.6792  1.1537  0.2981
 7009TIP3   OH242441   5.169   4.392  17.064  0.5457  0.4325 -0.4475
 7009TIP3    H142442   5.251   4.403  17.017  0.0452  0.4394 -1.3479
 7009TIP3    H242443   5.142   4.302  17.043  0.8726  0.0215  0.7646
 7010TIP3   OH242444   2.426   2.897  15.715 -0.1515 -0.0488  0.0100
 7010TIP3    H142445   2.358   2.918  15.651 -0.3338  0.4717  0.3685
 7010TIP3    H242446   2.423   2.801  15.722 -0.0555 -0.1253 -0.8343
 7011TIP3   OH242447   5.776   2.560   3.662 -0.2316  0.0513  0.1417
 7011TIP3    H142448   5.859   2.550   3.615  0.1141 -1.4645  1.0255
 7011TIP3    H242449   5.720   2.492   3.627 -1.4752  1.6448 -1.1154
 7012TIP3   OH242450   3.810   2.089  17.036 -0.0738  0.3295 -0.2301
 7012TIP3    H142451   3.835   2.146  16.963 -1.9749  1.9075  0.2890
 7012TIP3    H242452   3.715   2.080  17.028 -0.3033  0.4246  1.9558
 7013TIP3   OH242453   5.060   5.344  10.968 -0.5603 -0.3008  0.1917
 7013TIP3    H142454   5.114   5.423  10.958  0.4957 -1.0070  0.1758
 7013TIP3    H242455   5.119   5.272  10.948 -1.8799 -1.0487 -1.1667
 7014TIP3   OH242456   2.657   6.277  12.531 -0.1648 -0.2034  0.3426
 7014TIP3    H142457   2.616   6.279  12.444 -0.5179 -2.4912  0.4070
 7014TIP3    H242458   2.638   6.364  12.568  1.1075  1.3207 -2.3181
 7015TIP3   OH242459   6.006   6.491  16.643 -0.3330  0.1679 -0.7001
 7015TIP3    H142460   6.080   6.435  16.666  2.3455  2.8193 -2.0896
 7015TIP3    H242461   6.012   6.565  16.704 -2.9100 -0.2914  0.2026
 7016TIP3   OH242462   3.898   4.971  14.407  0.1540  0.1938  0.3577
 7016TIP3    H142463   3.822   4.912  14.408  0.6953 -0.6641 -2.2493
 7016TIP3    H242464   3.970   4.918  14.440  0.3651 -0.2335 -0.7430
 7017TIP3   OH242465   3.026   3.310   6.123  0.6271  0.0087 -0.1480
 7017TIP3    H142466   3.028   3.225   6.166 -1.3177 -0.1292 -0.2613
 7017TIP3    H242467   3.047   3.373   6.192 -1.8065 -0.2592  0.9408
 7018TIP3   OH242468   2.984   0.672   2.318 -0.0642 -0.0641 -0.1013
 7018TIP3    H142469   3.017   0.712   2.238  1.8979 -0.3782  0.5052
 7018TIP3    H242470   3.059   0.672   2.378 -1.3038 -0.4160  1.5154
 7019TIP3   OH242471   0.466   1.214  13.601 -0.2112  0.0022  0.8599
 7019TIP3    H142472   0.531   1.145  13.590 -0.5543 -0.4386  1.5449
 7019TIP3    H242473   0.438   1.207  13.692  0.0080  1.2829  1.0451
 7020TIP3   OH242474   6.335   0.303   1.887 -0.9309  0.6842 -0.0196
 7020TIP3    H142475   6.366   0.325   1.799 -1.0173  2.0574  0.2768
 7020TIP3    H242476   6.264   0.241   1.873 -0.0446 -0.1810 -0.8460
 7021TIP3   OH242477   6.212   3.168  12.619  0.2016 -0.2069 -0.1467
 7021TIP3    H142478   6.294   3.179  12.668 -1.5036  2.7764  2.4127
 7021TIP3    H242479   6.155   3.119  12.677 -1.3156  1.9228  0.3010
 7022TIP3   OH242480   6.364   2.858  16.487 -0.4398 -0.3099  0.2266
 7022TIP3    H142481   6.399   2.863  16.576  1.0511  1.0129 -0.3908
 7022TIP3    H242482   6.422   2.797  16.442  0.6725  1.3302 -0.6142
 7023TIP3   OH242483   1.992   6.661  11.786  0.2898 -0.0024  0.4193
 7023TIP3    H142484   1.913   6.684  11.834 -0.1717  1.1405 -0.8109
 7023TIP3    H242485   1.961   6.648  11.696  1.4940  0.4693 -0.0767
 7024TIP3   OH242486   1.437   5.890   4.300 -0.3488  0.2946 -0.4078
 7024TIP3    H142487   1.510   5.847   4.345 -1.2336 -0.8475 -0.0052
 7024TIP3    H242488   1.370   5.823   4.295 -0.6338  0.6598 -2.6461
 7025TIP3   OH242489   2.915   4.742  16.102 -0.0559 -0.1824 -0.6186
 7025TIP3    H142490   2.879   4.816  16.053 -1.7814 -0.6356 -0.1288
 7025TIP3    H242491   2.966   4.782  16.172 -1.2202  0.5956 -0.1739
 7026TIP3   OH242492   1.338   5.410  16.923 -0.1825 -0.1361 -0.1917
 7026TIP3    H142493   1.300   5.480  16.870  0.2152  1.1823  1.1746
 7026TIP3    H242494   1.393   5.360  16.863  1.7548  2.4272 -0.7110
 7027TIP3   OH242495   1.502   5.170  13.498 -0.3284  0.4798  0.1797
 7027TIP3    H142496   1.480   5.244  13.440  2.4444  1.9615  0.8220
 7027TIP3    H242497   1.594   5.150  13.477 -0.2854 -1.1874  1.7256
 7028TIP3   OH242498   1.716   2.051  13.149 -0.2263 -0.4644  0.3852
 7028TIP3    H142499   1.714   1.966  13.194 -2.7915  0.5963  2.5357
 7028TIP3    H242500   1.801   2.088  13.172  0.3788 -1.8861  0.5482
 7029TIP3   OH242501   5.103   6.089   2.043 -0.3535 -0.5103 -0.0957
 7029TIP3    H142502   5.030   6.150   2.055 -0.7886 -1.1344  0.5259
 7029TIP3    H242503   5.141   6.081   2.131  1.5339  1.0957 -0.6889
 7030TIP3   OH242504   5.021   4.545   1.255 -0.4694  0.1397 -0.6761
 7030TIP3    H142505   4.991   4.465   1.299 -0.7417  0.6965  0.1939
 7030TIP3    H242506   4.948   4.607   1.266  0.8562  1.4824  1.3427
 7031TIP3   OH242507   4.317   1.225   2.623  0.1735  0.3214 -0.2295
 7031TIP3    H142508   4.232   1.234   2.665  0.3812 -1.3324  0.6497
 7031TIP3    H242509   4.377   1.275   2.679  0.2897 -1.1227  1.0197
 7032TIP3   OH242510   2.963   0.292  16.676  0.4079  0.5820 -0.4279
 7032TIP3    H142511   2.915   0.361  16.629  0.9634  1.9283  0.9036
 7032TIP3    H242512   3.027   0.339  16.729  0.8133 -0.9818  0.5265
 7033TIP3   OH242513   1.762   1.658   0.651 -0.3339 -0.2882  0.8643
 7033TIP3    H142514   1.722   1.739   0.682  1.2779  0.2698  1.5852
 7033TIP3    H242515   1.842   1.686   0.606 -2.0290 -1.1066 -3.1387
 7034TIP3   OH242516   4.914   6.562  11.505 -0.6740  0.3368 -0.1677
 7034TIP3    H142517   4.837   6.506  11.497  0.5935 -1.3057 -1.5526
 7034TIP3    H242518   4.941   6.578  11.414  0.7710  0.6630  0.2974
 7035TIP3   OH242519   5.912   5.408   3.036 -0.0936 -0.2136 -0.1355
 7035TIP3    H142520   5.896   5.323   3.076  0.3831  0.4203  1.5180
 7035TIP3    H242521   5.829   5.455   3.045 -0.0807 -0.1815 -0.1790
 7036TIP3   OH242522   5.437   2.391  14.012 -0.8792 -0.3973 -0.3097
 7036TIP3    H142523   5.527   2.360  14.003 -0.4469  0.9677 -0.8053
 7036TIP3    H242524   5.425   2.401  14.106 -0.0087  0.8087 -0.3059
 7037TIP3   OH242525   0.777   0.556   3.701  0.1814 -0.3062 -0.2401
 7037TIP3    H142526   0.691   0.590   3.676 -0.3888 -0.9636  0.7782
 7037TIP3    H242527   0.822   0.631   3.740 -0.9779 -0.5809  1.7683
 7038TIP3   OH242528   1.795   0.803  13.236 -0.0256  0.1794  0.0474
 7038TIP3    H142529   1.736   0.816  13.162  0.8666  2.8374 -0.3185
 7038TIP3    H242530   1.832   0.716  13.223 -0.5504  0.2219 -2.1609
 7039TIP3   OH242531   0.031   0.299   0.789 -0.0813 -0.3047 -0.7310
 7039TIP3    H142532  -0.042   0.324   0.846 -0.2746 -1.5412 -0.4196
 7039TIP3    H242533  -0.000   0.319   0.701 -0.7868 -0.7975 -0.5999
 7040TIP3   OH242534   5.009   2.546   2.610  0.0660  0.6002 -0.6974
 7040TIP3    H142535   5.036   2.537   2.701 -1.8448 -2.1510 -0.2593
 7040TIP3    H242536   4.953   2.624   2.608 -1.6001 -0.4673  1.0445
 7041TIP3   OH242537   6.145   5.920  13.657 -0.1155 -0.2650 -0.3855
 7041TIP3    H142538   6.199   5.867  13.599  0.2162 -0.4430  0.0808
 7041TIP3    H242539   6.152   5.878  13.743 -1.9696 -1.0038 -0.5535
 7042TIP3   OH242540   1.932   3.921  14.393 -0.3350  0.0396 -0.6010
 7042TIP3    H142541   1.870   3.940  14.464 -2.3800 -0.0298 -2.2546
 7042TIP3    H242542   1.980   3.844  14.422 -0.0180  0.9091  1.3295
 7043TIP3   OH242543   3.470   6.633  15.141  0.1577  0.0405  0.3703
 7043TIP3    H142544   3.412   6.629  15.217  1.2649  0.3609  1.2719
 7043TIP3    H242545   3.436   6.567  15.081 -1.6954  0.8590  0.4432
 7044TIP3   OH242546   2.864   5.214   1.514  0.4398 -0.0509  0.0796
 7044TIP3    H142547   2.918   5.136   1.504 -0.6824 -0.9156  0.6183
 7044TIP3    H242548   2.900   5.258   1.591  0.3075 -0.6853  0.5123
 7045TIP3   OH242549   3.108   1.392   5.149 -0.0826  0.8959  0.3102
 7045TIP3    H142550   3.131   1.328   5.082 -2.0486  0.0169  0.4287
 7045TIP3    H242551   3.149   1.359   5.229  1.0102  1.1572 -0.1196
 7046TIP3   OH242552   2.161   1.994  13.767  0.1238  0.0415 -0.2962
 7046TIP3    H142553   2.191   2.060  13.829  0.3369 -1.2257  1.0166
 7046TIP3    H242554   2.204   2.017  13.684  0.8316  1.0578  0.3346
 7047TIP3   OH242555   5.469   3.193  14.773 -0.0971 -0.2522  0.0852
 7047TIP3    H142556   5.399   3.195  14.708 -0.1595  1.2151  0.1520
 7047TIP3    H242557   5.513   3.278  14.763 -0.1496  0.0388  1.9575
 7048TIP3   OH242558   3.666   3.943   1.524  0.0068  0.2749 -0.2318
 7048TIP3    H142559   3.572   3.939   1.540 -0.4182 -2.8288 -2.5615
 7048TIP3    H242560   3.705   3.881   1.586  0.0280 -1.0429 -1.5047
 7049TIP3   OH242561   0.116   2.266   2.270  0.1451 -0.8860  0.1579
 7049TIP3    H142562   0.149   2.289   2.357  1.5133  0.2790 -0.6100
 7049TIP3    H242563   0.022   2.256   2.282  0.3474 -1.0952  1.8344
 7050TIP3   OH242564   4.306   2.308   5.244  0.2400  0.1121 -0.3009
 7050TIP3    H142565   4.235   2.327   5.306 -0.1740 -1.2857 -0.2945
 7050TIP3    H242566   4.336   2.393   5.214 -0.2873  0.7788  1.0068
 7051TIP3   OH242567   0.705   0.730  14.355  0.5069  0.4447 -0.3479
 7051TIP3    H142568   0.679   0.756  14.267  0.9446 -0.1784 -0.6663
 7051TIP3    H242569   0.709   0.635  14.352  1.7061  0.4681 -0.0040
 7052TIP3   OH242570   2.249   2.483  12.595 -0.3338  0.0861  0.1103
 7052TIP3    H142571   2.313   2.434  12.545  0.9919 -0.5304  2.2540
 7052TIP3    H242572   2.181   2.506  12.532  1.5557  0.0205 -2.0742
 7053TIP3   OH242573   6.338   1.602  11.596  0.3994 -0.4800 -0.1650
 7053TIP3    H142574   6.429   1.618  11.620  0.6776 -2.2336  0.1009
 7053TIP3    H242575   6.336   1.511  11.566 -1.3097 -0.5661  0.0628
 7054TIP3   OH242576   1.987   4.137   0.088 -0.6339 -0.7024  0.5048
 7054TIP3    H142577   2.027   4.051   0.103  0.9230 -0.1425 -0.2236
 7054TIP3    H242578   1.936   4.126   0.008 -0.5664 -0.9949  0.4985
 7055TIP3   OH242579   1.796   1.506   3.108 -0.7895 -0.1241  0.4164
 7055TIP3    H142580   1.812   1.572   3.177 -1.0314 -1.1691  1.5068
 7055TIP3    H242581   1.706   1.521   3.080 -1.1454 -0.5387  1.2979
 7056TIP3   OH242582   0.875   5.590  16.033 -0.5216  0.0042  0.1902
 7056TIP3    H142583   0.911   5.503  16.055 -0.0716  0.5382  1.7047
 7056TIP3    H242584   0.782   5.582  16.053 -0.8825 -0.6840 -1.5464
 7057TIP3   OH242585   0.756   2.556  16.503 -0.0739  0.2910  0.0947
 7057TIP3    H142586   0.791   2.468  16.493 -0.3311  0.1890  0.0869
 7057TIP3    H242587   0.662   2.544  16.518  0.1740  0.4716  2.0097
 7058TIP3   OH242588   0.398   1.584   1.858  0.2023 -0.2124 -0.3962
 7058TIP3    H142589   0.322   1.563   1.804  0.3758  0.6188 -0.9887
 7058TIP3    H242590   0.417   1.675   1.837 -0.7493  0.7016  2.3431
 7059TIP3   OH242591   1.626   2.094   0.266 -0.3080  0.5360 -0.4235
 7059TIP3    H142592   1.660   2.101   0.356 -0.5576 -0.0016 -0.2881
 7059TIP3    H242593   1.684   2.032   0.223 -1.4493 -0.8637 -0.0184
 7060TIP3   OH242594   5.735   0.162   0.781 -0.3685  0.5657  0.4322
 7060TIP3    H142595   5.781   0.212   0.848  0.6912 -0.0613  0.1917
 7060TIP3    H242596   5.649   0.144   0.820 -0.0470  0.8582  1.3081
 7061TIP3   OH242597   0.545   2.704  13.815 -0.0229 -0.1410  0.1018
 7061TIP3    H142598   0.518   2.773  13.876 -0.6430 -0.1970 -0.1000
 7061TIP3    H242599   0.523   2.623  13.861  0.5651 -0.2076  0.2760
 7062TIP3   OH242600   1.926   6.494  11.481 -0.0047 -0.1504  0.3983
 7062TIP3    H142601   1.965   6.427  11.426  0.3666 -0.2879  0.8211
 7062TIP3    H242602   1.890   6.558  11.420  1.0578  0.0866 -0.0004
 7063TIP3   OH242603   1.314   6.242   0.429  0.5191  0.5369 -0.2208
 7063TIP3    H142604   1.332   6.151   0.408  0.2521  0.8336 -1.8922
 7063TIP3    H242605   1.220   6.252   0.415  0.2382  0.7135  1.5187
 7064TIP3   OH242606   0.401   1.482   0.576 -0.1889  0.6076 -0.0522
 7064TIP3    H142607   0.456   1.502   0.500  0.7078  2.1761  0.9426
 7064TIP3    H242608   0.311   1.488   0.544  0.1834 -0.1873 -1.3004
 7065TIP3   OH242609   3.909   5.665   4.543  0.3586 -0.5420  0.1990
 7065TIP3    H142610   3.832   5.627   4.502 -0.8381 -0.1049  1.9231
 7065TIP3    H242611   3.887   5.758   4.554  0.4800 -0.6912  2.0471
 7066TIP3   OH242612   4.415   3.773  17.009 -0.0605  0.0727 -0.4259
 7066TIP3    H142613   4.422   3.850  17.064  0.0270  1.8538 -2.7651
 7066TIP3    H242614   4.505   3.747  16.990 -0.0562  0.5539 -1.1094
 7067TIP3   OH242615   2.512   0.686  15.890 -0.1773  0.7202 -0.1733
 7067TIP3    H142616   2.450   0.751  15.856  0.3017  0.4580 -1.6474
 7067TIP3    H242617   2.481   0.666  15.978 -0.9879  2.1068 -0.1232
 7068TIP3   OH242618   5.906   5.518  15.565  0.9476 -0.1521  0.0790
 7068TIP3    H142619   5.915   5.526  15.470 -2.1930  0.9588 -0.2303
 7068TIP3    H242620   5.880   5.427  15.580 -0.8584  0.2359 -0.4401
 7069TIP3   OH242621   1.926   5.220  14.028  0.2636 -0.0004  0.1505
 7069TIP3    H142622   1.870   5.154  13.986  1.1992 -1.1285  0.6288
 7069TIP3    H242623   2.013   5.180  14.030  1.0966  1.6778 -0.4893
 7070TIP3   OH242624   0.000   1.891   3.316  0.2409  0.0941  0.4025
 7070TIP3    H142625  -0.010   1.809   3.267 -0.0461 -0.6037  1.6031
 7070TIP3    H242626  -0.059   1.953   3.272  0.0886 -0.4785 -0.2116
 7071TIP3   OH242627   4.288   6.044  12.184  0.3907  0.8743 -0.3224
 7071TIP3    H142628   4.327   5.999  12.259 -0.6851  0.8619  0.2428
 7071TIP3    H242629   4.360   6.052  12.121  0.7333 -1.2094 -0.2535
 7072TIP3   OH242630   3.098   4.708  14.351 -0.3979  0.2016 -0.0397
 7072TIP3    H142631   3.140   4.777  14.402 -1.3650  0.6778  0.1426
 7072TIP3    H242632   3.169   4.649  14.327  0.8468  2.2463 -1.8470
 7073TIP3   OH242633   4.118   5.650  13.308 -0.3825  0.0336  0.5710
 7073TIP3    H142634   4.211   5.628  13.317 -0.2096  0.2796 -0.4440
 7073TIP3    H242635   4.104   5.722  13.369  0.0212 -0.1897  0.9331
 7074TIP3   OH242636   0.829   1.255  12.007  0.0480 -0.1120  0.2465
 7074TIP3    H142637   0.800   1.189  11.945 -2.7197  0.9750  0.2446
 7074TIP3    H242638   0.895   1.306  11.960 -1.5586  0.3247 -1.6536
 7075TIP3   OH242639   2.749   3.073  12.542  0.2533  0.7052 -0.3621
 7075TIP3    H142640   2.686   3.010  12.578  0.7874  0.9997  1.1573
 7075TIP3    H242641   2.818   3.020  12.504 -0.8995  0.3746 -2.0896
 7076TIP3   OH242642   5.867   1.018   4.526 -0.1489  0.1382  0.8055
 7076TIP3    H142643   5.903   1.000   4.439 -0.7467  1.0273  0.3587
 7076TIP3    H242644   5.912   1.098   4.555  0.0615 -0.1635  1.3217
 7077TIP3   OH242645   4.989   1.252  16.598  0.1008 -0.7649  0.1089
 7077TIP3    H142646   5.019   1.343  16.599 -1.0075 -0.3765  1.5405
 7077TIP3    H242647   4.893   1.259  16.595 -0.1633 -1.7587  3.0126
 7078TIP3   OH242648   1.424   2.420  15.508 -0.4842 -0.2747  0.3936
 7078TIP3    H142649   1.451   2.469  15.586 -0.0394  0.0042  0.0677
 7078TIP3    H242650   1.332   2.399  15.523  0.0334 -1.7711  1.8280
 7079TIP3   OH242651   4.449   4.617  14.185 -0.0964 -0.4477  0.3908
 7079TIP3    H142652   4.504   4.611  14.107 -2.8708 -3.2383 -1.5593
 7079TIP3    H242653   4.481   4.546  14.242 -1.0320 -1.5083 -0.3656
 7080TIP3   OH242654   0.742   1.590   1.187  0.1095 -0.1076  0.1322
 7080TIP3    H142655   0.669   1.566   1.244 -1.1921 -0.2889 -1.5422
 7080TIP3    H242656   0.742   1.523   1.119 -0.2815  1.6967 -1.7397
 7081TIP3   OH242657   0.524   6.347  16.077 -0.3785 -0.1696 -0.2165
 7081TIP3    H142658   0.533   6.387  15.990 -0.2188  0.7548  0.2104
 7081TIP3    H242659   0.502   6.420  16.135 -0.8053 -0.8263  0.4739
 7082TIP3   OH242660   0.878   3.795   3.349  0.0283  0.1191 -0.2678
 7082TIP3    H142661   0.819   3.809   3.423  1.9230  0.3421  1.2785
 7082TIP3    H242662   0.887   3.882   3.310 -1.0641 -0.0187 -0.8562
 7083TIP3   OH242663   0.438   5.200   6.267  0.2713  0.5153 -0.2084
 7083TIP3    H142664   0.441   5.190   6.362  0.9331 -0.4128 -0.3177
 7083TIP3    H242665   0.407   5.290   6.254  1.6888  1.2140  0.9063
 7084TIP3   OH242666   4.532   4.790   5.830  0.7957 -0.0587 -0.0620
 7084TIP3    H142667   4.561   4.850   5.899  0.5955  0.5570 -0.4989
 7084TIP3    H242668   4.440   4.811   5.817  1.2500  1.1501 -1.7793
 7085TIP3   OH242669   1.275   0.928   0.605  0.2057 -0.2111  0.3884
 7085TIP3    H142670   1.302   0.977   0.683  0.5113  0.1842  0.0354
 7085TIP3    H242671   1.334   0.958   0.536 -0.2891 -0.3053 -0.0812
 7086TIP3   OH242672   4.060   0.530  11.590  0.2748 -0.2715  0.0431
 7086TIP3    H142673   4.113   0.541  11.511 -1.5050 -2.0410 -1.5265
 7086TIP3    H242674   4.038   0.620  11.617  0.1815  0.3922 -2.0445
 7087TIP3   OH242675   2.040   4.022   2.161  0.5137 -0.0310  0.1305
 7087TIP3    H142676   2.117   3.967   2.147  1.1435  1.2621 -1.9083
 7087TIP3    H242677   2.050   4.094   2.099 -2.5827 -0.0716 -0.5937
 7088TIP3   OH242678   1.994   1.522  12.220 -0.0272  0.0221  0.2577
 7088TIP3    H142679   1.951   1.481  12.144 -0.1653 -0.9749  0.8515
 7088TIP3    H242680   1.972   1.465  12.293  2.4758 -0.6631  0.5701
 7089TIP3   OH242681   0.026   5.362   0.653 -0.8797 -0.3538 -0.1213
 7089TIP3    H142682   0.014   5.339   0.561 -0.4367  1.1323 -0.5837
 7089TIP3    H242683   0.121   5.367   0.664 -0.9090  2.6206 -0.4851
 7090TIP3   OH242684   1.623   1.195   4.901 -0.4219 -0.1859 -0.2467
 7090TIP3    H142685   1.598   1.103   4.903 -2.0355  0.2233  1.7045
 7090TIP3    H242686   1.667   1.207   4.817  0.5957 -2.9090 -0.1827
 7091TIP3   OH242687   3.309   6.611  15.359  0.0168  0.3051 -0.7267
 7091TIP3    H142688   3.338   6.559  15.434  0.7883  0.3330 -1.0047
 7091TIP3    H242689   3.263   6.685  15.399 -0.4692 -0.2100 -0.3123
 7092TIP3   OH242690   1.602   3.939  13.483  0.3409 -0.5081  1.1744
 7092TIP3    H142691   1.636   3.850  13.473 -1.1078 -0.9175 -0.7580
 7092TIP3    H242692   1.531   3.931  13.547 -0.1852 -0.8948  0.5570
 7093TIP3   OH242693   1.253   6.156  11.670  0.0673 -0.3457 -0.3985
 7093TIP3    H142694   1.316   6.183  11.602  0.4458  0.3481  0.2188
 7093TIP3    H242695   1.169   6.189  11.638  0.0132 -1.1910 -1.1811
 7094TIP3   OH242696   2.306   2.033  16.979 -0.0033 -0.2042 -0.1338
 7094TIP3    H142697   2.229   2.041  16.923  0.3752 -1.7830 -0.9527
 7094TIP3    H242698   2.381   2.038  16.919  0.3808 -3.2135 -0.0563
 7095TIP3   OH242699   0.720   3.171  12.472 -0.1846 -0.1564  0.2605
 7095TIP3    H142700   0.731   3.240  12.406 -2.5746 -0.2348 -0.2991
 7095TIP3    H242701   0.756   3.093  12.431 -0.8658 -0.0158 -0.6372
 7096TIP3   OH242702   1.238   1.655   5.765 -0.4158  0.0894  0.2642
 7096TIP3    H142703   1.149   1.647   5.730 -0.2216  1.5595 -0.6468
 7096TIP3    H242704   1.226   1.698   5.850 -0.5848  0.2162  0.1781
 7097TIP3   OH242705   4.741   6.276   5.225  0.2312  0.1163  0.0239
 7097TIP3    H142706   4.748   6.273   5.129 -0.4637 -2.7308 -0.0237
 7097TIP3    H242707   4.649   6.297   5.241  0.3687  0.6867  0.0849
 7098TIP3   OH242708   2.497   5.673   1.198 -0.4240 -0.0547  0.0723
 7098TIP3    H142709   2.566   5.609   1.216  1.6243  1.4466 -1.9221
 7098TIP3    H242710   2.517   5.706   1.110 -2.9555  1.4041 -0.0528
 7099TIP3   OH242711   1.067   0.806  10.537  0.2662 -0.1281  0.1771
 7099TIP3    H142712   1.019   0.858  10.602  0.8278 -2.1219  2.3080
 7099TIP3    H242713   1.151   0.788  10.578  0.8114 -1.1265 -1.2914
 7100TIP3   OH242714   6.593   6.416   4.587  0.2110 -0.1860  0.0424
 7100TIP3    H142715   6.565   6.503   4.617 -4.0179 -0.3192 -2.6145
 7100TIP3    H242716   6.569   6.357   4.658  1.8491  0.5769  1.3033
 7101TIP3   OH242717   0.796   2.724   1.899 -0.1423 -0.3429 -0.4871
 7101TIP3    H142718   0.891   2.725   1.887 -0.1564 -1.3563 -0.8088
 7101TIP3    H242719   0.766   2.649   1.846 -1.3473  1.1317 -2.0265
 7102TIP3   OH242720   4.985   6.032   5.287  0.3180 -0.5999  0.5408
 7102TIP3    H142721   4.952   6.078   5.210  0.9529 -2.6773 -1.0849
 7102TIP3    H242722   5.041   5.963   5.251 -0.8823 -2.8956  2.7575
 7103TIP3   OH242723   4.825   3.751   0.537 -0.1121  0.1034  0.1547
 7103TIP3    H142724   4.864   3.755   0.625 -2.6925  0.6269  1.3597
 7103TIP3    H242725   4.731   3.760   0.552 -0.6630 -0.1148 -2.6719
 7104TIP3   OH242726   4.056   1.004  11.851 -0.1039  0.4585  0.2370
 7104TIP3    H142727   3.974   1.000  11.900  0.6660  1.9506  1.7320
 7104TIP3    H242728   4.046   1.081  11.795 -0.5544 -0.6322 -1.2605
 7105TIP3   OH242729   0.923   3.202  12.815  0.3408  0.2629  0.9456
 7105TIP3    H142730   0.855   3.171  12.875 -0.0078  0.1856  0.5231
 7105TIP3    H242731   0.988   3.132  12.814 -2.3498 -2.6635 -3.1499
 7106TIP3   OH242732   0.703   0.310   0.581 -0.2983 -0.5164 -0.0832
 7106TIP3    H142733   0.611   0.312   0.555 -0.3334 -0.1300  0.0695
 7106TIP3    H242734   0.751   0.310   0.499 -0.4342 -0.7043 -0.1632
 7107TIP3   OH242735   1.133   0.658  15.839  0.0328  0.1853  0.2162
 7107TIP3    H142736   1.089   0.584  15.882  0.3106  0.2085  0.5487
 7107TIP3    H242737   1.126   0.729  15.903 -0.2395  0.4508 -0.1057
 7108TIP3   OH242738   1.051   1.937  14.363  0.0375 -0.0050 -0.5926
 7108TIP3    H142739   0.981   1.991  14.400  0.7711  0.0176  0.8089
 7108TIP3    H242740   1.122   1.999  14.346 -0.3527  0.0251 -2.2975
 7109TIP3   OH242741   4.478   5.532   4.436 -0.8617 -0.3542 -0.2041
 7109TIP3    H142742   4.486   5.599   4.504  0.7139 -0.1876 -0.5258
 7109TIP3    H242743   4.427   5.462   4.478 -1.7630  0.6495  0.4167
 7110TIP3   OH242744   2.235   2.922  10.787  0.5580 -0.1406 -0.2031
 7110TIP3    H142745   2.276   2.982  10.725 -0.7466  0.6161 -0.3569
 7110TIP3    H242746   2.148   2.958  10.802  0.6840 -0.5331  1.7565
 7111TIP3   OH242747   2.158   0.896  16.110 -0.2484  0.2379  0.0387
 7111TIP3    H142748   2.121   0.935  16.189  0.7593  2.3877 -0.4701
 7111TIP3    H242749   2.157   0.967  16.045  2.2463 -0.3610 -0.7720
 7112TIP3   OH242750   0.259   1.581  10.593  0.1358 -0.0427  0.0189
 7112TIP3    H142751   0.250   1.493  10.631 -0.4878 -0.1827 -0.4366
 7112TIP3    H242752   0.347   1.581  10.556  1.5617  0.7732  3.1085
 7113TIP3   OH242753   5.827   6.522  14.432 -0.2508  0.6794 -0.0952
 7113TIP3    H142754   5.827   6.469  14.351 -0.5550  2.1581 -1.0979
 7113TIP3    H242755   5.837   6.612  14.402  3.5511  1.0474  1.7275
 7114TIP3   OH242756   0.002   3.142  14.044  0.1301 -0.0695 -0.1708
 7114TIP3    H142757  -0.055   3.215  14.066  0.0274 -0.1424 -0.1949
 7114TIP3    H242758  -0.057   3.067  14.036  0.0672  0.0868 -1.3935
 7115TIP3   OH242759   5.570   2.467   5.313  0.4108  0.0988  0.1938
 7115TIP3    H142760   5.594   2.450   5.222  2.8627 -0.3801  0.8429
 7115TIP3    H242761   5.642   2.520   5.347 -0.0797 -0.3484  2.0336
 7116TIP3   OH242762   4.116   6.621   3.777 -0.4685 -0.3266 -0.0293
 7116TIP3    H142763   4.138   6.539   3.820  0.5080 -1.5382 -2.6488
 7116TIP3    H242764   4.104   6.598   3.685  1.1378  2.6645 -1.1140
 7117TIP3   OH242765   4.290   4.786  14.747 -0.7313 -0.3459 -0.0023
 7117TIP3    H142766   4.285   4.764  14.840  0.0187  1.6666  0.5713
 7117TIP3    H242767   4.380   4.766  14.722 -0.4157  0.7286  0.1990
 7118TIP3   OH242768   3.039   6.401   5.079  0.3676 -0.1526 -0.5258
 7118TIP3    H142769   2.949   6.392   5.111  0.7387 -2.3431  0.0502
 7118TIP3    H242770   3.038   6.356   4.994  1.2428 -1.5372  0.1760
 7119TIP3   OH242771   4.734   4.745   3.913  0.5609  0.5183  0.1032
 7119TIP3    H142772   4.732   4.664   3.963 -0.4676  0.2780 -0.2969
 7119TIP3    H242773   4.763   4.718   3.826 -2.9424 -0.0964 -1.0639
 7120TIP3   OH242774   3.649   4.951  12.572 -0.2094 -0.2471 -0.5178
 7120TIP3    H142775   3.680   5.031  12.613 -0.6630 -1.2138  1.9336
 7120TIP3    H242776   3.721   4.922  12.517  0.7086  0.8424  0.0719
 7121TIP3   OH242777   3.136   0.693  14.516 -0.7860  0.1588  0.4592
 7121TIP3    H142778   3.194   0.763  14.548 -0.5725 -0.3917  1.3131
 7121TIP3    H242779   3.194   0.636  14.465 -0.7428  0.0510  0.6280
 7122TIP3   OH242780   6.610   2.491   4.896 -0.1548 -0.4743 -0.2511
 7122TIP3    H142781   6.585   2.583   4.883  0.1419 -0.2993  0.3803
 7122TIP3    H242782   6.700   2.495   4.928  0.1009 -1.0269 -0.8857
 7123TIP3   OH242783   0.858   0.861   1.538 -0.4039  0.2988  0.4028
 7123TIP3    H142784   0.915   0.791   1.570 -1.1782 -0.3771  0.3369
 7123TIP3    H242785   0.899   0.941   1.570 -0.2463 -0.2616  1.6553
 7124TIP3   OH242786   3.987   1.042   5.321 -0.4313  0.3178 -0.3688
 7124TIP3    H142787   4.078   1.062   5.304 -0.7001  0.6557 -1.4575
 7124TIP3    H242788   3.989   0.960   5.371  0.4450  0.2091 -0.5789
 7125TIP3   OH242789   1.797   2.017  13.891 -0.1821 -0.4873  0.1884
 7125TIP3    H142790   1.889   2.044  13.889 -0.4039  0.3775 -1.8551
 7125TIP3    H242791   1.765   2.046  13.976  1.1521  0.2470  0.4717
 7126TIP3   OH242792   3.934   1.639   1.197  0.2753  0.1830  0.1658
 7126TIP3    H142793   3.980   1.576   1.252 -0.6122 -2.6857 -2.0970
 7126TIP3    H242794   3.846   1.603   1.188 -0.7871  2.6526  0.0394
 7127TIP3   OH242795   2.304   1.784  10.767  0.4775  0.8281 -0.2685
 7127TIP3    H142796   2.306   1.692  10.790 -0.7215  1.0882  0.9854
 7127TIP3    H242797   2.215   1.801  10.737  0.3670  1.7794  0.5159
 7128TIP3   OH242798   3.491   5.008   4.186 -0.4476 -0.9756 -0.0716
 7128TIP3    H142799   3.536   5.047   4.111  1.0060  0.5958  1.5402
 7128TIP3    H242800   3.507   5.069   4.258 -2.3565 -2.0891  1.3988
 7129TIP3   OH242801   3.762   5.788   6.388 -0.4690 -0.4473  0.4338
 7129TIP3    H142802   3.810   5.801   6.469 -0.5291  2.4137  0.1023
 7129TIP3    H242803   3.698   5.719   6.409  1.2928 -1.7185  1.9416
 7130TIP3   OH242804   5.187   0.035   3.926 -0.3892  0.2117 -0.1585
 7130TIP3    H142805   5.237   0.012   4.004 -0.6278 -1.9788 -0.5742
 7130TIP3    H242806   5.144   0.118   3.947  1.0980  0.6483  1.2752
 7131TIP3   OH242807   1.623   0.303   1.972 -0.1881 -0.3635  0.9823
 7131TIP3    H142808   1.533   0.304   2.003 -1.0310 -1.2102 -1.2327
 7131TIP3    H242809   1.673   0.347   2.041 -2.7051  3.0374  0.8978
 7132TIP3   OH242810   2.870   3.220  17.110  0.1638 -0.0854  0.1507
 7132TIP3    H142811   2.955   3.183  17.132  0.7908  0.5429 -1.0750
 7132TIP3    H242812   2.876   3.312  17.137  0.1207  0.1225 -0.5315
 7133TIP3   OH242813   6.087   6.646   6.465 -0.1933 -0.4855  0.1265
 7133TIP3    H142814   6.074   6.728   6.514  0.4479  0.4269 -1.1563
 7133TIP3    H242815   6.003   6.602   6.471 -1.5929  1.6971 -1.6078
 7134TIP3   OH242816   5.377   0.876   1.377 -0.2442 -0.3891 -0.1780
 7134TIP3    H142817   5.318   0.876   1.301  1.3256 -1.5405 -1.4755
 7134TIP3    H242818   5.448   0.935   1.353 -0.7023  0.8472  1.2996
 7135TIP3   OH242819   0.879   5.208   4.140 -0.1253  0.0315  0.0032
 7135TIP3    H142820   0.923   5.136   4.184  0.1267 -0.1029 -0.4680
 7135TIP3    H242821   0.814   5.239   4.203  1.0277  0.6175  0.9493
 7136TIP3   OH242822   1.938   3.550  11.834 -0.6780  0.2297  0.3438
 7136TIP3    H142823   1.865   3.595  11.792 -1.2097 -0.0117  0.9871
 7136TIP3    H242824   1.967   3.485  11.770 -0.0211  1.3298 -0.5236
 7137TIP3   OH242825   2.681   3.900   3.795 -0.4231  0.1739 -0.6061
 7137TIP3    H142826   2.724   3.931   3.875 -2.8952 -0.3670  1.0721
 7137TIP3    H242827   2.722   3.815   3.777  0.1005  0.2514  0.1690
 7138TIP3   OH242828   2.074   1.200  16.955  0.5087 -0.3928  0.4715
 7138TIP3    H142829   2.099   1.170  16.868  0.0844  0.8660 -0.1121
 7138TIP3    H242830   2.151   1.184  17.009  1.1433 -0.2673 -0.3724
 7139TIP3   OH242831   5.040   5.046   1.532 -0.0498  0.8013 -0.0559
 7139TIP3    H142832   4.966   5.081   1.581 -0.9422  0.2647 -0.9808
 7139TIP3    H242833   5.064   4.966   1.578 -0.6025  0.5318 -0.2265
 7140TIP3   OH242834   3.297   2.899   3.783 -0.1920  0.0497  0.5791
 7140TIP3    H142835   3.278   2.832   3.717  0.5102 -0.7196  1.1279
 7140TIP3    H242836   3.275   2.857   3.866  3.3070 -0.8013  1.2406
 7141TIP3   OH242837   3.280   3.576   3.599  0.7375 -0.4501  0.1370
 7141TIP3    H142838   3.273   3.649   3.537 -1.1401 -1.3531 -0.8101
 7141TIP3    H242839   3.313   3.503   3.546  0.7989 -0.7783  0.6207
 7142TIP3   OH242840   1.117   5.338  17.344  0.2584 -0.1747  0.1936
 7142TIP3    H142841   1.094   5.321  17.252  0.8950 -0.8015  0.1412
 7142TIP3    H242842   1.081   5.425  17.362 -2.6581 -1.2632  0.2961
 7143TIP3   OH242843   4.705   3.091   3.784  0.1442 -0.2982  0.3140
 7143TIP3    H142844   4.730   3.045   3.703 -0.0183  1.0306 -0.5324
 7143TIP3    H242845   4.615   3.062   3.801  0.0898 -0.4020 -0.1318
 7144TIP3   OH242846   5.335   3.692  16.446 -0.2475 -0.4647 -0.3431
 7144TIP3    H142847   5.319   3.599  16.426 -1.0288 -0.7092  1.2376
 7144TIP3    H242848   5.361   3.692  16.538 -2.0800  1.0447  0.2260
 7145TIP3   OH242849   3.922   1.919  15.777  0.5996  0.5929 -0.0781
 7145TIP3    H142850   3.971   1.848  15.819 -1.4073 -0.3548  0.8171
 7145TIP3    H242851   3.866   1.875  15.713  0.2273  1.5266 -0.4196
 7146TIP3   OH242852   4.814   6.692  15.026  0.1277 -0.4536 -0.3366
 7146TIP3    H142853   4.829   6.710  15.119 -1.8638 -0.5712  0.0710
 7146TIP3    H242854   4.752   6.618  15.026  1.4164 -1.6028 -1.8085
 7147TIP3   OH242855   2.437   6.648   5.248 -0.2037 -0.4221  0.5080
 7147TIP3    H142856   2.490   6.571   5.266 -0.3457 -1.4528 -2.7561
 7147TIP3    H242857   2.500   6.719   5.237  0.0552 -0.4369  1.8024
 7148TIP3   OH242858   2.125   4.909   0.713  0.2624 -0.0718 -0.5282
 7148TIP3    H142859   2.156   4.970   0.779  0.8003 -1.4603  0.5521
 7148TIP3    H242860   2.205   4.869   0.677 -0.1071 -2.3741  1.0099
 7149TIP3   OH242861   1.541   2.865   3.014  0.1899 -0.0769  0.2946
 7149TIP3    H142862   1.454   2.886   2.981 -0.1025 -0.6860  0.6815
 7149TIP3    H242863   1.596   2.938   2.983 -0.2935 -0.0795 -0.5977
 7150TIP3   OH242864   1.250   0.021   2.125 -0.2829 -0.5845  0.4584
 7150TIP3    H142865   1.228   0.063   2.042  1.0833  0.9636  0.8096
 7150TIP3    H242866   1.243  -0.073   2.108  0.2409 -0.3048 -1.4939
 7151TIP3   OH242867   2.997   4.688  15.407  0.8355 -0.7226 -0.2890
 7151TIP3    H142868   3.016   4.780  15.390 -0.2838 -0.4732 -0.2767
 7151TIP3    H242869   3.019   4.675  15.499 -0.7918  0.0397  0.2376
 7152TIP3   OH242870   4.153   2.556  14.362  0.5978 -0.1790  0.6398
 7152TIP3    H142871   4.179   2.567  14.453 -0.5154  1.7279  0.7672
 7152TIP3    H242872   4.077   2.613  14.351  0.0414 -1.1875 -1.2106
 7153TIP3   OH242873   2.250   0.917  15.134 -0.1391 -0.4409 -0.1351
 7153TIP3    H142874   2.255   0.822  15.143  1.2453 -0.4965 -1.2212
 7153TIP3    H242875   2.213   0.931  15.047 -0.7288  0.0254  0.1842
 7154TIP3   OH242876   4.425   2.494   2.886 -0.1256  0.1485  0.2410
 7154TIP3    H142877   4.469   2.413   2.913 -0.6773 -0.0226  0.6329
 7154TIP3    H242878   4.470   2.519   2.805  2.8187  1.6259  2.1323
 7155TIP3   OH242879   2.938   2.598  13.342  0.6064 -0.0990  0.8087
 7155TIP3    H142880   2.916   2.684  13.306  0.5717 -0.5530 -0.2859
 7155TIP3    H242881   2.921   2.537  13.271  0.2289 -1.0721  1.7054
 7156TIP3   OH242882   5.510   3.667   5.010  0.8090 -0.2330 -0.0244
 7156TIP3    H142883   5.492   3.742   4.953  2.5917 -0.2633 -0.6802
 7156TIP3    H242884   5.523   3.706   5.097  0.4085  0.0748 -0.1010
 7157TIP3   OH242885   4.099   0.862   3.596 -0.7737 -0.0290  0.0687
 7157TIP3    H142886   4.159   0.871   3.522 -2.0305 -0.2444 -1.0117
 7157TIP3    H242887   4.127   0.930   3.658  0.0274  0.4415 -0.7808
 7158TIP3   OH242888   4.311   4.771   1.638 -0.6555 -0.5083 -0.1018
 7158TIP3    H142889   4.360   4.703   1.592  0.0922 -0.1245  0.1193
 7158TIP3    H242890   4.280   4.727   1.718 -0.0306 -0.5463  0.1236
 7159TIP3   OH242891   4.928   3.021  13.364  0.2051 -0.0102  0.6700
 7159TIP3    H142892   4.877   3.033  13.284  0.4132  0.1792  0.5656
 7159TIP3    H242893   4.945   3.110  13.395  0.7128 -0.0697  0.5540
 7160TIP3   OH242894   0.150   0.074   2.961 -0.2663  0.6503 -0.1914
 7160TIP3    H142895   0.244   0.070   2.980 -0.5063 -3.1363  1.0816
 7160TIP3    H242896   0.144   0.049   2.869 -0.0466  0.3168 -0.1172
 7161TIP3   OH242897   6.001   3.875   4.738  0.1776  0.1014  0.5413
 7161TIP3    H142898   5.938   3.905   4.804  0.4475  0.3739  0.6779
 7161TIP3    H242899   6.056   3.812   4.784 -1.2955 -1.7475 -0.1166
 7162TIP3   OH242900   5.797   0.642  13.887 -0.3672  0.0459 -0.0219
 7162TIP3    H142901   5.843   0.646  13.803  0.7312 -0.3987  0.5425
 7162TIP3    H242902   5.824   0.722  13.933  0.7618 -0.7507  0.7525
 7163TIP3   OH242903   4.715   6.743   6.433  0.4731  0.6248 -0.3989
 7163TIP3    H142904   4.680   6.690   6.362 -0.2307 -0.4685  0.7199
 7163TIP3    H242905   4.643   6.800   6.459  0.1721 -0.1270  0.4883
 7164TIP3   OH242906   5.976   3.662   5.676 -0.0120 -0.8462  0.0517
 7164TIP3    H142907   5.939   3.591   5.729  0.4354 -0.1058  1.3818
 7164TIP3    H242908   6.022   3.718   5.738  1.0960 -0.3007 -1.2126
 7165TIP3   OH242909   0.550   0.241   1.073 -0.1499 -0.4105  0.1387
 7165TIP3    H142910   0.512   0.199   0.996 -0.1100 -0.7363  0.2945
 7165TIP3    H242911   0.643   0.217   1.070 -0.3086 -1.1144  0.7385
 7166TIP3   OH242912   5.712   1.011  11.539  0.2058  0.0433 -0.0900
 7166TIP3    H142913   5.742   0.920  11.549  1.7806  0.5526  0.1523
 7166TIP3    H242914   5.674   1.034  11.624 -0.6891 -0.5365 -0.3178
 7167TIP3   OH242915   6.122   5.837  13.061 -0.3258  0.1723 -0.3705
 7167TIP3    H142916   6.030   5.819  13.040  0.1890 -1.5486 -1.2591
 7167TIP3    H242917   6.146   5.908  13.002 -1.6295  2.2195  1.3615
 7168TIP3   OH242918   1.347   4.575   1.299 -0.4997 -0.0792 -0.5622
 7168TIP3    H142919   1.268   4.609   1.341  0.5843  0.9003  0.7765
 7168TIP3    H242920   1.378   4.647   1.245  1.2336  0.7715  1.4673
 7169TIP3   OH242921   6.196   5.153   3.518 -0.2865  0.2107  0.2981
 7169TIP3    H142922   6.253   5.137   3.593  0.4209  0.7115 -0.1138
 7169TIP3    H242923   6.257   5.164   3.444 -0.9543  0.0141 -0.2879
 7170TIP3   OH242924   4.997   0.840   4.562 -0.4729  0.4090  0.1628
 7170TIP3    H142925   5.007   0.877   4.475  0.4173  0.1156  0.1270
 7170TIP3    H242926   4.911   0.869   4.591 -0.5210  1.0205 -0.5637
 7171TIP3   OH242927   2.856   5.267   6.208  0.3018  0.4897 -0.1872
 7171TIP3    H142928   2.799   5.240   6.279 -0.3176  0.8477 -0.5340
 7171TIP3    H242929   2.936   5.298   6.251 -0.5287  1.8466  0.4428
 7172TIP3   OH242930   6.712   6.751   0.835  0.2360 -0.1210  0.4977
 7172TIP3    H142931   6.691   6.784   0.922  1.9479 -0.1957  0.9679
 7172TIP3    H242932   6.697   6.826   0.777  0.4883  0.3656  1.0533
 7173TIP3   OH242933   1.213   1.987   6.512 -0.2773 -0.3820  0.1242
 7173TIP3    H142934   1.241   1.945   6.593  1.7886  0.9277  0.1393
 7173TIP3    H242935   1.212   2.080   6.532  0.7623  0.0067 -1.4898
 7174TIP3   OH242936   4.488   6.411  14.931  0.2307 -0.5824  0.0205
 7174TIP3    H142937   4.566   6.457  14.963  0.3408  1.0295 -2.3521
 7174TIP3    H242938   4.519   6.360  14.856 -0.5050 -2.1727  0.7510
 7175TIP3   OH242939   4.945   0.868   5.842 -0.4707  0.4367 -0.4028
 7175TIP3    H142940   4.933   0.930   5.915  0.5011  0.7852 -0.5198
 7175TIP3    H242941   4.861   0.870   5.795 -0.2253  2.2930 -0.8692
 7176TIP3   OH242942   6.584   2.533  14.641 -0.0265  0.2965  0.0046
 7176TIP3    H142943   6.641   2.523  14.565  0.0398  2.0832 -0.2248
 7176TIP3    H242944   6.606   2.620  14.676 -1.1361  0.1426  1.1509
 7177TIP3   OH242945   0.248   1.640   5.096  0.4948 -0.6024  0.3104
 7177TIP3    H142946   0.226   1.646   5.189 -1.1262 -2.0244  0.0657
 7177TIP3    H242947   0.311   1.568   5.091 -0.0391 -1.0728  0.2340
 7178TIP3   OH242948   3.601   5.578   4.022  0.2589  0.1431 -0.4641
 7178TIP3    H142949   3.638   5.509   4.078  1.6975  1.4747  0.3116
 7178TIP3    H242950   3.675   5.636   4.004 -0.5860  0.7118 -2.3294
 7179TIP3   OH242951   2.507   5.063   3.587 -0.0822  0.5503  0.1431
 7179TIP3    H142952   2.579   5.056   3.649 -0.0808  0.2667  0.1077
 7179TIP3    H242953   2.500   4.976   3.547  1.9141  1.4593 -2.4978
 7180TIP3   OH242954   3.401   4.152   4.570  0.1882  0.3116 -0.1174
 7180TIP3    H142955   3.465   4.083   4.585  1.5826  1.5247 -0.2851
 7180TIP3    H242956   3.383   4.147   4.476 -1.8982 -1.6080  0.2931
 7181TIP3   OH242957   1.557   3.748   6.729 -0.0491  0.3315 -0.0928
 7181TIP3    H142958   1.643   3.789   6.727  0.0641  0.0840 -0.2106
 7181TIP3    H242959   1.503   3.802   6.670 -0.1356  0.8431  0.4379
 7182TIP3   OH242960   5.876   5.712  16.067 -0.0737 -0.0185  0.4459
 7182TIP3    H142961   5.795   5.764  16.065 -1.0282 -1.4505 -1.5439
 7182TIP3    H242962   5.852   5.633  16.115  0.1852 -0.3721 -0.0031
 7183TIP3   OH242963   4.964   5.281   0.528  0.3916 -0.6476 -0.4775
 7183TIP3    H142964   4.997   5.370   0.515  0.1160 -0.3908  0.4531
 7183TIP3    H242965   5.037   5.224   0.505  0.2961 -0.2264 -1.9233
 7184TIP3   OH242966   2.873   0.868   3.747 -0.4708  0.8303  0.1713
 7184TIP3    H142967   2.947   0.852   3.689 -1.5930 -0.6685 -0.9527
 7184TIP3    H242968   2.896   0.823   3.829  0.7611  2.2415  0.6277
 7185TIP3   OH242969   1.031   1.570  12.030 -0.2666 -0.1841  0.1579
 7185TIP3    H142970   1.005   1.522  11.952  3.2458 -0.9892 -0.6864
 7185TIP3    H242971   1.077   1.647  11.996  0.4878 -0.0428  1.4339
 7186TIP3   OH242972   2.872   3.670   4.814 -0.2580 -0.3229 -0.4450
 7186TIP3    H142973   2.929   3.739   4.848 -1.3660  0.3538  0.0688
 7186TIP3    H242974   2.790   3.714   4.793 -1.0687 -1.5215  0.1037
 7187TIP3   OH242975   6.072   5.470  13.316 -0.1972 -0.4106  0.9984
 7187TIP3    H142976   6.050   5.537  13.380 -1.4312 -0.6484  0.8366
 7187TIP3    H242977   6.164   5.449  13.335  0.6808  2.2480  0.2095
 7188TIP3   OH242978   2.269   3.471  11.309  0.2002  0.1773  0.0457
 7188TIP3    H142979   2.259   3.485  11.403  0.6320 -0.0899  0.1332
 7188TIP3    H242980   2.338   3.405  11.302  0.5987  0.6489 -0.4848
 7189TIP3   OH242981   5.459   6.349   6.739 -0.4993  0.0398 -0.7949
 7189TIP3    H142982   5.425   6.415   6.799 -0.9500 -0.1697 -0.8158
 7189TIP3    H242983   5.388   6.285   6.731 -0.4576  0.0902 -1.5919
 7190TIP3   OH242984   3.192   1.108  12.035  0.7429  0.6909 -0.1482
 7190TIP3    H142985   3.120   1.154  11.991  0.1524 -0.4379 -0.3819
 7190TIP3    H242986   3.227   1.049  11.968  2.3769  1.7134 -0.2635
 7191TIP3   OH242987   0.763   5.721   1.406  0.1860 -0.3885 -0.0607
 7191TIP3    H142988   0.813   5.764   1.475  0.3247 -1.2015  0.3701
 7191TIP3    H242989   0.685   5.775   1.395  1.0278  0.7553 -0.5676
 7192TIP3   OH242990   0.606   4.804   3.797 -0.1282 -0.3911 -0.1918
 7192TIP3    H142991   0.520   4.798   3.757 -0.3644 -0.1455  0.2699
 7192TIP3    H242992   0.634   4.713   3.808 -1.0447 -0.5453  1.1668
 7193TIP3   OH242993   6.520   3.729   5.989 -0.5848  0.0983 -0.0792
 7193TIP3    H142994   6.564   3.772   6.063  0.8567  0.9354 -1.3463
 7193TIP3    H242995   6.458   3.668   6.029  2.1480 -1.6094  1.8803
 7194TIP3   OH242996   2.867   3.053   3.583 -0.1076 -1.1097 -0.3440
 7194TIP3    H142997   2.926   2.983   3.555  2.0144 -0.2991  1.7185
 7194TIP3    H242998   2.911   3.133   3.555  0.6530 -0.4104  2.5204
 7195TIP3   OH242999   4.760   0.605   4.968 -0.2449  0.5016 -0.3025
 7195TIP3    H143000   4.750   0.664   5.042  1.1930  0.7449 -0.2829
 7195TIP3    H243001   4.781   0.661   4.893  0.5243  0.0925 -0.4118
 7196TIP3   OH243002   5.276   6.732  14.632  0.2772  0.1756 -0.5847
 7196TIP3    H143003   5.322   6.648  14.630 -1.2218 -0.6937 -0.1903
 7196TIP3    H243004   5.183   6.708  14.633 -0.1747  1.7994  1.0601
 7197TIP3   OH243005   4.349   2.210   2.982  0.1784  0.4074 -0.1584
 7197TIP3    H143006   4.265   2.178   3.013 -0.3041  1.7064 -0.1084
 7197TIP3    H243007   4.382   2.267   3.052  1.3645 -0.4957  0.0610
 7198TIP3   OH243008   0.255   1.485  15.251 -0.2099 -0.3656  0.1409
 7198TIP3    H143009   0.172   1.459  15.211 -0.7474  1.0913  0.2766
 7198TIP3    H243010   0.269   1.575  15.223  0.6423 -0.1266  1.2464
 7199TIP3   OH243011   0.877   0.851   6.525 -0.4749 -0.0111 -0.5347
 7199TIP3    H143012   0.864   0.946   6.529  0.9637  0.1861  0.0961
 7199TIP3    H243013   0.802   0.814   6.572  0.8501  1.0265  2.6701
 7200TIP3   OH243014   1.626   5.683  15.780  0.0990  0.3848 -0.0173
 7200TIP3    H143015   1.608   5.686  15.686 -0.2636 -1.3025 -0.0242
 7200TIP3    H243016   1.720   5.702  15.787  0.5732 -1.3930 -0.9179
 7201TIP3   OH243017   6.440   4.352   4.263 -0.1107 -0.1667  0.4905
 7201TIP3    H143018   6.461   4.440   4.230 -0.6670 -0.1385  0.1841
 7201TIP3    H243019   6.524   4.307   4.267  0.3298  0.7058  1.6290
 7202TIP3   OH243020   1.800   6.158   5.208  0.6780  0.4954 -0.1786
 7202TIP3    H143021   1.733   6.184   5.145  0.4729 -2.1929 -1.1850
 7202TIP3    H243022   1.875   6.215   5.189  0.0768  0.8070 -1.7575
 7203TIP3   OH243023   5.698   2.469  13.886 -0.1024 -0.3795  0.4098
 7203TIP3    H143024   5.689   2.552  13.933 -0.0237 -0.4552  0.5586
 7203TIP3    H243025   5.790   2.464  13.862 -0.5453  0.7726 -1.8097
 7204TIP3   OH243026   2.881   3.011   2.909  0.0317 -0.5155 -0.3595
 7204TIP3    H143027   2.888   3.096   2.954 -0.4275 -0.3941 -0.5101
 7204TIP3    H243028   2.890   2.946   2.979  1.2986 -0.3654 -0.3618
 7205TIP3   OH243029   4.569   1.251   4.247 -0.2295 -0.0322  0.1165
 7205TIP3    H143030   4.598   1.339   4.270 -0.9061  0.7252 -1.7258
 7205TIP3    H243031   4.637   1.219   4.188 -1.1372  0.2216 -1.1071
 7206TIP3   OH243032   2.071   5.733   5.315  0.1955  0.1315  0.2935
 7206TIP3    H143033   2.121   5.812   5.333  0.0818  0.3189 -0.1947
 7206TIP3    H243034   1.979   5.761   5.321  0.1496  0.2198 -0.5994
 7207TIP3   OH243035   6.384   4.161   1.817  0.3431 -0.0195  0.2830
 7207TIP3    H143036   6.421   4.169   1.729  0.3695 -3.4380 -0.1490
 7207TIP3    H243037   6.406   4.072   1.844 -1.2909  0.2982  3.0328
 7208TIP3   OH243038   6.665   6.744  16.661 -0.5003  0.1236  0.3413
 7208TIP3    H143039   6.704   6.665  16.622 -0.5596 -0.3962  1.2983
 7208TIP3    H243040   6.609   6.710  16.731  0.1436  1.0695  1.3234
 7209TIP3   OH243041   5.545   5.633   2.754  0.5307  0.7332 -0.2482
 7209TIP3    H143042   5.487   5.655   2.682 -1.1882 -0.1344  0.7904
 7209TIP3    H243043   5.580   5.547   2.731  0.4716  0.7314 -0.3314
 7210TIP3   OH243044   2.393   3.221  12.618 -0.3777 -0.4426  0.1862
 7210TIP3    H143045   2.397   3.135  12.661  0.6134 -1.5739 -2.0005
 7210TIP3    H243046   2.350   3.203  12.534  1.4604  0.8026 -1.0959
 7211TIP3   OH243047   1.899   5.725  15.773 -0.2893  0.1457 -0.3416
 7211TIP3    H143048   1.960   5.798  15.763 -0.6079  0.5993  0.8472
 7211TIP3    H243049   1.914   5.670  15.696  0.3115  1.1989 -0.9940
 7212TIP3   OH243050   4.334   2.752   5.486 -0.4948  0.5171  0.0848
 7212TIP3    H143051   4.286   2.801   5.553 -0.1915  1.5579 -0.4360
 7212TIP3    H243052   4.327   2.661   5.513 -1.3363  0.8171  0.9178
 7213TIP3   OH243053   2.617   6.044   1.203 -0.2764 -0.1098 -0.1714
 7213TIP3    H143054   2.527   6.011   1.204  0.0538 -1.0400  0.2454
 7213TIP3    H243055   2.671   5.965   1.204  0.5690  0.3999  2.3943
 7214TIP3   OH243056   5.177   5.103  15.245  0.4212 -0.2783  0.6924
 7214TIP3    H143057   5.204   5.113  15.154  2.5850 -0.5119  1.2595
 7214TIP3    H243058   5.180   5.192  15.281 -0.1403 -0.2293  0.6327
 7215TIP3   OH243059   3.619   1.329   5.617 -0.1399 -0.1827  0.6924
 7215TIP3    H143060   3.591   1.359   5.531  0.0616 -1.3246  0.2144
 7215TIP3    H243061   3.626   1.409   5.669 -2.0731  0.3790  0.1891
 7216TIP3   OH243062   2.902   3.746   4.521 -0.0739 -0.1854  0.1130
 7216TIP3    H143063   2.881   3.679   4.457 -1.7579  1.7143 -1.4755
 7216TIP3    H243064   2.911   3.699   4.603 -2.9446 -2.1974 -0.5671
 7217TIP3   OH243065   0.112   2.863   4.953  0.3970  0.0661 -0.1076
 7217TIP3    H143066   0.031   2.896   4.992 -1.2601 -0.5217 -2.8653
 7217TIP3    H243067   0.137   2.931   4.890  1.5410 -0.2138  0.0243
 7218TIP3   OH243068   6.637   1.156   0.167 -0.0384  0.1055  0.3717
 7218TIP3    H143069   6.670   1.147   0.078  0.4788 -0.7577  0.6363
 7218TIP3    H243070   6.543   1.175   0.156 -1.2232 -4.7378 -0.4435
 7219TIP3   OH243071   1.929   4.433   1.173  0.4258 -0.2277  0.3648
 7219TIP3    H143072   1.947   4.471   1.260 -0.0265  1.2225 -0.1507
 7219TIP3    H243073   1.842   4.466   1.150  0.5662 -0.5490 -0.6684
 7220TIP3   OH243074   3.017   4.373  13.196  0.7171  0.8320  0.5299
 7220TIP3    H143075   3.110   4.367  13.176  0.6255 -2.2913  0.5535
 7220TIP3    H243076   2.974   4.362  13.111  0.4094 -0.4323  0.8218
 7221TIP3   OH243077   5.720   5.615   3.098 -0.1868  0.0797  0.1030
 7221TIP3    H143078   5.735   5.601   3.191 -0.5549  1.4073  0.3738
 7221TIP3    H243079   5.775   5.691   3.076 -1.3369  0.7900 -0.3861
 7222TIP3   OH243080   2.004   2.956  16.397  0.2586 -0.1406  0.0388
 7222TIP3    H143081   2.048   2.989  16.318  2.8477  1.5601  2.0453
 7222TIP3    H243082   2.074   2.914  16.447 -0.8817  0.5309  2.2927
 7223TIP3   OH243083   2.116   3.535  11.543  0.1858  1.0078  0.3130
 7223TIP3    H143084   2.038   3.489  11.513  0.8221  0.4445 -0.5187
 7223TIP3    H243085   2.107   3.623  11.508  0.5499  0.5728 -0.9034
 7224TIP3   OH243086   5.971   1.565  14.414 -0.1455  0.1391  0.1095
 7224TIP3    H143087   5.931   1.593  14.332 -0.0161 -1.3130 -0.4795
 7224TIP3    H243088   5.927   1.618  14.481  0.3726  1.9851 -0.9398
 7225TIP3   OH243089   1.229   6.570  14.998 -0.3827 -0.3920  0.1299
 7225TIP3    H143090   1.323   6.572  15.019 -0.8198  0.2165  2.1897
 7225TIP3    H243091   1.213   6.652  14.953 -0.6055  1.3740  3.1984
 7226TIP3   OH243092   2.471   1.788  15.308 -1.0551  0.1155  0.0743
 7226TIP3    H143093   2.525   1.747  15.376  2.1550 -0.0321 -2.3506
 7226TIP3    H243094   2.473   1.881  15.329 -0.7534 -0.0068  0.6092
 7227TIP3   OH243095   1.956   5.103  11.601 -0.1180  0.1880  0.5887
 7227TIP3    H143096   1.873   5.063  11.575  0.1518  1.2898 -2.3958
 7227TIP3    H243097   2.022   5.056  11.551  0.8911  0.4000  1.6790
 7228TIP3   OH243098   0.756   2.658   3.971  0.3314 -0.3429 -0.0188
 7228TIP3    H143099   0.735   2.685   3.881 -1.2119 -0.2734  0.3228
 7228TIP3    H243100   0.762   2.740   4.020 -1.4977 -0.4207  0.4384
 7229TIP3   OH243101   6.422   4.872   3.981 -0.1889  0.2463 -0.2333
 7229TIP3    H143102   6.402   4.847   4.071 -1.6989 -1.2712 -0.9306
 7229TIP3    H243103   6.430   4.967   3.983  3.0608  0.1184  2.0774
 7230TIP3   OH243104   6.173   3.292   3.839 -0.1072  0.0713 -0.1010
 7230TIP3    H143105   6.158   3.373   3.790 -1.0569  0.0697  0.1595
 7230TIP3    H243106   6.199   3.228   3.772 -0.9451  0.1822 -0.5558
 7231TIP3   OH243107   3.178   4.393  14.892  0.6415 -0.0676  0.1720
 7231TIP3    H143108   3.098   4.342  14.905  0.5746  0.0258  0.1285
 7231TIP3    H243109   3.248   4.328  14.889  0.5386 -0.1684 -0.0441
 7232TIP3   OH243110   5.866   5.817  12.454  0.6013  0.1397 -0.0199
 7232TIP3    H143111   5.786   5.869  12.465 -1.2408 -2.4985  0.1954
 7232TIP3    H243112   5.863   5.754  12.526  1.5676 -1.5487 -1.3864
 7233TIP3   OH243113   0.175   0.161   1.273 -0.4061 -0.0776  0.1660
 7233TIP3    H143114   0.098   0.184   1.325  0.5844 -0.0106  1.6665
 7233TIP3    H243115   0.210   0.245   1.243  0.9179  0.2032  2.2716
 7234TIP3   OH243116   2.933   3.015   2.627 -0.0864 -0.3329  0.1534
 7234TIP3    H143117   3.008   2.969   2.664 -1.0780 -2.2382 -0.0861
 7234TIP3    H243118   2.869   3.018   2.698 -0.9182 -1.4669 -0.5157
 7235TIP3   OH243119   4.847   4.685  16.941 -0.4165  0.0262  0.5913
 7235TIP3    H143120   4.880   4.614  16.996 -1.1760 -0.4081  0.5026
 7235TIP3    H243121   4.775   4.646  16.892  0.5815  0.2431 -1.1467
 7236TIP3   OH243122   6.689   2.098  11.808  0.1781  0.0355  0.0037
 7236TIP3    H143123   6.636   2.028  11.845  0.3414 -0.8666 -1.4036
 7236TIP3    H243124   6.721   2.146  11.884 -0.1552 -1.2522  0.9977
 7237TIP3   OH243125   3.338   4.515  13.309 -0.0177  0.7334  0.0235
 7237TIP3    H143126   3.429   4.514  13.337  0.2224 -1.1637 -0.6664
 7237TIP3    H243127   3.324   4.429  13.269 -2.7825 -0.0437  2.2867
 7238TIP3   OH243128   3.591   2.703  16.441  0.1057  0.4541 -0.2136
 7238TIP3    H143129   3.508   2.746  16.419  0.5431  1.7624  0.5878
 7238TIP3    H243130   3.599   2.713  16.536  0.6981 -0.5673 -0.1468
 7239TIP3   OH243131   5.322   0.182  13.885  0.7712  0.0978  0.1099
 7239TIP3    H143132   5.365   0.259  13.924  1.4353  0.1725 -0.7264
 7239TIP3    H243133   5.234   0.183  13.920  0.5356  1.6728 -0.4223
 7240TIP3   OH243134   2.229   2.875  15.920  0.0779  0.0996 -0.1216
 7240TIP3    H143135   2.256   2.785  15.942  0.7552  0.4062  0.3301
 7240TIP3    H243136   2.216   2.872  15.825 -0.9673 -0.7423  0.0272
 7241TIP3   OH243137   4.870   2.149   5.024  0.6291  0.4860  0.0155
 7241TIP3    H143138   4.927   2.160   4.948  1.0474 -1.8212 -0.0763
 7241TIP3    H243139   4.930   2.124   5.095  0.3370  3.2067  1.3473
 7242TIP3   OH243140   5.141   2.074  13.062  0.1462 -0.0116  0.0507
 7242TIP3    H143141   5.071   2.102  13.121 -0.7881 -0.3923 -0.8451
 7242TIP3    H243142   5.183   2.155  13.034 -0.2056  0.2504  0.2781
 7243TIP3   OH243143   5.386   6.465   1.386  0.2762  0.0352 -0.0058
 7243TIP3    H143144   5.341   6.419   1.316 -1.2314  0.5715  0.5678
 7243TIP3    H243145   5.454   6.404   1.415  1.2596 -0.0091 -2.2108
 7244TIP3   OH243146   0.489   2.469  15.575  0.7389  0.9156  0.3940
 7244TIP3    H143147   0.399   2.498  15.590  0.5736  0.1649  0.8990
 7244TIP3    H243148   0.537   2.549  15.557  0.4209  1.5966  2.3492
 7245TIP3   OH243149   4.652   4.556   2.075  0.2948 -0.2225  0.0941
 7245TIP3    H143150   4.581   4.492   2.075  1.4659 -1.5866 -0.8142
 7245TIP3    H243151   4.647   4.599   1.990  1.4427 -1.4148 -0.6165
 7246TIP3   OH243152   3.085   1.910   0.725 -0.0872  0.2680 -0.6259
 7246TIP3    H143153   3.113   1.821   0.704 -0.6170 -0.4850  1.6047
 7246TIP3    H243154   3.160   1.949   0.769  0.1908  1.0000 -1.7157
 7247TIP3   OH243155   5.559   0.084   3.115  0.0483  0.6419  0.5053
 7247TIP3    H143156   5.474   0.094   3.072 -0.6739 -1.3749  1.3187
 7247TIP3    H243157   5.552   0.000   3.162  2.6197  0.2395  0.3068
 7248TIP3   OH243158   3.630   2.804  16.703 -0.1545 -0.5163 -0.2683
 7248TIP3    H143159   3.663   2.884  16.661  0.8241 -1.4509 -1.3339
 7248TIP3    H243160   3.702   2.776  16.760 -0.2168 -1.0380 -0.4473
 7249TIP3   OH243161   6.075   5.832  14.732  0.3212  0.4290 -0.2439
 7249TIP3    H143162   6.167   5.852  14.715  1.1027 -1.9638  0.7494
 7249TIP3    H243163   6.047   5.780  14.657  1.0331 -2.2221  1.2078
 7250TIP3   OH243164   6.397   3.173   1.956  0.1971 -0.2161 -0.0626
 7250TIP3    H143165   6.352   3.216   2.028  0.8960  1.6495 -0.6817
 7250TIP3    H243166   6.326   3.135   1.903 -0.7619  2.5495 -0.9596
 7251TIP3   OH243167   5.894   6.703   1.699  0.1125 -0.1676  0.5806
 7251TIP3    H143168   5.844   6.769   1.650 -2.8892 -3.6393 -1.5594
 7251TIP3    H243169   5.976   6.696   1.651 -0.0333  1.0877  0.0912
 7252TIP3   OH243170   5.275   5.289  11.698 -0.4419 -0.0954  0.4339
 7252TIP3    H143171   5.194   5.336  11.714 -0.3608 -0.0570  0.7362
 7252TIP3    H243172   5.263   5.204  11.741 -0.5362 -0.3050  0.0055
 7253TIP3   OH243173   6.382   4.727   4.802  0.5835  0.2029 -0.2612
 7253TIP3    H143174   6.434   4.706   4.880 -0.0338  1.6981  0.5878
 7253TIP3    H243175   6.396   4.821   4.787 -0.2705  0.2042 -1.2241
 7254TIP3   OH243176   0.688   2.098  14.712  0.1619  0.3919  0.0124
 7254TIP3    H143177   0.624   2.063  14.650  0.4207 -1.8996  0.9548
 7254TIP3    H243178   0.636   2.116  14.791  0.6306 -1.5295  0.7999
 7255TIP3   OH243179   0.463   1.884   4.360  0.6623 -0.2758 -0.3414
 7255TIP3    H143180   0.497   1.845   4.280  1.7650 -3.0583  1.3494
 7255TIP3    H243181   0.526   1.953   4.382  0.1957  0.7136 -1.9378
 7256TIP3   OH243182   4.368   4.580   4.626 -0.3585 -0.1701 -0.5655
 7256TIP3    H143183   4.396   4.540   4.709  2.1309 -1.1210 -1.7522
 7256TIP3    H243184   4.305   4.647   4.652 -0.6492 -1.2964  1.9756
 7257TIP3   OH243185   1.104   6.055   5.630  0.4254 -0.2242  0.2656
 7257TIP3    H143186   1.115   6.146   5.659 -2.2307  0.5508 -0.8461
 7257TIP3    H243187   1.061   6.012   5.704  1.7425 -0.6589  0.8182
 7258TIP3   OH243188   2.617   3.044   3.094  0.1602  0.1459 -0.2417
 7258TIP3    H143189   2.582   2.984   3.160  1.2852 -1.5903 -1.1257
 7258TIP3    H243190   2.674   3.103   3.142 -0.5290  0.1587  0.5817
 7259TIP3   OH243191   0.412   4.859   1.520  0.5500 -0.1866  0.2447
 7259TIP3    H143192   0.449   4.809   1.447 -2.6296 -2.1028 -0.2287
 7259TIP3    H243193   0.409   4.797   1.592 -1.5814 -0.1380  0.2608
 7260TIP3   OH243194   4.393   5.344   4.593  0.2941 -0.2867  0.0901
 7260TIP3    H143195   4.331   5.346   4.665  0.5501 -1.0017  0.3404
 7260TIP3    H243196   4.410   5.251   4.578  1.3139 -0.1047  0.0369
 7261TIP3   OH243197   6.440   3.910   3.190  0.3970  0.3258  0.0774
 7261TIP3    H143198   6.398   3.985   3.233 -2.3356 -1.7500  1.3524
 7261TIP3    H243199   6.379   3.886   3.120  0.6881 -1.3071  0.3640
 7262TIP3   OH243200   5.391   5.240  17.044  0.0707 -0.1019 -0.1878
 7262TIP3    H143201   5.405   5.310  17.108 -1.9275  0.1701  0.0305
 7262TIP3    H243202   5.417   5.160  17.089 -1.7564  0.0185  1.2311
 7263TIP3   OH243203   1.429   5.701   1.970 -0.7181 -0.1194 -0.2657
 7263TIP3    H143204   1.500   5.738   2.022 -1.5144  1.4088 -0.1981
 7263TIP3    H243205   1.467   5.689   1.883 -0.1654 -0.0437 -0.0389
 7264TIP3   OH243206   3.572   6.564  13.732  0.6782  0.2808 -0.7177
 7264TIP3    H143207   3.505   6.519  13.784 -0.0584 -0.2012 -2.0245
 7264TIP3    H243208   3.615   6.623  13.793 -0.4694  0.0735  0.3225
 7265TIP3   OH243209   2.627   2.175   0.950  0.0624  0.1944  0.5354
 7265TIP3    H143210   2.615   2.117   1.025 -0.2749  0.1059  0.4176
 7265TIP3    H243211   2.682   2.125   0.890  1.1933  0.6716  1.1579
 7266TIP3   OH243212   2.973   2.557  15.020 -0.4811  0.2758  0.2182
 7266TIP3    H143213   2.961   2.462  15.017  1.7059 -0.0480  0.1639
 7266TIP3    H243214   3.001   2.574  15.110  3.0172  0.2454 -0.7264
 7267TIP3   OH243215   6.696   6.203   3.560  0.2927  0.2617 -0.0392
 7267TIP3    H143216   6.722   6.272   3.499  0.2267  0.8059  0.5336
 7267TIP3    H243217   6.648   6.249   3.629 -1.2453 -0.5778 -0.5079
 7268TIP3   OH243218   0.188   3.626   2.522 -0.1129 -0.1409  0.1581
 7268TIP3    H143219   0.129   3.686   2.477 -0.1342  1.6750  2.4214
 7268TIP3    H243220   0.129   3.568   2.572 -0.0562 -1.2825 -1.0625
 7269TIP3   OH243221   2.566   4.721   1.801  0.1436  0.7095  0.6286
 7269TIP3    H143222   2.652   4.760   1.787  1.0698 -1.3186  0.1876
 7269TIP3    H243223   2.557   4.714   1.896  0.7142  0.4603  0.6686
 7270TIP3   OH243224   5.591   5.400  16.345  0.5330  0.1636 -0.7992
 7270TIP3    H143225   5.507   5.440  16.368 -0.5673 -1.8863 -1.0252
 7270TIP3    H243226   5.595   5.320  16.398  1.7071 -0.4747 -1.8062
 7271TIP3   OH243227   1.850   5.266  14.554 -0.3424 -0.4770 -0.3724
 7271TIP3    H143228   1.867   5.285  14.462 -1.1313 -0.4609 -0.5213
 7271TIP3    H243229   1.850   5.351  14.597  0.3616 -0.5126 -0.2958
 7272TIP3   OH243230   0.476   2.150   0.863 -0.3643 -0.9123 -0.1455
 7272TIP3    H143231   0.440   2.211   0.799  0.8940  1.8124  1.5056
 7272TIP3    H243232   0.407   2.140   0.929 -0.0201  0.1095  0.3954
 7273TIP3   OH243233   5.161   3.010  15.080  0.6774  0.0460 -0.4728
 7273TIP3    H143234   5.246   2.969  15.099  1.1211  1.4611  0.8245
 7273TIP3    H243235   5.126   3.033  15.167 -2.4032 -3.0222 -0.6966
 7274TIP3   OH243236   0.385   0.605   4.306  0.6884  0.5451 -0.2967
 7274TIP3    H143237   0.356   0.683   4.353 -0.8623  0.7815 -1.5531
 7274TIP3    H243238   0.380   0.535   4.371 -1.5086  0.8511 -0.0468
 7275TIP3   OH243239   5.708   5.405  16.724 -0.3058 -0.2114  0.2181
 7275TIP3    H143240   5.735   5.488  16.764  1.3032 -1.2371  1.3938
 7275TIP3    H243241   5.613   5.403  16.736 -0.4204  1.6101 -0.1690
 7276TIP3   OH243242   0.561   2.218   0.365 -0.0229 -0.4604  0.1778
 7276TIP3    H143243   0.537   2.182   0.280 -0.7807 -0.6680  0.4755
 7276TIP3    H243244   0.548   2.145   0.426  0.6266 -0.3477  0.4603
 7277TIP3   OH243245   1.741   4.594  12.820  0.0877  0.0373 -0.6682
 7277TIP3    H143246   1.823   4.559  12.853 -0.6158 -0.4388  0.6776
 7277TIP3    H243247   1.679   4.582  12.892 -0.5010  2.9927 -0.5531
 7278TIP3   OH243248   3.698   4.434  16.917  0.4950 -0.1087 -0.4738
 7278TIP3    H143249   3.683   4.527  16.903  0.9745  0.0663  0.1004
 7278TIP3    H243250   3.784   4.417  16.878  0.8466 -0.0897  0.2721
 7279TIP3   OH243251   4.165   5.562   2.090 -0.2461 -0.2783  0.1546
 7279TIP3    H143252   4.087   5.591   2.137  0.0950 -1.1014  1.2939
 7279TIP3    H243253   4.166   5.614   2.010 -1.0656  0.9031  0.8794
 7280TIP3   OH243254   1.595   1.113  14.402  0.0090 -0.3485 -0.6111
 7280TIP3    H143255   1.560   1.179  14.342 -0.0666  0.7425  0.6077
 7280TIP3    H243256   1.688   1.134  14.410 -0.5214  1.4136  1.9433
 7281TIP3   OH243257   0.120   5.357  16.205  0.4042  0.2204  0.8314
 7281TIP3    H143258   0.216   5.361  16.206  0.3692  2.6747  0.2423
 7281TIP3    H243259   0.093   5.437  16.161 -1.9423 -0.7016  0.4363
 7282TIP3   OH243260   0.307   4.685  15.478 -0.6143  0.0647  0.1785
 7282TIP3    H143261   0.273   4.618  15.537 -0.1193 -2.4720 -2.1841
 7282TIP3    H243262   0.394   4.653  15.454 -0.3491  1.5859 -1.0464
 7283TIP3   OH243263   1.577   3.261   1.641  0.1324  0.3100 -0.4117
 7283TIP3    H143264   1.558   3.168   1.655  0.7125  0.2732  0.1772
 7283TIP3    H243265   1.538   3.306   1.715  0.0079  0.5218 -0.6027
 7284TIP3   OH243266   5.149   1.990  14.219 -0.3259 -0.0473  0.3131
 7284TIP3    H143267   5.108   2.075  14.233  0.4751  0.7993 -2.0893
 7284TIP3    H243268   5.085   1.940  14.169 -0.0688 -0.2142  0.1469
 7285TIP3   OH243269   6.433   6.443  16.112  0.2812 -0.1474  0.3795
 7285TIP3    H143270   6.378   6.516  16.141  0.5923 -0.0330  0.6840
 7285TIP3    H243271   6.517   6.457  16.156  1.8429  1.7151 -2.8010
 7286TIP3   OH243272   1.926   4.890   3.153  0.2063 -0.6363  0.0720
 7286TIP3    H143273   1.848   4.908   3.204  0.3396 -0.5471  0.2472
 7286TIP3    H243274   1.916   4.800   3.124 -0.1634 -0.4906 -0.2685
 7287TIP3   OH243275   0.944   5.795  14.205 -0.0227  0.3300 -0.4343
 7287TIP3    H143276   0.980   5.786  14.293  0.0603  0.6785 -0.4297
 7287TIP3    H243277   0.850   5.804  14.219  0.0907  1.5286 -0.2860
 7288TIP3   OH243278   3.171   1.370   2.202 -0.5163 -0.1601 -0.0856
 7288TIP3    H143279   3.265   1.354   2.191 -0.7179 -0.8838 -0.8683
 7288TIP3    H243280   3.143   1.408   2.119 -1.0930 -0.8102 -0.1973
 7289TIP3   OH243281   4.795   0.616  11.604  0.5123  0.0546  0.5111
 7289TIP3    H143282   4.809   0.539  11.659  1.2715  1.0733  1.8071
 7289TIP3    H243283   4.712   0.653  11.634  0.9643  0.6557  1.0373
 7290TIP3   OH243284   0.288   4.887  12.741  0.2553 -0.6171 -0.3186
 7290TIP3    H143285   0.202   4.878  12.781 -0.1678  1.4088 -0.6722
 7290TIP3    H243286   0.278   4.959  12.678  1.9943 -0.8838 -0.9609
 7291TIP3   OH243287   6.234   6.332  16.669 -0.3672 -0.2625  0.2096
 7291TIP3    H143288   6.297   6.374  16.610  0.9604 -0.2923  1.5735
 7291TIP3    H243289   6.257   6.239  16.668 -0.0518 -0.2025  1.0932
 7292TIP3   OH243290   0.228   3.766  12.416 -0.2770  0.5476  0.6095
 7292TIP3    H143291   0.240   3.843  12.359  0.1295 -0.5505 -0.8610
 7292TIP3    H243292   0.171   3.708  12.366  2.0747 -1.5360  0.1597
 7293TIP3   OH243293   4.533   0.771  14.808 -0.4650 -0.0330  0.4991
 7293TIP3    H143294   4.620   0.748  14.775  0.7885  3.3167  1.1460
 7293TIP3    H243295   4.493   0.820  14.737 -0.3779  1.4916  1.4666
 7294TIP3   OH243296   3.380   3.210  13.812 -0.2785  0.6517  0.0824
 7294TIP3    H143297   3.356   3.273  13.879  2.0795  1.1307  0.5753
 7294TIP3    H243298   3.347   3.126  13.844 -2.3302  1.3919  0.0347
 7295TIP3   OH243299   3.949   2.876   1.769  0.4136  0.1993 -0.4691
 7295TIP3    H143300   3.938   2.937   1.842  0.1114 -0.8464  0.3894
 7295TIP3    H243301   3.860   2.865   1.734  0.2640 -0.6506  0.1472
 7296TIP3   OH243302   2.825   1.077   4.726  0.0283 -0.6322 -0.2493
 7296TIP3    H143303   2.898   1.085   4.788  0.3324  0.3946 -0.7204
 7296TIP3    H243304   2.790   1.165   4.719  0.4107 -0.5930 -2.0352
 7297TIP3   OH243305   0.320   4.268   3.076  0.4578  0.2222 -0.4806
 7297TIP3    H143306   0.248   4.328   3.053 -2.2967 -1.9944  1.6137
 7297TIP3    H243307   0.342   4.291   3.166  0.7383 -0.5862 -0.3361
 7298TIP3   OH243308   4.773   0.266  16.520 -0.2051 -0.3303 -0.2413
 7298TIP3    H143309   4.848   0.243  16.465 -1.2921  0.1887 -1.9997
 7298TIP3    H243310   4.813   0.305  16.598  1.3604  0.2961 -1.2923
 7299TIP3   OH243311   2.508   2.743   0.373 -0.1064 -0.4181  0.5532
 7299TIP3    H143312   2.501   2.812   0.440  0.7750  1.5912 -1.2864
 7299TIP3    H243313   2.597   2.751   0.340 -0.9072 -0.3571 -1.7974
 7300TIP3   OH243314   4.268   2.505  13.701 -0.2404 -0.6511 -0.0207
 7300TIP3    H143315   4.260   2.526  13.608 -0.6875 -2.4266 -0.4029
 7300TIP3    H243316   4.328   2.431  13.704 -1.6663 -1.8062  0.9203
 7301TIP3   OH243317   2.911   3.563  10.673  0.0513  0.1923 -0.7470
 7301TIP3    H143318   2.975   3.559  10.601  0.3228 -0.5246 -0.4775
 7301TIP3    H243319   2.827   3.549  10.631  0.0608  1.1429 -1.1083
 7302TIP3   OH243320   1.966   4.975  16.432  0.0963 -0.5014  0.2014
 7302TIP3    H143321   2.046   5.026  16.413 -1.7693  2.3094 -0.7915
 7302TIP3    H243322   1.955   4.920  16.355  0.0176  0.6293 -0.6263
 7303TIP3   OH243323   0.166   1.389   0.132 -0.4115 -0.4849  0.4392
 7303TIP3    H143324   0.235   1.323   0.128  1.6627  1.4406  2.0821
 7303TIP3    H243325   0.212   1.473   0.124 -2.8026  0.8549 -0.4304
 7304TIP3   OH243326   0.551   5.701   0.341  0.4620  0.5833 -0.6112
 7304TIP3    H143327   0.493   5.702   0.418 -0.4052  0.6232 -1.2521
 7304TIP3    H243328   0.492   5.702   0.266  1.3065  0.9882 -1.2903
 7305TIP3   OH243329   2.966   5.494   5.525  0.2289 -0.6531 -0.2406
 7305TIP3    H143330   2.873   5.514   5.539  0.6083  0.7702  0.3748
 7305TIP3    H243331   3.012   5.541   5.595  1.6247  0.8895 -2.1025
 7306TIP3   OH243332   2.848   2.378  11.983 -0.1171 -0.4304 -0.0703
 7306TIP3    H143333   2.885   2.450  11.931 -0.8614  1.1980  1.5557
 7306TIP3    H243334   2.759   2.367  11.950 -0.4748  0.3745  0.5885
 7307TIP3   OH243335   5.290   4.271  11.927 -0.5398  0.7136  0.2565
 7307TIP3    H143336   5.345   4.350  11.927 -1.1964  1.1983  1.3529
 7307TIP3    H243337   5.204   4.303  11.954 -0.4899 -0.5749  2.0952
 7308TIP3   OH243338   4.625   1.347  12.746  0.1393  0.2385  0.2808
 7308TIP3    H143339   4.580   1.374  12.666  0.8191 -2.4184 -1.1126
 7308TIP3    H243340   4.715   1.330  12.719  0.3477 -0.8876  1.5536
 7309TIP3   OH243341   3.556   3.243   1.281 -0.0583 -0.8009  0.5685
 7309TIP3    H143342   3.533   3.151   1.292  1.5733 -1.1346  1.4848
 7309TIP3    H243343   3.650   3.247   1.298 -0.4042  1.3222  2.5127
 7310TIP3   OH243344   2.164   1.450   1.825  0.2493  0.0486 -0.1238
 7310TIP3    H143345   2.098   1.515   1.801  1.0274  1.5421  1.5785
 7310TIP3    H243346   2.220   1.494   1.888  0.8928 -2.2584  1.0306
 7311TIP3   OH243347   1.496   2.887  16.589  0.9702 -0.0224  0.1953
 7311TIP3    H143348   1.502   2.947  16.664  0.8884  1.0057 -0.6011
 7311TIP3    H243349   1.490   2.800  16.628  1.9286  0.4108  1.3721
 7312TIP3   OH243350   3.410   5.142   4.668 -0.2289  0.6185  0.3867
 7312TIP3    H143351   3.331   5.130   4.719 -0.5707 -0.9675 -0.4535
 7312TIP3    H243352   3.447   5.224   4.700 -1.0135  0.2566  2.3562
 7313TIP3   OH243353   4.548   0.885  11.187  0.2152 -0.5351  0.2086
 7313TIP3    H143354   4.593   0.969  11.195  0.0279 -0.4824  0.7680
 7313TIP3    H243355   4.592   0.840  11.115  0.2426  0.0901 -0.1745
 7314TIP3   OH243356   0.999   4.946   4.286 -0.3875 -0.3195  0.8693
 7314TIP3    H143357   1.079   4.967   4.334 -2.1025  2.4175  2.8348
 7314TIP3    H243358   0.931   4.946   4.354 -2.4645  0.2379 -1.1171
 7315TIP3   OH243359   2.386   0.403  12.044  0.5266 -0.3286  0.3581
 7315TIP3    H143360   2.327   0.337  12.080 -0.3672 -0.3010 -0.9878
 7315TIP3    H243361   2.367   0.482  12.095 -3.0433  0.6034 -2.0292
 7316TIP3   OH243362   1.502   1.560   6.281 -0.0464  0.0918  0.2014
 7316TIP3    H143363   1.489   1.517   6.365  0.3211 -0.6945 -0.1376
 7316TIP3    H243364   1.553   1.639   6.302  2.9493 -1.7288  0.3776
 7317TIP3   OH243365   4.523   1.147  11.658  0.2589 -0.1691  0.2227
 7317TIP3    H143366   4.449   1.175  11.604 -0.6866 -1.9240  0.5619
 7317TIP3    H243367   4.553   1.228  11.701 -2.5952  0.3507  1.4731
 7318TIP3   OH243368   3.177   2.961  15.842 -0.3176 -0.1226  0.0359
 7318TIP3    H143369   3.124   2.885  15.866  0.8070 -1.0231 -0.2700
 7318TIP3    H243370   3.196   3.004  15.925  2.2250 -2.3319  0.7162
 7319TIP3   OH243371   1.116   0.011   6.579 -0.0422 -0.4070  0.2110
 7319TIP3    H143372   1.038  -0.035   6.608 -0.0640 -0.4632  0.0643
 7319TIP3    H243373   1.117   0.092   6.630 -1.0396  0.3249 -0.8958
 7320TIP3   OH243374   0.150   5.336   4.405 -0.3113 -0.2215 -0.0288
 7320TIP3    H143375   0.177   5.261   4.457 -0.6837  0.0018  0.4908
 7320TIP3    H243376   0.153   5.305   4.315 -2.0458 -1.3713  0.2639
 7321TIP3   OH243377   3.415   6.485   3.899  0.2915  0.1861  0.3488
 7321TIP3    H143378   3.451   6.528   3.822  0.6378  0.3476  0.5999
 7321TIP3    H243379   3.320   6.490   3.888  0.3211  1.2604  0.5164
 7322TIP3   OH243380   1.718   0.513   4.561  0.0310  0.2233  0.0839
 7322TIP3    H143381   1.628   0.505   4.530  0.2399 -1.4334 -0.1842
 7322TIP3    H243382   1.734   0.431   4.609  1.5633  0.2524 -0.3325
 7323TIP3   OH243383   4.563   1.740   0.846 -0.1677  0.1210 -0.1697
 7323TIP3    H143384   4.497   1.718   0.781  0.0832  1.4010 -0.9089
 7323TIP3    H243385   4.634   1.679   0.830 -0.7802 -0.6442  0.0020
 7324TIP3   OH243386   5.876   4.882  13.755 -0.1292  0.1872  0.6628
 7324TIP3    H143387   5.820   4.805  13.744  0.0200 -0.3568  3.1712
 7324TIP3    H243388   5.816   4.956  13.755 -0.5326 -0.1376  0.5675
 7325TIP3   OH243389   1.565   5.916  12.650  0.1890  0.1615 -0.2212
 7325TIP3    H143390   1.537   5.929  12.559  1.1638 -2.1222 -0.9324
 7325TIP3    H243391   1.658   5.937  12.650  0.3162 -0.3885  0.1180
 7326TIP3   OH243392   2.691   5.052   4.176 -0.3324  0.2743 -0.4803
 7326TIP3    H143393   2.651   5.014   4.254  1.7882  0.1383  0.6329
 7326TIP3    H243394   2.783   5.027   4.182  0.3477  2.1950 -1.8290
 7327TIP3   OH243395   4.985   2.005   4.003  0.3987  0.1259 -0.1770
 7327TIP3    H143396   4.986   1.910   4.006  0.3522  0.0165 -2.3146
 7327TIP3    H243397   5.070   2.030   3.968 -0.1906  0.7483 -1.2369
 7328TIP3   OH243398   3.998   0.258  15.969 -0.1110  0.2362 -0.0512
 7328TIP3    H143399   4.083   0.271  15.926 -0.6279 -2.3977 -2.1777
 7328TIP3    H243400   3.938   0.315  15.920 -0.3354 -1.3131 -1.6729
 7329TIP3   OH243401   4.201   0.725   5.706 -0.0408  0.5805 -0.0811
 7329TIP3    H143402   4.142   0.772   5.765 -1.1750 -0.8055 -0.0489
 7329TIP3    H243403   4.284   0.772   5.712 -0.3658  0.9893  1.9653
 7330TIP3   OH243404   6.678   1.495  17.368 -0.1234 -0.1875  0.0312
 7330TIP3    H143405   6.770   1.467  17.376 -0.3228 -1.2426 -1.0299
 7330TIP3    H243406   6.643   1.439  17.299 -1.5525  0.2745  0.3651
 7331TIP3   OH243407   2.235   4.229   5.408  0.1052  0.4281 -0.1792
 7331TIP3    H143408   2.205   4.200   5.494  1.8607 -0.7506  0.0943
 7331TIP3    H243409   2.292   4.158   5.378 -0.3016  0.9142 -2.2357
 7332TIP3   OH243410   2.659   4.483  14.774  0.0839  0.0957  0.0475
 7332TIP3    H143411   2.584   4.455  14.721 -0.2851  0.2015  0.5089
 7332TIP3    H243412   2.714   4.531  14.712  0.3961 -1.0502 -0.5921
 7333TIP3   OH243413   5.218   4.990  13.629 -0.1722  0.3213  0.6667
 7333TIP3    H143414   5.209   4.966  13.537 -2.3559 -0.1531  0.9685
 7333TIP3    H243415   5.216   5.086  13.629 -1.8431  0.3184  0.3142
 7334TIP3   OH243416   1.514   5.662  12.360  0.0227  0.2491  0.9205
 7334TIP3    H143417   1.429   5.634  12.328  0.0878  1.0647 -0.0168
 7334TIP3    H243418   1.520   5.625  12.448 -0.6122 -1.1757  0.3999
 7335TIP3   OH243419   1.909   6.152  10.348 -0.6680 -0.2727 -0.0468
 7335TIP3    H143420   1.910   6.205  10.428  2.5809  2.1843 -1.4653
 7335TIP3    H243421   1.972   6.082  10.365 -0.4161 -0.0911 -0.2172
 7336TIP3   OH243422   3.773   4.324  15.020  0.2733  0.5715 -0.0047
 7336TIP3    H143423   3.854   4.307  14.972 -0.9513  0.6314 -2.2173
 7336TIP3    H243424   3.799   4.323  15.112  2.4917 -1.0416 -0.5590
 7337TIP3   OH243425   0.248   4.352   3.361 -0.1958 -0.2439  0.7091
 7337TIP3    H143426   0.216   4.354   3.451 -1.7314 -2.4947  0.2967
 7337TIP3    H243427   0.212   4.272   3.324 -1.3369  1.5836 -2.5672
 7338TIP3   OH243428   2.520   1.102   5.097 -0.0515  0.0684  0.1570
 7338TIP3    H143429   2.539   1.010   5.116 -0.7514 -0.0104  0.5138
 7338TIP3    H243430   2.485   1.102   5.008 -0.9069 -0.1395  0.4803
 7339TIP3   OH243431   6.084   3.191  10.509  0.1785 -0.1203 -0.0697
 7339TIP3    H143432   6.121   3.120  10.458 -1.4420 -1.1934  0.1764
 7339TIP3    H243433   6.062   3.151  10.593  1.3628  1.2444  0.9595
 7340TIP3   OH243434   6.528   2.774   0.848 -0.1842  0.2878 -0.9781
 7340TIP3    H143435   6.457   2.714   0.871 -1.9225  2.2585 -0.9211
 7340TIP3    H243436   6.567   2.735   0.769 -0.5879 -1.3951 -0.4025
 7341TIP3   OH243437   2.144   5.682   4.376 -0.2662  0.0178 -0.3086
 7341TIP3    H143438   2.172   5.769   4.405 -2.0818  0.3549  0.5657
 7341TIP3    H243439   2.133   5.632   4.457 -0.0325 -0.7963 -0.7618
 7342TIP3   OH243440   0.062   4.027   1.801  0.5355  0.1954 -0.0126
 7342TIP3    H143441  -0.027   4.009   1.771  0.6772  1.4091 -1.2777
 7342TIP3    H243442   0.056   4.026   1.896 -0.8562  0.3819 -0.0812
 7343TIP3   OH243443   3.589   0.357  16.845 -0.1697  0.0714  0.1098
 7343TIP3    H143444   3.596   0.265  16.872  0.0086  0.3235  0.9624
 7343TIP3    H243445   3.679   0.389  16.847 -0.4023  0.7449  1.6376
 7344TIP3   OH243446   2.878   2.475   2.699  0.0662 -0.3190  0.0305
 7344TIP3    H143447   2.886   2.437   2.612  1.5695 -0.6902  0.3088
 7344TIP3    H243448   2.938   2.549   2.699  2.5363 -2.1595  1.6993
 7345TIP3   OH243449   5.193   5.544  14.318 -0.0137  0.2389 -0.1311
 7345TIP3    H143450   5.226   5.549  14.229 -1.5027  2.0868 -0.6456
 7345TIP3    H243451   5.244   5.608  14.367  0.1009 -0.0338  0.1135
 7346TIP3   OH243452   2.051   4.369  15.356  0.2360 -0.7898 -0.3611
 7346TIP3    H143453   2.016   4.292  15.311  0.8876 -0.7724 -0.9094
 7346TIP3    H243454   2.078   4.428  15.286 -0.6409  0.1322  0.0460
 7347TIP3   OH243455   2.443   1.040   3.301 -0.4516  0.2867 -0.7809
 7347TIP3    H143456   2.519   1.098   3.301 -1.2886  1.3991 -1.1731
 7347TIP3    H243457   2.370   1.095   3.329 -0.8213 -1.2130  1.4608
 7348TIP3   OH243458   5.842   0.998  16.836  0.3742 -0.6966  0.1327
 7348TIP3    H143459   5.752   0.999  16.867  0.5060  2.5179  0.6883
 7348TIP3    H243460   5.837   1.031  16.746  1.1735  2.1472  1.0529
 7349TIP3   OH243461   1.602   0.569  16.185  0.0888 -0.0468 -0.0153
 7349TIP3    H143462   1.549   0.489  16.183  0.7178 -0.4640 -0.4330
 7349TIP3    H243463   1.541   0.639  16.163 -0.5932 -0.3332  0.9056
 7350TIP3   OH243464   2.194   5.477  13.161  0.4396  0.1639  0.5641
 7350TIP3    H143465   2.121   5.460  13.221  0.2057 -1.2344 -0.0792
 7350TIP3    H243466   2.265   5.507  13.218 -0.6112  1.5668  1.2070
 7351TIP3   OH243467   6.324   5.072   3.763 -0.2707  0.2484 -0.1178
 7351TIP3    H143468   6.331   4.979   3.786  1.0715  0.1525 -0.8457
 7351TIP3    H243469   6.414   5.102   3.754 -0.6946  1.0992 -1.9597
 7352TIP3   OH243470   0.818   5.929  11.792  0.3058 -0.1272  0.1946
 7352TIP3    H143471   0.728   5.949  11.766  0.2453 -0.2639  0.2955
 7352TIP3    H243472   0.843   6.001  11.849 -0.1610 -0.6826  1.1401
 7353TIP3   OH243473   0.362   5.604   2.354  0.1020  0.4172 -0.8436
 7353TIP3    H143474   0.427   5.606   2.284  0.0067  1.3818 -0.9138
 7353TIP3    H243475   0.307   5.681   2.339  0.1979  0.7460  0.4057
 7354TIP3   OH243476   3.974   5.981  11.532 -0.0809  0.2276 -0.3619
 7354TIP3    H143477   3.905   5.962  11.596  0.6804 -0.3713  0.3144
 7354TIP3    H243478   3.936   5.959  11.447 -0.1763 -1.7872  0.1463
 7355TIP3   OH243479   3.008   4.410   2.415  0.0788  0.2075  0.4402
 7355TIP3    H143480   3.020   4.465   2.337  0.6996  0.5717  0.7840
 7355TIP3    H243481   2.923   4.368   2.402 -0.4770  1.3559  0.2307
 7356TIP3   OH243482   3.722   1.779  17.124 -0.0588 -0.1156  0.0437
 7356TIP3    H143483   3.780   1.796  17.050  0.3253 -2.1811 -0.1890
 7356TIP3    H243484   3.635   1.805  17.093 -0.0942 -2.0124 -1.5971
 7357TIP3   OH243485   1.976   5.774  14.832  0.2947 -0.6956  0.1741
 7357TIP3    H143486   1.914   5.783  14.761 -0.0282  0.6969  0.6099
 7357TIP3    H243487   2.062   5.775  14.790  0.2041  2.0307 -0.1102
 7358TIP3   OH243488   4.084   2.971  15.119 -0.6785  0.0962 -1.0923
 7358TIP3    H143489   4.007   3.022  15.094 -1.0555 -0.1052 -0.3426
 7358TIP3    H243490   4.135   2.964  15.038 -2.5661 -1.7779 -2.2110
 7359TIP3   OH243491   2.652   0.483  15.781 -0.5632  0.1170  0.0665
 7359TIP3    H143492   2.603   0.557  15.818  0.4330  1.3385 -0.9858
 7359TIP3    H243493   2.692   0.518  15.702  0.9172 -1.2327  0.1843
 7360TIP3   OH243494   2.959   6.733  14.365  0.5681  0.3468  0.2335
 7360TIP3    H143495   3.029   6.737  14.430  1.2684  2.0557 -0.5765
 7360TIP3    H243496   2.879   6.738  14.417  1.1091  1.0204  1.0345
 7361TIP3   OH243497   4.999   0.533   3.519 -0.5715  0.4769 -0.3846
 7361TIP3    H143498   4.964   0.619   3.495 -1.2232 -0.2599 -2.1918
 7361TIP3    H243499   5.069   0.517   3.456  0.8525  0.4751  1.1392
 7362TIP3   OH243500   0.177   0.246   0.211  0.4414  0.0813 -0.8518
 7362TIP3    H143501   0.219   0.185   0.150 -1.3109  1.1907 -3.2824
 7362TIP3    H243502   0.090   0.210   0.224  0.2477  0.7463 -0.2916
 7363TIP3   OH243503   2.892   4.218  17.212 -0.0473  0.5349  0.2328
 7363TIP3    H143504   2.805   4.196  17.179  0.7358 -3.0690  0.1706
 7363TIP3    H243505   2.924   4.137  17.251  3.1374  1.8513  0.6341
 7364TIP3   OH243506   3.232   1.052  12.288 -0.5832  0.2579  0.0732
 7364TIP3    H143507   3.290   0.979  12.267 -0.2931  0.4683  0.1310
 7364TIP3    H243508   3.207   1.089  12.203 -0.4137  0.3346  0.0562
 7365TIP3   OH243509   5.014   0.216   0.686  0.0500 -1.0043 -0.3088
 7365TIP3    H143510   5.089   0.271   0.661 -0.0607 -0.5385  0.3493
 7365TIP3    H243511   5.038   0.184   0.773  0.8339 -3.3050 -1.3058
 7366TIP3   OH243512   4.438   6.449   5.065 -0.2448 -0.6413 -0.0900
 7366TIP3    H143513   4.395   6.508   5.127  0.3411 -1.1353  0.8142
 7366TIP3    H243514   4.462   6.373   5.117 -1.7625 -2.1039 -1.4154
 7367TIP3   OH243515   1.760   3.407   4.800 -0.6988  0.0814  0.2781
 7367TIP3    H143516   1.696   3.355   4.849 -3.4879  1.3617 -1.7305
 7367TIP3    H243517   1.748   3.380   4.709  0.5804  1.4203 -0.3200
 7368TIP3   OH243518   3.525   0.221   4.981  0.8101 -0.7208  0.4444
 7368TIP3    H143519   3.611   0.234   4.940  0.4205 -1.1600 -0.5604
 7368TIP3    H243520   3.462   0.244   4.912  0.0837  1.0092  1.6231
 7369TIP3   OH243521   3.962   1.894  13.836  0.8466  0.2886  0.0383
 7369TIP3    H143522   3.893   1.867  13.896  0.0620 -0.0627 -1.0072
 7369TIP3    H243523   3.931   1.869  13.749  2.8132 -0.9585 -0.3601
 7370TIP3   OH243524   1.485   3.977  16.866  0.0095 -0.2548  0.0612
 7370TIP3    H143525   1.435   4.032  16.927  0.0665  0.2553 -0.3486
 7370TIP3    H243526   1.562   4.029  16.844 -0.4345 -0.0758 -1.1164
 7371TIP3   OH243527   1.251   0.210  12.991  0.0336 -0.2283  0.1245
 7371TIP3    H143528   1.183   0.145  13.004  1.1376 -1.4930 -0.1734
 7371TIP3    H243529   1.333   0.164  13.009  0.7564  1.8141  2.6804
 7372TIP3   OH243530   3.795   5.472  11.610 -0.1932 -0.6329 -0.1494
 7372TIP3    H143531   3.741   5.476  11.531 -0.9227 -1.2108  0.3160
 7372TIP3    H243532   3.868   5.415  11.586  0.8266  0.9727 -1.1188
 7373TIP3   OH243533   6.489   1.706  15.910  0.2287  0.0598  0.2041
 7373TIP3    H143534   6.536   1.675  15.987  0.1452  2.5546  1.3477
 7373TIP3    H243535   6.400   1.675  15.921  0.3262  0.0227  0.8939
 7374TIP3   OH243536   2.225   3.623   1.435  0.1038  0.0788 -0.1848
 7374TIP3    H143537   2.151   3.579   1.476 -0.1512 -0.1229 -0.8502
 7374TIP3    H243538   2.291   3.555   1.423 -0.4635 -0.2549 -1.6306
 7375TIP3   OH243539   5.662   6.345  13.401  0.0561  0.2165  0.0569
 7375TIP3    H143540   5.742   6.291  13.400 -0.4770 -0.5871 -0.1638
 7375TIP3    H243541   5.670   6.400  13.323 -0.0340 -0.5195 -0.4857
 7376TIP3   OH243542   4.410   2.045   0.597 -0.2544  0.1693 -0.3463
 7376TIP3    H143543   4.334   2.102   0.607  0.9634  2.0110 -1.0707
 7376TIP3    H243544   4.397   2.002   0.513 -0.5776  0.3333 -0.3820
 7377TIP3   OH243545   1.708   0.643   5.732 -0.0860  0.4094  0.0713
 7377TIP3    H143546   1.713   0.651   5.827  0.3204 -0.2931  0.1196
 7377TIP3    H243547   1.727   0.730   5.699 -1.3174  0.9142  0.6565
 7378TIP3   OH243548   1.347   4.822   1.185  0.3152  0.0245  0.4439
 7378TIP3    H143549   1.268   4.858   1.145  0.9667  0.8535 -0.1298
 7378TIP3    H243550   1.329   4.821   1.279 -0.0205  1.0966  0.3934
 7379TIP3   OH243551   5.240   4.276  16.173  0.0125 -0.0668 -0.6117
 7379TIP3    H143552   5.218   4.339  16.242  2.2114 -0.2341  0.3215
 7379TIP3    H243553   5.306   4.321  16.120  0.5564 -1.0420 -0.7862
 7380TIP3   OH243554   2.457   1.989  14.648 -0.4686 -0.3904  0.2669
 7380TIP3    H143555   2.496   2.066  14.606  0.4979 -1.4344 -0.8376
 7380TIP3    H243556   2.364   1.996  14.630 -0.3083  0.1989 -0.3738
 7381TIP3   OH243557   2.622   0.534   3.859 -0.4437  0.4033 -0.2015
 7381TIP3    H143558   2.678   0.581   3.920 -0.5346  1.6826 -1.0672
 7381TIP3    H243559   2.545   0.511   3.910 -1.3061  2.9699 -0.2109
 7382TIP3   OH243560   5.601   1.457  12.205 -0.5245  0.2482 -0.1886
 7382TIP3    H143561   5.517   1.476  12.164  0.0612  1.6919 -0.7735
 7382TIP3    H243562   5.578   1.420  12.291 -1.7501 -1.6415 -1.2637
 7383TIP3   OH243563   5.852   2.910  16.632 -0.0723 -0.0563  0.1064
 7383TIP3    H143564   5.802   2.863  16.698  1.0155 -1.3402  0.0498
 7383TIP3    H243565   5.929   2.943  16.678  0.3670 -0.3948 -0.3848
 7384TIP3   OH243566   6.102   1.268   4.178 -0.1976 -0.3766 -0.1595
 7384TIP3    H143567   6.069   1.218   4.103 -0.6428 -2.3403  1.2513
 7384TIP3    H243568   6.196   1.276   4.162  0.3638 -3.8224  0.6008
 7385TIP3   OH243569   6.608   4.333  12.206 -0.3423 -0.3217  0.5865
 7385TIP3    H143570   6.550   4.392  12.158  0.6279 -0.5719 -0.9775
 7385TIP3    H243571   6.549   4.270  12.247 -1.2157 -0.5652 -0.9467
 7386TIP3   OH243572   2.461   0.855  14.490  0.4067 -0.1427  0.4557
 7386TIP3    H143573   2.543   0.895  14.462  0.7729 -1.9200 -1.2192
 7386TIP3    H243574   2.448   0.886  14.580  1.8862  1.6919  0.0952
 7387TIP3   OH243575   3.202   2.076  14.195 -0.1326 -0.6779 -0.1961
 7387TIP3    H143576   3.155   2.116  14.122 -0.2173  0.5798  0.5177
 7387TIP3    H243577   3.291   2.066  14.163 -0.1559 -0.0891 -0.4665
 7388TIP3   OH243578   1.290   1.066  14.144  0.3983  0.3005  0.6309
 7388TIP3    H143579   1.243   1.034  14.221 -0.6333  0.8197  0.2360
 7388TIP3    H243580   1.259   1.011  14.072  0.3361  0.6909  0.3526
 7389TIP3   OH243581   0.220   1.452  16.918 -0.2343  0.1578  0.1532
 7389TIP3    H143582   0.309   1.428  16.892 -0.2638 -1.1423  1.1544
 7389TIP3    H243583   0.182   1.492  16.839  0.7241 -0.6818 -0.7653
 7390TIP3   OH243584   1.996   6.449  15.327  0.4039  0.6412 -0.0331
 7390TIP3    H143585   1.938   6.502  15.272  0.6758  1.1787  0.1965
 7390TIP3    H243586   2.083   6.486  15.313  0.4865  0.7487  0.7110
 7391TIP3   OH243587   4.183   4.437  10.930 -0.0524 -0.0076  0.0305
 7391TIP3    H143588   4.114   4.371  10.918 -0.2550  0.2962 -0.5408
 7391TIP3    H243589   4.195   4.474  10.842 -1.0594  1.8112  0.6162
 7392TIP3   OH243590   6.418   1.763   3.058  0.9055  0.0578 -0.3693
 7392TIP3    H143591   6.350   1.826   3.084  0.3114 -0.5280 -0.4710
 7392TIP3    H243592   6.423   1.771   2.962  1.4621  0.5824 -0.2970
 7393TIP3   OH243593   1.575   0.429  11.601 -0.1536 -0.6610  0.0070
 7393TIP3    H143594   1.515   0.459  11.533 -2.8017 -0.0178  2.4298
 7393TIP3    H243595   1.547   0.340  11.621 -0.4121 -0.3239  1.2404
 7394TIP3   OH243596   4.610   2.297   2.129 -0.6628  0.4047 -0.0475
 7394TIP3    H143597   4.516   2.316   2.127 -0.3797  2.0998  0.5154
 7394TIP3    H243598   4.624   2.252   2.212 -1.0515 -0.3396 -0.3827
 7395TIP3   OH243599   0.314   1.755   3.243 -0.4575 -0.2449 -0.1779
 7395TIP3    H143600   0.274   1.689   3.299 -0.6002 -0.4081 -0.4701
 7395TIP3    H243601   0.367   1.705   3.181  0.5264 -0.0122  0.4475
 7396TIP3   OH243602   0.861   5.621  12.134  0.4751 -0.0186  0.0026
 7396TIP3    H143603   0.920   5.693  12.156 -0.2111  0.8928 -1.0863
 7396TIP3    H243604   0.870   5.560  12.207  2.6775  0.1435 -0.0664
 7397TIP3   OH243605   0.125   4.837   1.513 -0.0308  0.0763  0.1972
 7397TIP3    H143606   0.216   4.818   1.488 -0.5071 -2.4942  0.1100
 7397TIP3    H243607   0.109   4.781   1.589 -1.6817  0.1142 -0.0990
 7398TIP3   OH243608   2.607   2.334   4.028 -0.3763  0.0964 -0.1454
 7398TIP3    H143609   2.675   2.338   3.961  2.9118 -0.7262  2.8192
 7398TIP3    H243610   2.554   2.412   4.014  1.2412  0.8701 -2.5525
 7399TIP3   OH243611   2.217   4.561   2.253  0.8564  0.5649 -0.5813
 7399TIP3    H143612   2.266   4.568   2.336 -0.7231  0.7748  0.3669
 7399TIP3    H243613   2.199   4.467   2.244 -0.9502  0.7549  0.5520
 7400TIP3   OH243614   5.215   0.724   3.588 -0.2614 -0.2402  0.1552
 7400TIP3    H143615   5.261   0.790   3.639 -1.3265  0.0518  0.7701
 7400TIP3    H243616   5.255   0.728   3.501  1.3162 -0.4792  0.8525
 7401TIP3   OH243617   5.763   6.258   5.695 -0.7198 -0.2745 -0.2010
 7401TIP3    H143618   5.720   6.217   5.769  0.6978 -3.2711 -0.8596
 7401TIP3    H243619   5.797   6.185   5.643  2.5632  1.7232 -1.2337
 7402TIP3   OH243620   6.384   4.466  14.443 -0.0815  0.5204  0.3800
 7402TIP3    H143621   6.330   4.391  14.420 -0.5926  0.6893  1.0087
 7402TIP3    H243622   6.361   4.533  14.379  0.2150  0.2212 -0.0458
 7403TIP3   OH243623   5.957   3.761  12.957  0.3595  0.0498  0.4775
 7403TIP3    H143624   5.961   3.700  13.031 -1.0732 -0.0133  0.5198
 7403TIP3    H243625   5.891   3.825  12.982  0.4664  0.5143 -0.3952
 7404TIP3   OH243626   6.544   3.313  16.647 -0.1782 -0.4459  0.0091
 7404TIP3    H143627   6.586   3.239  16.602 -0.6395  1.4286 -3.9910
 7404TIP3    H243628   6.465   3.330  16.595 -1.1564  1.6245  2.0086
 7405TIP3   OH243629   3.543   0.447  13.519 -0.7892 -0.8489 -0.6210
 7405TIP3    H143630   3.473   0.473  13.459 -1.1523  0.5604  0.3607
 7405TIP3    H243631   3.498   0.393  13.585 -1.0077  0.1554  0.0769
 7406TIP3   OH243632   3.856   1.812  16.890  0.0948  0.1833  0.3015
 7406TIP3    H143633   3.907   1.749  16.839 -1.3505 -1.7593  1.1694
 7406TIP3    H243634   3.905   1.894  16.881  2.8742 -1.3402  0.3545
 7407TIP3   OH243635   1.734   4.529   1.669  0.1691 -0.1689 -0.7323
 7407TIP3    H143636   1.751   4.584   1.592 -0.5500 -0.3483 -1.0270
 7407TIP3    H243637   1.657   4.568   1.710  0.0685 -0.5521 -0.5513
 7408TIP3   OH243638   2.370   5.552  16.836  0.2739  0.3171  0.2020
 7408TIP3    H143639   2.412   5.631  16.801  1.9299 -0.3188  0.6334
 7408TIP3    H243640   2.354   5.497  16.759  1.5787 -0.0184  0.1476
 7409TIP3   OH243641   3.185   1.658  11.042  0.4256 -0.8234  0.1887
 7409TIP3    H143642   3.251   1.726  11.057  0.8753 -1.4356  1.0610
 7409TIP3    H243643   3.115   1.676  11.104 -0.3182 -0.0927 -0.8316
 7410TIP3   OH243644   2.891   0.653  14.408 -0.1125 -0.2655 -0.1820
 7410TIP3    H143645   2.958   0.673  14.474  1.3698  1.7585 -2.1414
 7410TIP3    H243646   2.929   0.583  14.355 -1.2571 -1.8188  0.9703
 7411TIP3   OH243647   1.131   3.833  12.633 -0.4262 -0.0319 -0.8246
 7411TIP3    H143648   1.075   3.766  12.593 -0.9601  0.6699 -1.2573
 7411TIP3    H243649   1.166   3.883  12.559 -1.1241  1.0374 -0.4508
 7412TIP3   OH243650   2.526   0.717  14.950 -0.2196 -0.1595 -0.3462
 7412TIP3    H143651   2.574   0.797  14.928 -0.0611 -0.0215  0.4621
 7412TIP3    H243652   2.565   0.687  15.032 -1.0330 -0.4341 -0.0446
 7413TIP3   OH243653   2.720   6.379   3.969 -0.0824 -0.1370 -0.0896
 7413TIP3    H143654   2.687   6.464   3.997  0.4138  0.5233 -1.3982
 7413TIP3    H243655   2.643   6.322   3.968 -0.4060  0.2699  0.8637
 7414TIP3   OH243656   4.334   0.836  14.620  0.4667 -0.3649  0.0319
 7414TIP3    H143657   4.384   0.782  14.559 -0.6305 -0.9685 -0.3596
 7414TIP3    H243658   4.243   0.825  14.593 -0.0142 -0.3386  1.5377
 7415TIP3   OH243659   0.031   1.807   2.345 -0.4281  0.2041 -0.0182
 7415TIP3    H143660   0.112   1.831   2.392  0.3637 -1.7247 -0.3164
 7415TIP3    H243661   0.058   1.739   2.284 -2.3754 -0.8474  0.2078
 7416TIP3   OH243662   2.210   0.606   1.914 -0.0271 -0.5892 -0.3540
 7416TIP3    H143663   2.172   0.633   1.998 -0.2086  0.0362 -0.6304
 7416TIP3    H243664   2.136   0.608   1.853 -0.1112 -2.0311 -0.3233
 7417TIP3   OH243665   6.400   4.074  12.087 -0.1277 -0.4559  0.6127
 7417TIP3    H143666   6.388   4.142  12.021  0.7374  0.0870  1.0011
 7417TIP3    H243667   6.311   4.052  12.116 -0.5565 -1.0070 -1.0234
 7418TIP3   OH243668   4.093   3.405  14.693  0.4031  0.5695  0.1685
 7418TIP3    H143669   4.070   3.432  14.604  0.1804  0.1215  0.0869
 7418TIP3    H243670   4.141   3.324  14.682 -1.9687 -0.9939  0.5726
 7419TIP3   OH243671   0.829   6.305  10.798 -0.0798 -0.0153 -0.6615
 7419TIP3    H143672   0.830   6.210  10.802 -1.3444  0.0045  1.1719
 7419TIP3    H243673   0.754   6.325  10.741 -0.2853 -0.1182 -0.4297
 7420TIP3   OH243674   0.322   5.114  16.888  0.4754 -0.3653  0.9448
 7420TIP3    H143675   0.253   5.180  16.896  0.4397 -0.4680  1.4920
 7420TIP3    H243676   0.385   5.136  16.957  1.1175 -0.1300  0.3029
 7421TIP3   OH243677   5.676   3.054   5.556 -0.5847  0.8404  0.0056
 7421TIP3    H143678   5.660   3.087   5.644 -0.7544  1.3460 -0.2078
 7421TIP3    H243679   5.655   2.961   5.560 -0.6664  0.8777  0.4776
 7422TIP3   OH243680   4.132   5.639  17.279 -0.1677 -0.2289  0.3574
 7422TIP3    H143681   4.137   5.671  17.369  1.0094  2.1826 -0.4534
 7422TIP3    H243682   4.102   5.715  17.229 -0.0492 -1.2793 -1.3759
 7423TIP3   OH243683   2.334   5.096   2.718  0.9251 -0.2035 -0.1718
 7423TIP3    H143684   2.304   5.007   2.738 -0.2217 -0.0751 -1.2312
 7423TIP3    H243685   2.427   5.085   2.697  0.3028 -1.5640 -2.5587
 7424TIP3   OH243686   2.008   4.185   3.429  0.2713  0.4593 -0.3355
 7424TIP3    H143687   2.073   4.241   3.471  0.1077  3.1690 -3.2778
 7424TIP3    H243688   1.924   4.221   3.456  0.0657 -0.3584  0.1467
 7425TIP3   OH243689   2.950   0.501   1.956  0.6895  1.0589 -0.3145
 7425TIP3    H143690   2.963   0.491   1.862 -1.4522 -1.0343 -0.4850
 7425TIP3    H243691   3.017   0.445   1.995  1.5483  1.8896 -0.5578
 7426TIP3   OH243692   4.740   5.607  17.086  0.4449  0.6240 -0.3303
 7426TIP3    H143693   4.749   5.512  17.090 -0.3065  0.4048 -2.4013
 7426TIP3    H243694   4.669   5.628  17.146  2.0430  0.1936  1.8339
 7427TIP3   OH243695   2.809   0.413  16.106 -0.0886 -0.1604 -0.2494
 7427TIP3    H143696   2.886   0.420  16.049  0.9142  2.2125  1.2534
 7427TIP3    H243697   2.832   0.343  16.168  0.6237  0.1495 -0.1568
 7428TIP3   OH243698   3.295   4.575   5.479 -1.0816 -0.5724 -0.4998
 7428TIP3    H143699   3.241   4.506   5.517 -0.1381 -1.1513 -0.1854
 7428TIP3    H243700   3.373   4.530   5.446 -0.9408  0.1975 -1.2671
 7429TIP3   OH243701   1.863   3.056   4.766 -0.4144  0.1782 -0.1803
 7429TIP3    H143702   1.864   3.072   4.860 -3.6800  0.3847 -0.0863
 7429TIP3    H243703   1.877   3.142   4.727 -0.6550  0.3609  0.1351
 7430TIP3   OH243704   3.907   5.236   1.987  0.4019  0.1111  0.4877
 7430TIP3    H143705   3.969   5.281   2.043  2.0146 -0.6221 -0.6208
 7430TIP3    H243706   3.962   5.186   1.926 -1.2840 -0.7843 -0.3692
 7431TIP3   OH243707   4.198   3.725  12.301 -0.3973  0.2491 -0.2255
 7431TIP3    H143708   4.113   3.694  12.268  0.0271  1.5467 -2.8004
 7431TIP3    H243709   4.252   3.734  12.223  1.1296  2.3887  0.9762
 7432TIP3   OH243710   5.609   5.488  14.235  0.0067  0.1726 -0.6751
 7432TIP3    H143711   5.567   5.573  14.252 -2.2907 -1.2230  1.4070
 7432TIP3    H243712   5.589   5.469  14.144 -3.3061  0.0317 -0.0438
 7433TIP3   OH243713   1.171   4.775  13.357  0.9149  0.4052 -0.0080
 7433TIP3    H143714   1.119   4.838  13.308 -0.1616 -0.6583 -0.2987
 7433TIP3    H243715   1.209   4.718  13.290 -1.0254 -1.4065  0.3202
 7434TIP3   OH243716   6.575   1.596  12.409  0.0018  0.7664  0.0582
 7434TIP3    H143717   6.486   1.560  12.399  0.1645  0.2901  0.2662
 7434TIP3    H243718   6.610   1.598  12.320  0.2653 -0.3433  0.1139
 7435TIP3   OH243719   4.993   4.045  16.296 -0.0602 -0.1615  0.3365
 7435TIP3    H143720   5.014   4.112  16.361 -2.5659  0.9307  0.1219
 7435TIP3    H243721   4.976   4.094  16.215 -0.6360 -1.1595 -0.1735
 7436TIP3   OH243722   4.131   5.733   1.481 -0.2916  0.0136  0.4294
 7436TIP3    H143723   4.214   5.779   1.493 -0.7613  0.7589  0.9413
 7436TIP3    H243724   4.096   5.724   1.570 -1.2672  0.6954  0.1331
 7437TIP3   OH243725   6.652   4.662   2.291 -0.2587 -0.6437  0.1602
 7437TIP3    H143726   6.605   4.579   2.298 -0.8267 -0.4050 -0.5543
 7437TIP3    H243727   6.744   4.639   2.294 -0.3878 -1.0803  2.1664
 7438TIP3   OH243728   3.963   4.064   3.055  0.2396 -0.2093  0.0460
 7438TIP3    H143729   4.001   4.151   3.056 -0.3911  0.0798  1.2476
 7438TIP3    H243730   4.023   4.011   3.002  1.8571  0.4175  1.1699
 7439TIP3   OH243731   0.256   0.400   3.666 -0.6823 -0.0743 -0.2394
 7439TIP3    H143732   0.304   0.356   3.597  0.0167 -1.8634  1.3084
 7439TIP3    H243733   0.189   0.337   3.693  0.5233 -0.4147  2.2287
 7440TIP3   OH243734   0.430   0.690  14.434  0.6889 -0.0948 -0.1436
 7440TIP3    H143735   0.467   0.746  14.502 -0.5434  2.0275 -1.1040
 7440TIP3    H243736   0.473   0.718  14.354  2.3795 -2.8000 -0.3082
 7441TIP3   OH243737   6.713   2.122  13.304  0.2136 -1.0498 -0.1570
 7441TIP3    H143738   6.740   2.060  13.371  0.6238 -0.4711  0.2174
 7441TIP3    H243739   6.783   2.187  13.301 -0.5280 -0.2281 -0.0610
 7442TIP3   OH243740   3.395   2.992   2.002  0.0961  0.3736 -0.0496
 7442TIP3    H143741   3.467   2.992   2.066 -0.3640 -0.1741  0.4837
 7442TIP3    H243742   3.439   2.997   1.917  0.7062  1.3946  0.3148
 7443TIP3   OH243743   3.675   6.050   5.027 -0.1239  0.2032  0.5014
 7443TIP3    H143744   3.660   6.020   4.937  0.6856 -1.5941  0.9232
 7443TIP3    H243745   3.755   6.103   5.021 -1.7470  2.7823 -0.3044
 7444TIP3   OH243746   0.013   0.878  13.241  0.1668 -0.0019 -0.3478
 7444TIP3    H143747  -0.027   0.827  13.311  1.1283 -1.5644 -0.8824
 7444TIP3    H243748  -0.060   0.903  13.184 -0.4746  0.3092  0.5896
 7445TIP3   OH243749   0.985   6.399   6.506  0.2329  0.0945  0.2050
 7445TIP3    H143750   0.960   6.445   6.586 -0.1976 -0.5852  0.4657
 7445TIP3    H243751   1.014   6.313   6.536 -1.3098 -0.7002 -0.4736
 7446TIP3   OH243752   2.252   2.213  14.221 -0.1976 -0.7701  0.0773
 7446TIP3    H143753   2.292   2.197  14.135  1.1203 -0.2940  0.5710
 7446TIP3    H243754   2.161   2.185  14.211  0.1121 -1.3754 -1.2670
 7447TIP3   OH243755   3.877   2.700  15.974 -0.0489  0.2743 -0.3674
 7447TIP3    H143756   3.936   2.669  15.906 -0.3087 -1.1803  0.0404
 7447TIP3    H243757   3.792   2.663  15.951 -0.0303 -0.7037  0.9953
 7448TIP3   OH243758   1.496   3.256  12.852  0.4128  0.1281  0.4749
 7448TIP3    H143759   1.564   3.190  12.864  0.8295  0.3587 -0.5933
 7448TIP3    H243760   1.437   3.218  12.787 -0.8904 -0.3701  1.8745
 7449TIP3   OH243761   1.358   6.478  14.032  0.0235  0.5150 -0.2758
 7449TIP3    H143762   1.303   6.452  14.105 -0.5419 -1.1757 -1.2473
 7449TIP3    H243763   1.297   6.490  13.959  0.7003  0.8960 -0.7903
 7450TIP3   OH243764   5.177   0.135   0.369  0.5391 -0.2887  0.1607
 7450TIP3    H143765   5.182   0.224   0.336 -0.0034  0.7101  2.6051
 7450TIP3    H243766   5.094   0.101   0.334  1.2419 -0.2819 -1.6490
 7451TIP3   OH243767   1.816   2.872  13.348  0.0076  0.0533 -0.3652
 7451TIP3    H143768   1.789   2.781  13.331  0.9129 -0.0330 -1.4115
 7451TIP3    H243769   1.883   2.865  13.416 -0.2755 -0.0044 -0.0856
 7452TIP3   OH243770   3.623   2.385  13.661  1.1790 -0.1853 -0.2171
 7452TIP3    H143771   3.583   2.301  13.685  1.2850 -0.3382 -0.5653
 7452TIP3    H243772   3.572   2.416  13.587  2.0725 -0.6865 -1.0733
 7453TIP3   OH243773   1.233   4.484  11.594  0.1378  0.4288  0.0139
 7453TIP3    H143774   1.234   4.443  11.507  1.4831 -0.2168  0.3073
 7453TIP3    H243775   1.150   4.532  11.597 -1.3241 -1.9473 -0.4903
 7454TIP3   OH243776   0.357   2.304   0.673 -0.3610  0.5093  0.2891
 7454TIP3    H143777   0.403   2.373   0.624  1.9539 -0.0721  1.4758
 7454TIP3    H243778   0.290   2.350   0.722  1.4999  2.0752  1.4912
 7455TIP3   OH243779   4.389   1.799  15.694  0.0027 -0.7193  0.0715
 7455TIP3    H143780   4.458   1.777  15.631 -0.3051  1.2348 -1.0431
 7455TIP3    H243781   4.315   1.828  15.640 -0.2919  0.9827  1.2970
 7456TIP3   OH243782   1.186   4.020   5.771  0.5088 -0.1815 -0.6034
 7456TIP3    H143783   1.162   4.001   5.862  3.2756  0.1203  0.2772
 7456TIP3    H243784   1.193   4.116   5.768  0.4004 -0.1890 -1.1483
 7457TIP3   OH243785   2.603   0.737   2.959  0.0637  0.0713 -0.0413
 7457TIP3    H143786   2.681   0.701   2.917  0.2616  1.5967 -1.0341
 7457TIP3    H243787   2.633   0.766   3.045  0.8553  1.6173 -0.8162
 7458TIP3   OH243788   1.401   1.168   4.273  0.2923 -0.2694 -0.0988
 7458TIP3    H143789   1.468   1.128   4.217 -0.9448 -1.0033 -1.1005
 7458TIP3    H243790   1.419   1.134   4.360  0.7757 -1.0421 -0.4925
 7459TIP3   OH243791   5.994   4.081  14.688 -0.1242  0.2237 -0.4370
 7459TIP3    H143792   6.060   4.121  14.746 -0.8566  0.2537  0.4064
 7459TIP3    H243793   6.041   4.013  14.641  0.5098  0.2329  0.1671
 7460TIP3   OH243794   5.154   1.633  15.766 -0.4517 -0.0217  0.3635
 7460TIP3    H143795   5.060   1.647  15.769 -0.4347  0.0275  2.4825
 7460TIP3    H243796   5.164   1.542  15.737 -1.1291  0.0469 -0.1087
 7461TIP3   OH243797   0.619   3.650   6.566  0.1229  0.7292 -0.0626
 7461TIP3    H143798   0.560   3.576   6.578 -1.4861  2.2436  2.3523
 7461TIP3    H243799   0.704   3.619   6.598 -0.9698  0.4001  2.8147
 7462TIP3   OH243800   4.296   0.903   1.158  0.1777 -0.3374 -0.0596
 7462TIP3    H143801   4.327   0.846   1.229  0.4655 -0.5162 -0.3301
 7462TIP3    H243802   4.370   0.910   1.098  0.5345  1.2372  0.5231
 7463TIP3   OH243803   5.538   2.424   2.264 -0.1703 -0.4759  0.2788
 7463TIP3    H143804   5.583   2.441   2.181 -1.2790 -0.6252 -0.3733
 7463TIP3    H243805   5.485   2.503   2.279  0.1394 -0.3854  0.9263
 7464TIP3   OH243806   0.198   5.296   2.777  0.1213  0.0261  0.4213
 7464TIP3    H143807   0.167   5.208   2.755 -0.3864  0.2929  0.0486
 7464TIP3    H243808   0.230   5.331   2.694  0.7725  0.0222  0.6623
 7465TIP3   OH243809   2.640   6.175  13.993 -0.1190 -0.0084 -0.0447
 7465TIP3    H143810   2.570   6.214  13.941 -1.2031  0.3131  1.5848
 7465TIP3    H243811   2.663   6.242  14.057  1.4314 -0.2579 -0.3176
 7466TIP3   OH243812   4.228   4.449   5.316  0.3539  0.6427  0.2654
 7466TIP3    H143813   4.236   4.432   5.222  0.9354  0.1446  0.4056
 7466TIP3    H243814   4.253   4.541   5.326  1.3228  0.4116  0.0640
 7467TIP3   OH243815   4.625   5.657   1.041  0.0296  0.3607 -0.2571
 7467TIP3    H143816   4.556   5.591   1.041  0.4861 -0.1355  0.6461
 7467TIP3    H243817   4.640   5.676   1.134  2.3781 -0.9195 -0.2814
 7468TIP3   OH243818   3.830   5.627   2.480  0.1052 -0.0770 -0.1602
 7468TIP3    H143819   3.878   5.678   2.414  0.4186 -1.2882 -0.9213
 7468TIP3    H243820   3.898   5.577   2.525 -0.3024 -0.8668 -0.3910
 7469TIP3   OH243821   3.794   5.840   1.177 -0.6528  0.2397  0.2583
 7469TIP3    H143822   3.752   5.759   1.205  0.3643 -0.7619 -0.9855
 7469TIP3    H243823   3.725   5.906   1.183 -1.3611 -0.5747  1.8213
 7470TIP3   OH243824   6.601   2.018   3.764 -0.4273 -0.0309 -0.1336
 7470TIP3    H143825   6.515   1.981   3.783  0.8911 -2.7762  0.9755
 7470TIP3    H243826   6.643   1.956   3.705  1.7491 -0.1920  1.4473
 7471TIP3   OH243827   0.848   5.628   2.907 -0.3378 -0.0607  0.0544
 7471TIP3    H143828   0.851   5.536   2.934 -1.6717  0.3323  1.7369
 7471TIP3    H243829   0.796   5.627   2.827  1.0652 -0.9290 -0.8872
 7472TIP3   OH243830   2.008   2.305  14.891  0.3389 -0.1357 -0.0509
 7472TIP3    H143831   2.072   2.304  14.962 -1.7560 -0.2142  1.9496
 7472TIP3    H243832   1.939   2.363  14.923 -0.4860  0.1660 -2.2504
 7473TIP3   OH243833   2.848   6.590   2.447 -0.0387  0.1220  0.2042
 7473TIP3    H143834   2.902   6.641   2.507  1.1133 -1.1868  0.3206
 7473TIP3    H243835   2.804   6.656   2.394  0.5536  1.2610  1.0729
 7474TIP3   OH243836   3.026   4.297   3.070  0.3001 -0.5694  0.2807
 7474TIP3    H143837   3.050   4.304   3.162 -0.3538  0.3594  0.3916
 7474TIP3    H243838   2.930   4.290   3.071  0.1894  0.5798 -0.3616
 7475TIP3   OH243839   1.539   0.730  15.756  0.2190 -0.1439 -0.2505
 7475TIP3    H143840   1.576   0.796  15.815 -2.9867  1.0271  0.7094
 7475TIP3    H243841   1.503   0.663  15.814 -1.4777  0.1697 -0.8508
 7476TIP3   OH243842   1.412   1.910   1.933  0.3736  0.1550  0.3518
 7476TIP3    H143843   1.446   1.867   1.855  0.4184 -0.0480  0.4816
 7476TIP3    H243844   1.319   1.887   1.935  0.1241  1.0964 -0.2582
 7477TIP3   OH243845   3.745   4.014  12.640 -0.4192 -0.4088 -0.4627
 7477TIP3    H143846   3.665   4.065  12.651 -0.1910  0.7091 -3.0795
 7477TIP3    H243847   3.730   3.963  12.561  0.3173 -2.5987  0.7393
 7478TIP3   OH243848   6.429   5.038  14.149 -0.0342  0.4465 -0.4737
 7478TIP3    H143849   6.479   4.957  14.145 -0.9843 -0.1262 -1.3353
 7478TIP3    H243850   6.436   5.066  14.240 -0.2534 -0.9655  0.0043
 7479TIP3   OH243851   0.414   4.480  12.121 -0.1616  0.3260  0.0666
 7479TIP3    H143852   0.413   4.556  12.180  3.0461  0.7112 -0.2257
 7479TIP3    H243853   0.412   4.404  12.180 -2.2820  0.5774  0.3951
 7480TIP3   OH243854   1.608   2.866   4.952 -0.9855  0.6225 -0.3076
 7480TIP3    H143855   1.683   2.925   4.952 -2.5411  2.6937 -0.9646
 7480TIP3    H243856   1.573   2.872   5.041 -0.4628 -0.2599 -0.0314
 7481TIP3   OH243857   6.570   0.695   2.155  0.0151 -0.5082  0.4107
 7481TIP3    H143858   6.491   0.642   2.147 -0.4407 -0.1343  1.9690
 7481TIP3    H243859   6.615   0.659   2.232  0.8415 -0.0638  0.1496
 7482TIP3   OH243860   2.952   0.906  17.172 -0.2941  0.5044  0.1998
 7482TIP3    H143861   3.003   0.966  17.227 -0.8519  1.1348  0.0470
 7482TIP3    H243862   2.978   0.928  17.083  0.1495 -0.0902  0.1801
 7483TIP3   OH243863   5.093   3.259  14.974  0.7774  0.1733 -0.7125
 7483TIP3    H143864   4.999   3.270  14.989  0.5700  0.6537 -2.1608
 7483TIP3    H243865   5.109   3.166  14.991  0.8242  0.7406  3.1709
 7484TIP3   OH243866   4.889   2.110  12.853 -0.0877 -0.3797  0.2497
 7484TIP3    H143867   4.939   2.162  12.916 -0.1184 -0.3604  0.2585
 7484TIP3    H243868   4.853   2.039  12.905 -0.3275 -0.2184  0.3033
 7485TIP3   OH243869   1.539   6.475   1.728 -0.2365 -0.1907 -0.1245
 7485TIP3    H143870   1.452   6.483   1.688  0.7995 -0.4009 -2.5530
 7485TIP3    H243871   1.549   6.382   1.746 -0.4298 -0.1902 -0.0072
 7486TIP3   OH243872   6.198   6.601   0.109  0.2358 -0.1902  0.0496
 7486TIP3    H143873   6.255   6.568   0.041  0.2043 -0.2675  0.0611
 7486TIP3    H243874   6.109   6.584   0.078  0.1969  0.6425 -0.3330
 7487TIP3   OH243875   4.300   4.336   1.564  0.6832 -0.0949  0.3318
 7487TIP3    H143876   4.207   4.327   1.583  1.0353 -1.5514  1.5333
 7487TIP3    H243877   4.312   4.296   1.479  0.2428 -0.0737  0.2604
 7488TIP3   OH243878   4.772   1.424   5.457  0.7343 -0.3306  0.5715
 7488TIP3    H143879   4.692   1.385   5.494  1.3796 -0.0219  2.3820
 7488TIP3    H243880   4.806   1.357   5.398 -0.8174 -0.4930 -0.1818
 7489TIP3   OH243881   0.660   6.163  16.221  0.5195  0.0050 -0.0042
 7489TIP3    H143882   0.610   6.231  16.175  0.6853 -0.2781 -0.6074
 7489TIP3    H243883   0.741   6.155  16.171 -0.4782 -2.3492 -1.4351
 7490TIP3   OH243884   5.151   0.326  17.286 -0.4876 -0.2317 -0.6025
 7490TIP3    H143885   5.119   0.399  17.233 -1.0615 -0.3236 -0.3917
 7490TIP3    H243886   5.246   0.338  17.288 -0.6962  2.0071  1.5142
 7491TIP3   OH243887   2.602   5.762   1.542  0.5985  0.2506  0.2187
 7491TIP3    H143888   2.644   5.782   1.458  1.4487 -1.5996  0.1570
 7491TIP3    H243889   2.618   5.669   1.555 -2.8828 -0.4438  0.5662
 7492TIP3   OH243890   5.323   1.885  12.452  0.6561 -0.1714 -0.5853
 7492TIP3    H143891   5.391   1.834  12.408 -1.0717 -1.9272 -1.4256
 7492TIP3    H243892   5.241   1.853  12.413 -0.6079  3.1062 -0.9425
 7493TIP3   OH243893   3.884   2.180   1.928 -0.2991  0.2055 -0.0604
 7493TIP3    H143894   3.934   2.114   1.976 -1.2027  1.0353  2.1346
 7493TIP3    H243895   3.950   2.229   1.878  0.8786  0.1814  1.4221
 7494TIP3   OH243896   2.881   2.043   5.844  0.1744  0.7154  0.5833
 7494TIP3    H143897   2.807   1.987   5.821  0.6938 -0.6894  2.1288
 7494TIP3    H243898   2.877   2.115   5.781 -1.1329 -0.5136 -0.8191
 7495TIP3   OH243899   4.130   4.312  11.641 -0.2501  0.5858  0.0119
 7495TIP3    H143900   4.192   4.241  11.655 -1.5132 -0.2587  1.7853
 7495TIP3    H243901   4.138   4.333  11.548  0.0027 -2.0758 -0.6641
 7496TIP3   OH243902   3.506   0.715   2.478  0.3472  0.2351  0.4794
 7496TIP3    H143903   3.559   0.787   2.443  1.7775  0.0672  2.1178
 7496TIP3    H243904   3.442   0.758   2.534  0.1229  0.3203  0.1598
 7497TIP3   OH243905   3.132   3.511   4.368 -0.0778  0.3220 -0.3120
 7497TIP3    H143906   3.075   3.496   4.444  0.7504 -0.7561  0.1318
 7497TIP3    H243907   3.072   3.539   4.298 -0.9623  0.5368  0.5144
 7498TIP3   OH243908   6.754   3.295  12.342 -0.5038  0.1465  0.5534
 7498TIP3    H143909   6.699   3.265  12.269 -0.6132  0.5040  0.4839
 7498TIP3    H243910   6.823   3.230  12.349  0.9442  1.3295 -1.4621
 7499TIP3   OH243911   4.980   3.421   4.004  0.1940  0.2906  0.1712
 7499TIP3    H143912   5.055   3.432   3.945  1.1277 -2.3035  0.7320
 7499TIP3    H243913   4.906   3.408   3.946  1.0307 -1.8193 -0.5289
 7500TIP3   OH243914   4.248   3.496  13.946 -0.3777  0.5830  0.0838
 7500TIP3    H143915   4.223   3.405  13.928  0.5904  0.2966  0.1592
 7500TIP3    H243916   4.205   3.546  13.876  0.9057 -0.1904 -1.3178
 7501TIP3   OH243917   2.984   4.013  17.363  0.2093 -0.0952 -0.5698
 7501TIP3    H143918   3.076   4.035  17.378  0.6287 -1.5488 -0.8624
 7501TIP3    H243919   2.946   4.007  17.451  0.5235  0.0083 -0.4248
 7502TIP3   OH243920   2.836   3.711   5.648 -0.0535  0.2365  0.0487
 7502TIP3    H143921   2.800   3.734   5.562  1.1626 -0.6625 -0.7557
 7502TIP3    H243922   2.827   3.790   5.700 -0.2546  1.0135 -1.1191
 7503TIP3   OH243923   6.222   4.614   3.963 -0.1276  0.5461 -0.3058
 7503TIP3    H143924   6.272   4.532   3.958  1.0315  1.2931 -1.7055
 7503TIP3    H243925   6.142   4.590   4.010 -0.9743 -2.0189 -2.7461
 7504TIP3   OH243926   3.261   3.792   4.074  0.0926  0.5618 -0.2595
 7504TIP3    H143927   3.255   3.854   4.001 -0.6075 -0.6525 -1.2897
 7504TIP3    H243928   3.345   3.748   4.060  1.6236  2.6341  1.6759
 7505TIP3   OH243929   1.843   6.629  11.262  0.1001  0.0744 -0.3150
 7505TIP3    H143930   1.876   6.596  11.179 -0.3595  0.8600 -0.8235
 7505TIP3    H243931   1.751   6.651  11.244  0.2407  1.0748  0.1598
 7506TIP3   OH243932   1.150   4.468  13.534  0.1541 -0.0218  0.1216
 7506TIP3    H143933   1.091   4.540  13.556 -1.1450 -1.4942  1.7528
 7506TIP3    H243934   1.110   4.426  13.457 -1.0536 -1.0766  1.2832
 7507TIP3   OH243935   2.307   1.636  15.601  0.3106  0.3687  0.1610
 7507TIP3    H143936   2.368   1.583  15.550 -0.5885 -1.2700  0.7253
 7507TIP3    H243937   2.224   1.628  15.554  0.0139  0.7471  0.6151
 7508TIP3   OH243938   1.758   4.697  16.268 -0.1000 -0.2598  0.1546
 7508TIP3    H143939   1.761   4.604  16.249  1.4911 -0.0389 -0.8781
 7508TIP3    H243940   1.664   4.717  16.274 -0.4687 -1.8666  0.2330
 7509TIP3   OH243941   1.798   0.894   4.444  0.4298 -0.1541  0.1622
 7509TIP3    H143942   1.706   0.905   4.420  0.0939 -2.0656  0.3568
 7509TIP3    H243943   1.845   0.958   4.390 -1.0161  1.0319  0.2434
 7510TIP3   OH243944   3.735   5.212  12.654  0.8637  0.4258 -0.0560
 7510TIP3    H143945   3.783   5.267  12.592 -0.3509  0.6771 -0.8081
 7510TIP3    H243946   3.647   5.251  12.657  0.0803 -1.2574 -0.3306
 7511TIP3   OH243947   1.571   5.011   5.764 -0.0936  0.3048  0.7051
 7511TIP3    H143948   1.476   5.017   5.774 -0.1540  1.9176 -0.4255
 7511TIP3    H243949   1.605   5.037   5.849 -0.6332 -1.5891  1.5534
 7512TIP3   OH243950   0.002   3.120   3.520  0.1823 -0.1910  0.0717
 7512TIP3    H143951   0.093   3.101   3.494 -0.3864  0.1963 -2.4936
 7512TIP3    H243952  -0.023   3.045   3.575  2.3277  0.1931  1.7062
 7513TIP3   OH243953   5.337   2.207  15.881  0.2956 -0.5807  0.1697
 7513TIP3    H143954   5.392   2.218  15.804  0.5261 -2.8797 -0.0653
 7513TIP3    H243955   5.247   2.210  15.847  0.3646 -0.4052  0.0019
 7514TIP3   OH243956   5.384   6.193  13.648 -0.0366  0.1206 -0.1459
 7514TIP3    H143957   5.469   6.158  13.676 -0.3899 -1.8152 -1.3301
 7514TIP3    H243958   5.326   6.177  13.723  0.2133 -0.2559 -0.0303
 7515TIP3   OH243959   4.187   3.893   3.934  0.2255 -0.0283  0.2643
 7515TIP3    H143960   4.167   3.941   4.014 -1.5545 -2.0165  1.1208
 7515TIP3    H243961   4.228   3.812   3.964  0.5321 -0.3283 -0.9098
 7516TIP3   OH243962   5.475   0.558   4.263 -0.0968 -0.1352  0.5214
 7516TIP3    H143963   5.456   0.500   4.336 -2.5245 -1.4698 -1.0303
 7516TIP3    H243964   5.536   0.508   4.208 -1.1445 -0.7349 -0.1416
 7517TIP3   OH243965   0.920   0.388   1.910  0.2964  0.4841 -0.4525
 7517TIP3    H143966   0.910   0.296   1.936 -1.8139  0.4554 -1.1568
 7517TIP3    H243967   0.925   0.385   1.814  1.4819  1.0298 -0.4166
 7518TIP3   OH243968   1.203   6.406  14.247  0.0434  0.0905  0.4033
 7518TIP3    H143969   1.150   6.486  14.251  0.6969  0.4895  1.3148
 7518TIP3    H243970   1.149   6.339  14.288 -0.7511 -0.0993 -0.8866
 7519TIP3   OH243971   4.789   6.407  15.715 -0.5906 -0.0874  0.0546
 7519TIP3    H143972   4.883   6.392  15.719 -0.5506 -0.5041 -1.7125
 7519TIP3    H243973   4.754   6.329  15.674 -1.6051  0.4608 -0.1624
 7520TIP3   OH243974   1.099   3.602  16.103  0.1955 -0.0926  0.0404
 7520TIP3    H143975   1.160   3.667  16.139  0.3051 -0.8875  1.3275
 7520TIP3    H243976   1.019   3.652  16.086  0.7286  0.6615 -0.2931
 7521TIP3   OH243977   4.162   6.188  11.556  0.3050  0.0998 -0.3693
 7521TIP3    H143978   4.108   6.210  11.632  0.8358  2.8160 -0.6874
 7521TIP3    H243979   4.135   6.100  11.532 -2.1489  0.4027  1.0079
 7522TIP3   OH243980   3.528   6.323  16.472  0.2620 -0.6391 -0.4021
 7522TIP3    H143981   3.433   6.326  16.484  0.3595  4.6606  2.2988
 7522TIP3    H243982   3.541   6.352  16.382 -0.8124  1.3130  0.0062
 7523TIP3   OH243983   0.163   5.168   4.144  0.4071  0.2657  0.1622
 7523TIP3    H143984   0.073   5.182   4.115 -0.6018 -0.1424  2.8688
 7523TIP3    H243985   0.174   5.073   4.145  0.0886  0.2154  1.8806
 7524TIP3   OH243986   4.205   6.253  13.415  0.4092  0.4834 -0.6645
 7524TIP3    H143987   4.259   6.174  13.417 -0.6156 -0.2554 -1.0586
 7524TIP3    H243988   4.180   6.268  13.506 -0.1990 -0.2376 -0.7049
 7525TIP3   OH243989   1.404   1.122  15.611  0.0862  0.4397  0.1712
 7525TIP3    H143990   1.335   1.169  15.657 -1.9023 -0.6956 -1.4894
 7525TIP3    H243991   1.415   1.168  15.529  1.4556  0.6855  0.4672
 7526TIP3   OH243992   6.551   3.357  13.968  0.1830 -0.1377 -0.2546
 7526TIP3    H143993   6.537   3.440  13.923 -1.4188 -1.8147 -3.1971
 7526TIP3    H243994   6.462   3.325  13.986  0.7414 -1.4937  0.2263
 7527TIP3   OH243995   5.480   5.352   6.133  0.2863  0.3362 -0.5007
 7527TIP3    H143996   5.425   5.400   6.071 -0.1441  0.2278 -0.2070
 7527TIP3    H243997   5.425   5.339   6.209  0.7428  0.2780 -0.1738
 7528TIP3   OH243998   2.003   0.599   1.711  0.1978  0.6121  0.4070
 7528TIP3    H143999   1.924   0.636   1.673 -1.3234 -0.2133  2.6041
 7528TIP3    H244000   2.016   0.517   1.663 -0.4007  0.6383  0.1872
 7529TIP3   OH244001   1.521   0.380   3.671 -0.1472  0.1251 -0.3805
 7529TIP3    H144002   1.489   0.356   3.584 -0.4094 -0.0327 -0.2430
 7529TIP3    H244003   1.606   0.336   3.679 -0.0581  0.2521 -0.6072
 7530TIP3   OH244004   1.149   6.329  12.028 -0.4311  0.3154 -0.0638
 7530TIP3    H144005   1.139   6.286  12.113  0.3898 -2.0054 -1.0629
 7530TIP3    H244006   1.113   6.267  11.965  1.8768  0.4972 -1.7049
 7531TIP3   OH244007   5.148   2.125   0.638 -0.0807 -0.1103  0.4090
 7531TIP3    H144008   5.207   2.062   0.679  1.3285 -0.2663 -1.6830
 7531TIP3    H244009   5.061   2.089   0.652  0.5122 -1.1934  1.4545
 7532TIP3   OH244010   5.901   5.337   2.109  0.2987  0.0146 -0.1960
 7532TIP3    H144011   5.992   5.352   2.083  0.2601 -1.7276 -1.5448
 7532TIP3    H244012   5.887   5.397   2.182  2.5681  0.2292  0.1475
 7533TIP3   OH244013   1.359   0.928  12.847 -0.3841 -0.0350 -0.6997
 7533TIP3    H144014   1.313   0.857  12.802 -1.2948  0.5232 -0.6738
 7533TIP3    H244015   1.300   1.003  12.839  1.4737  1.3375 -2.5841
 7534TIP3   OH244016   6.587   3.360   3.219 -0.1365  0.1834 -0.0485
 7534TIP3    H144017   6.644   3.295   3.179 -0.4806  0.4248 -0.9852
 7534TIP3    H244018   6.561   3.323   3.303  1.0598 -0.1045  0.2043
 7535TIP3   OH244019   6.463   0.847   3.096  0.0735  0.0615 -0.2538
 7535TIP3    H144020   6.540   0.855   3.040  0.2879  1.7450  0.2312
 7535TIP3    H244021   6.400   0.798   3.042  0.9137  0.0285 -1.2453
 7536TIP3   OH244022   2.233   1.555   4.730 -0.3565  0.2216 -0.2158
 7536TIP3    H144023   2.209   1.647   4.721 -1.2033  0.0163 -0.2006
 7536TIP3    H244024   2.228   1.520   4.641 -0.5675  0.0757 -0.1489
 7537TIP3   OH244025   3.280   5.190   5.679 -0.6200  0.4074 -0.5011
 7537TIP3    H144026   3.188   5.209   5.666 -0.8310 -0.7466 -0.8710
 7537TIP3    H244027   3.307   5.147   5.597 -0.2186 -0.8413  0.2486
 7538TIP3   OH244028   4.343   4.850  15.232 -0.0663 -0.0351  0.2582
 7538TIP3    H144029   4.437   4.861  15.243 -0.1761  1.7984 -0.3072
 7538TIP3    H244030   4.334   4.805  15.148  0.3067 -1.5730  0.9953
 7539TIP3   OH244031   4.351   1.176  11.060 -0.4477 -0.1107 -0.9531
 7539TIP3    H144032   4.399   1.162  10.979 -0.2914  0.1132 -0.9004
 7539TIP3    H244033   4.418   1.178  11.128 -0.4740  0.8204 -0.9507
 7540TIP3   OH244034   1.075   3.200  15.933  0.4109  0.2514  0.3209
 7540TIP3    H144035   0.987   3.210  15.895  0.5532  1.0163  0.1732
 7540TIP3    H244036   1.129   3.263  15.886  1.5275 -1.5859 -0.9899
 7541TIP3   OH244037   6.166   2.137  15.544 -0.0204  0.5923 -0.2293
 7541TIP3    H144038   6.076   2.105  15.533 -0.4513  1.2194  1.2304
 7541TIP3    H244039   6.212   2.066  15.588 -0.6027  1.3481  1.6983
 7542TIP3   OH244040   1.531   3.818  12.582  0.5344 -0.1329  0.0637
 7542TIP3    H144041   1.443   3.780  12.579  0.7590 -0.8429  1.5743
 7542TIP3    H244042   1.556   3.828  12.490 -0.7219 -0.8389 -0.3827
 7543TIP3   OH244043   0.095   4.361  12.402  0.3619 -0.0917 -0.1786
 7543TIP3    H144044   0.024   4.332  12.344  0.3703 -1.3842  0.4409
 7543TIP3    H244045   0.108   4.453  12.378 -0.8837 -0.0852 -0.9529
 7544TIP3   OH244046   1.371   5.984   0.394  0.4301  0.6080 -0.2269
 7544TIP3    H144047   1.361   5.968   0.300 -1.2665 -0.9402  0.1365
 7544TIP3    H244048   1.428   5.914   0.424  1.8415  1.7253 -0.2366
 7545TIP3   OH244049   5.268   4.707   1.293 -0.0130  0.2045  0.2441
 7545TIP3    H144050   5.184   4.663   1.304  0.0247 -0.0890 -0.5596
 7545TIP3    H244051   5.285   4.748   1.378 -1.0718  0.4548  0.3557
 7546TIP3   OH244052   2.578   4.063   0.375  0.3237 -0.3725 -0.0630
 7546TIP3    H144053   2.616   4.080   0.288 -1.3887  0.3588 -0.7023
 7546TIP3    H244054   2.526   4.141   0.394  0.3243 -0.7154  1.4484
 7547TIP3   OH244055   1.729   4.322   4.799  0.3284 -0.3739  0.2730
 7547TIP3    H144056   1.804   4.266   4.779 -1.0515 -1.3781 -2.8013
 7547TIP3    H244057   1.725   4.384   4.726 -2.2186 -0.8716 -0.1129
 7548TIP3   OH244058   2.132   5.177   1.428  0.0195  0.2874 -0.3647
 7548TIP3    H144059   2.183   5.251   1.461  1.1310 -1.0485  1.0623
 7548TIP3    H244060   2.195   5.105   1.420 -1.3931 -1.1016  0.3619
 7549TIP3   OH244061   4.786   2.083  13.956  0.3893  0.0865 -0.2319
 7549TIP3    H144062   4.765   2.149  14.022 -0.0163 -0.1223 -0.1469
 7549TIP3    H244063   4.850   2.126  13.898 -1.3040  1.2651 -1.3238
 7550TIP3   OH244064   5.931   2.944   4.000 -0.0246  0.3588  0.0085
 7550TIP3    H144065   5.939   2.976   4.090 -0.0285  0.1001  0.1016
 7550TIP3    H244066   6.016   2.962   3.960 -0.0554  0.5640  0.0343
 7551TIP3   OH244067   1.257   4.352   3.214  0.2305 -0.0499 -0.2846
 7551TIP3    H144068   1.310   4.418   3.259  2.8987 -2.1244 -0.1693
 7551TIP3    H244069   1.320   4.295   3.171 -1.9844 -2.0231 -1.1448
 7552TIP3   OH244070   1.563   2.813   2.034  0.6388 -0.1119  0.0448
 7552TIP3    H144071   1.640   2.842   1.985 -0.0677  2.0408  0.1102
 7552TIP3    H244072   1.489   2.852   1.987 -0.1744  0.6095  1.8472
 7553TIP3   OH244073   2.141   0.814  16.849 -0.0845  0.0256  0.0828
 7553TIP3    H144074   2.128   0.769  16.766 -1.0885  1.2980 -0.4798
 7553TIP3    H244075   2.237   0.819  16.859  0.1117  1.3628 -1.8819
 7554TIP3   OH244076   2.039   4.364  12.591 -0.6539  0.1526 -0.1073
 7554TIP3    H144077   1.960   4.310  12.592  0.0349 -0.8850 -0.4264
 7554TIP3    H244078   2.092   4.328  12.519 -0.8525  2.2517 -1.3948
 7555TIP3   OH244079   3.208   4.279   2.068  0.9365  0.5380 -0.0095
 7555TIP3    H144080   3.191   4.186   2.080  0.1214  0.9034  2.1530
 7555TIP3    H244081   3.257   4.305   2.146  3.5276  1.4534 -1.7986
 7556TIP3   OH244082   1.774   2.252  15.631  0.2599 -0.1574  0.3794
 7556TIP3    H144083   1.844   2.313  15.655 -0.5500  0.8699  0.1979
 7556TIP3    H244084   1.730   2.294  15.557 -0.6634 -0.7012  0.6051
 7557TIP3   OH244085   2.314   6.354   5.237 -0.5106 -0.2457 -0.2661
 7557TIP3    H144086   2.380   6.284   5.238 -1.5951 -1.3630  2.4740
 7557TIP3    H244087   2.311   6.382   5.146  2.0849 -1.7255 -0.9223
 7558TIP3   OH244088   5.838   3.007  11.834 -0.4208  0.2148 -0.0005
 7558TIP3    H144089   5.777   3.079  11.814  2.0426  3.2890  2.5083
 7558TIP3    H244090   5.841   3.004  11.930  0.9095 -2.1374 -0.0482
 7559TIP3   OH244091   3.858   2.650  13.556 -0.3333 -0.2074  0.1851
 7559TIP3    H144092   3.815   2.592  13.494 -0.0129 -0.9937  0.6806
 7559TIP3    H244093   3.918   2.594  13.604 -0.0908  0.5156  0.7556
 7560TIP3   OH244094   1.409   4.541  12.495  0.7882  0.7296  0.0313
 7560TIP3    H144095   1.411   4.573  12.405 -1.9184 -0.9732 -0.7854
 7560TIP3    H244096   1.491   4.493  12.505  0.2038 -1.0293 -2.4422
 7561TIP3   OH244097   3.046   2.885   3.265  0.2092 -0.3336 -0.2249
 7561TIP3    H144098   3.015   2.970   3.234 -0.6649 -0.5439  0.0657
 7561TIP3    H244099   3.095   2.906   3.345  2.5223  0.2164 -1.6754
 7562TIP3   OH244100   2.275   1.859   2.420 -0.0186 -0.1178  0.3715
 7562TIP3    H144101   2.183   1.881   2.410 -0.1113 -0.7163 -0.1817
 7562TIP3    H244102   2.275   1.768   2.451  0.3966 -0.5801 -0.9242
 7563TIP3   OH244103   2.449   4.080   5.225  0.0348  0.4234  0.2719
 7563TIP3    H144104   2.455   3.987   5.248  1.5153  0.4531  0.0696
 7563TIP3    H244105   2.457   4.081   5.130 -1.0603  0.6963  0.1652
 7564TIP3   OH244106   0.469   5.015   4.682  0.0258  0.4512 -0.0541
 7564TIP3    H144107   0.532   4.995   4.751  0.9638  0.4592 -0.8740
 7564TIP3    H244108   0.453   4.930   4.639  1.3955  0.8231 -1.3903
 7565TIP3   OH244109   6.412   5.085   2.894 -0.5006  0.0528 -0.3169
 7565TIP3    H144110   6.401   5.096   2.799 -1.2729 -1.3641 -0.4158
 7565TIP3    H244111   6.332   5.122   2.932 -0.1612  0.6820 -0.2010
 7566TIP3   OH244112   6.410   4.942  17.008 -0.5239  0.1077  0.2852
 7566TIP3    H144113   6.333   4.885  17.012 -0.6223  0.0585 -1.4599
 7566TIP3    H244114   6.377   5.023  16.970  0.2088  0.2332 -0.0840
 7567TIP3   OH244115   1.806   3.931  13.660 -0.0109 -0.3133  0.1595
 7567TIP3    H144116   1.718   3.900  13.640  0.0553 -0.6804  0.4205
 7567TIP3    H244117   1.857   3.909  13.582 -0.0504 -0.5281  0.1908
 7568TIP3   OH244118   6.547   4.528  16.126 -0.5889  0.2456 -0.0554
 7568TIP3    H144119   6.454   4.548  16.137  0.1466  3.4665  1.3819
 7568TIP3    H244120   6.578   4.506  16.213  0.1214 -0.3832 -0.4487
 7569TIP3   OH244121   1.778   0.408  12.402 -0.4567 -0.3364 -0.2482
 7569TIP3    H144122   1.746   0.358  12.327  0.6030  0.1477 -1.0514
 7569TIP3    H244123   1.849   0.355  12.437 -0.9630 -0.5719  0.4503
 7570TIP3   OH244124   2.881   5.494  15.584  0.5335  0.3913 -0.5429
 7570TIP3    H144125   2.897   5.587  15.602 -0.7519  0.7275 -0.9962
 7570TIP3    H244126   2.786   5.489  15.571  0.6927 -0.8461 -1.3316
 7571TIP3   OH244127   0.646   5.147  13.608 -0.2089 -0.1577  0.0843
 7571TIP3    H144128   0.559   5.171  13.576 -1.7625 -2.1892  2.4079
 7571TIP3    H244129   0.661   5.059  13.572 -0.3320 -0.9038  1.7920
 7572TIP3   OH244130   5.808   4.836   5.376  0.3250  0.1024  0.5406
 7572TIP3    H144131   5.727   4.863   5.334  0.2937  1.6165  1.5180
 7572TIP3    H244132   5.851   4.780   5.312 -1.1015 -0.0558 -0.3068
 7573TIP3   OH244133   0.395   4.449  11.300 -0.2074 -0.3341 -0.6376
 7573TIP3    H144134   0.433   4.508  11.365  0.0947 -1.7230  0.5097
 7573TIP3    H244135   0.411   4.492  11.217 -1.0263  1.7370  0.2119
 7574TIP3   OH244136   4.878   6.317   2.862 -0.5981  0.0872 -0.5953
 7574TIP3    H144137   4.897   6.267   2.941  0.2526 -1.8169 -1.9342
 7574TIP3    H244138   4.959   6.365   2.843  0.1060 -1.4752 -1.6896
 7575TIP3   OH244139   5.268   1.990   3.934  0.3025  0.1189 -0.1080
 7575TIP3    H144140   5.267   2.033   3.848 -0.9580 -0.6722 -0.5112
 7575TIP3    H244141   5.299   2.058   3.994 -1.1057  1.4639 -0.8219
 7576TIP3   OH244142   4.734   1.578   5.100 -0.5627 -0.4095  0.0868
 7576TIP3    H144143   4.803   1.571   5.165  0.4309 -0.1573 -0.9118
 7576TIP3    H244144   4.653   1.578   5.151  0.0355 -2.7823  1.1800
 7577TIP3   OH244145   5.886   0.299   4.812  0.7401 -0.4532  0.3101
 7577TIP3    H144146   5.839   0.381   4.797  0.2568 -0.0539  3.3796
 7577TIP3    H244147   5.835   0.233   4.764  0.0204  0.7355 -0.6047
 7578TIP3   OH244148   6.345   3.374  16.470 -0.0474 -0.1092 -0.4607
 7578TIP3    H144149   6.297   3.453  16.493 -1.1674 -0.8728 -0.0759
 7578TIP3    H244150   6.282   3.303  16.485  1.5604 -1.2807  1.2764
 7579TIP3   OH244151   1.297   4.614  14.847  0.0801 -0.3083  0.1498
 7579TIP3    H144152   1.305   4.584  14.937  1.4343  0.8965  0.4556
 7579TIP3    H244153   1.220   4.671  14.847 -1.8597 -2.7013 -0.2034
 7580TIP3   OH244154   4.744   1.276   0.173  0.5185 -0.3702 -0.5884
 7580TIP3    H144155   4.672   1.320   0.218  1.2560 -1.3868  1.7385
 7580TIP3    H244156   4.712   1.188   0.158  0.1504  0.0538 -2.4881
 7581TIP3   OH244157   5.348   6.410   3.324 -0.2093 -0.2218 -0.2579
 7581TIP3    H144158   5.316   6.498   3.342 -0.3610  0.0128 -1.5239
 7581TIP3    H244159   5.293   6.352   3.377  0.2053  0.4660  0.9428
 7582TIP3   OH244160   5.043   5.908   1.266  0.0372 -0.3237 -0.1792
 7582TIP3    H144161   5.004   5.861   1.192 -1.0701 -1.0994  0.8828
 7582TIP3    H244162   5.136   5.915   1.242 -0.2328 -0.8668 -1.4874
 7583TIP3   OH244163   2.209   0.227   4.906 -0.9621 -0.0219  0.4905
 7583TIP3    H144164   2.206   0.179   4.989 -2.1332 -0.7321  0.0716
 7583TIP3    H244165   2.173   0.313   4.926  2.5846  1.3383  1.5940
 7584TIP3   OH244166   3.681   5.058  17.040  0.1379 -0.5137  0.5509
 7584TIP3    H144167   3.761   5.006  17.044  1.0529  0.8591  0.6923
 7584TIP3    H244168   3.665   5.085  17.130 -1.1785 -1.7241  0.7250
 7585TIP3   OH244169   3.407   2.747  14.247  0.6916  0.6570 -0.6625
 7585TIP3    H144170   3.413   2.693  14.326  1.1581  0.4505 -0.8342
 7585TIP3    H244171   3.411   2.684  14.175  0.7645  0.8836 -0.8565
 7586TIP3   OH244172   0.751   4.037  17.017  0.2902  0.5585  0.1148
 7586TIP3    H144173   0.790   4.108  17.068  0.3579  0.2205  0.5355
 7586TIP3    H244174   0.710   3.980  17.082  1.2240 -0.4139 -0.1180
 7587TIP3   OH244175   0.258   5.970   1.723  0.1880  0.2280  0.2421
 7587TIP3    H144176   0.201   5.999   1.794 -1.3738  0.9036 -1.1888
 7587TIP3    H244177   0.257   5.875   1.728 -2.6717  0.0882 -0.7954
 7588TIP3   OH244178   3.933   2.670  16.551 -0.0072  0.0280  0.2100
 7588TIP3    H144179   3.882   2.644  16.628 -0.8219  1.1343  0.0721
 7588TIP3    H244180   4.021   2.636  16.568 -0.3389 -0.3101  1.3324
 7589TIP3   OH244181   6.356   4.211   2.160 -0.4610 -0.3227 -0.0839
 7589TIP3    H144182   6.323   4.301   2.156  0.5403  0.1011  0.6144
 7589TIP3    H244183   6.371   4.187   2.069 -2.8976 -0.6550 -0.4590
 7590TIP3   OH244184   3.807   3.992  16.087 -0.1205 -0.7913  0.2015
 7590TIP3    H144185   3.785   4.069  16.140  1.7417 -0.9605  1.3206
 7590TIP3    H244186   3.851   3.933  16.149  2.4300 -0.8727 -1.5650
 7591TIP3   OH244187   6.386   1.376  14.633 -0.3279 -0.6688 -0.1460
 7591TIP3    H144188   6.318   1.418  14.581 -0.6800 -1.4485 -0.3422
 7591TIP3    H244189   6.468   1.413  14.601 -0.6116 -0.3727 -0.5322
 7592TIP3   OH244190   6.719   0.608  15.317 -0.4429 -0.2190 -0.4453
 7592TIP3    H144191   6.741   0.690  15.273  0.5781 -1.4352 -2.3608
 7592TIP3    H244192   6.652   0.632  15.381 -0.2482  2.0686 -1.0195
 7593TIP3   OH244193   5.787   3.249  14.015  0.2511 -0.4403  0.1981
 7593TIP3    H144194   5.749   3.209  14.092  1.3850 -1.9620  0.0079
 7593TIP3    H244195   5.789   3.343  14.035 -1.7717 -0.4996  0.9544
 7594TIP3   OH244196   3.740   2.098   5.620  0.6295 -0.8736 -0.3423
 7594TIP3    H144197   3.762   2.191   5.621 -2.4907  0.0681 -2.4910
 7594TIP3    H244198   3.824   2.053   5.627  2.8662  2.1607 -3.9799
 7595TIP3   OH244199   0.941   2.389   2.073  0.5392 -0.0271 -0.0197
 7595TIP3    H144200   0.973   2.478   2.089 -0.8208  0.4139  0.3677
 7595TIP3    H244201   1.014   2.346   2.029  1.2349  1.2795 -0.2217
 7596TIP3   OH244202   3.410   3.854  14.726  0.2331 -0.4117 -0.6804
 7596TIP3    H144203   3.375   3.932  14.685 -1.1742 -1.5707 -1.7873
 7596TIP3    H244204   3.370   3.781  14.678 -0.1277 -1.8326  1.6120
 7597TIP3   OH244205   1.869   1.076   3.112 -0.3285  0.2701 -0.2097
 7597TIP3    H144206   1.872   1.006   3.047  0.3882 -0.0953  0.2033
 7597TIP3    H244207   1.777   1.100   3.118 -0.4689 -0.0727 -0.9527
 7598TIP3   OH244208   3.035   4.903   1.066 -0.0075 -0.0274 -0.3913
 7598TIP3    H144209   3.102   4.835   1.060  0.3361  0.2479  0.2683
 7598TIP3    H244210   2.953   4.855   1.080  0.2875 -0.2910  0.4455
 7599TIP3   OH244211   6.031   5.524   1.043 -0.1553 -0.1375 -0.7449
 7599TIP3    H144212   6.079   5.457   0.995 -1.0620 -0.7206 -0.8581
 7599TIP3    H244213   6.015   5.485   1.129 -0.3134  0.1034 -0.6650
 7600TIP3   OH244214   5.184   0.950  13.611 -0.4671  0.6196 -0.2501
 7600TIP3    H144215   5.254   0.886  13.607 -1.1840 -0.1138 -1.7005
 7600TIP3    H244216   5.171   0.965  13.705 -0.0690 -1.1217  0.1186
 7601TIP3   OH244217   4.907   3.410   3.546 -0.1255  0.3203 -0.3615
 7601TIP3    H144218   4.986   3.356   3.545 -0.8916 -0.8410 -1.5207
 7601TIP3    H244219   4.915   3.466   3.469 -0.3827  0.2787 -0.4187
 7602TIP3   OH244220   5.605   5.885  15.676  0.1902  0.5096  0.3054
 7602TIP3    H144221   5.632   5.816  15.615  0.2988  1.3324 -0.5999
 7602TIP3    H244222   5.686   5.908  15.722  0.2608  0.3832  0.2478
 7603TIP3   OH244223   5.847   6.749  16.160 -0.4164 -0.1883 -0.5446
 7603TIP3    H144224   5.800   6.714  16.236  0.3822  0.7336  0.3970
 7603TIP3    H244225   5.796   6.826  16.134  0.1322  0.3810  0.0187
 7604TIP3   OH244226   1.385   4.945   5.050 -0.1208  0.0351 -0.4797
 7604TIP3    H144227   1.382   5.039   5.030 -0.0923  0.3559  0.9234
 7604TIP3    H244228   1.361   4.902   4.968 -1.6222  1.3206 -0.7686
 7605TIP3   OH244229   1.690   3.292   2.734  0.2250  0.0674 -0.4647
 7605TIP3    H144230   1.770   3.290   2.680  0.5550 -1.1157  0.0524
 7605TIP3    H244231   1.722   3.283   2.824 -0.4780 -0.1165 -0.2332
 7606TIP3   OH244232   4.682   1.473  12.033  0.0799  0.0264  0.4952
 7606TIP3    H144233   4.773   1.482  12.006 -0.2337 -1.7135 -1.5078
 7606TIP3    H244234   4.634   1.462  11.950 -1.8973  0.4811  1.5096
 7607TIP3   OH244235   0.095   2.416   2.915 -0.3882 -0.2614  0.0071
 7607TIP3    H144236   0.015   2.386   2.872 -0.6191 -0.7827  0.7630
 7607TIP3    H244237   0.141   2.335   2.937 -1.3312 -0.1763  2.6976
 7608TIP3   OH244238   2.088   5.218  16.323  0.1102 -0.0440  0.1398
 7608TIP3    H144239   2.099   5.305  16.363 -1.9279  1.3513 -2.0793
 7608TIP3    H244240   2.143   5.221  16.245 -1.5581  0.1283 -1.0864
 7609TIP3   OH244241   3.176   3.505  13.849  0.1218  0.3128 -0.3504
 7609TIP3    H144242   3.101   3.565  13.851  0.2464  0.5589 -1.6515
 7609TIP3    H244243   3.223   3.529  13.769  1.5464  0.0980  0.3874
 7610TIP3   OH244244   5.129   3.801   4.368  0.3084  0.5494 -0.3136
 7610TIP3    H144245   5.203   3.771   4.316  1.3532  1.3971  0.6183
 7610TIP3    H244246   5.113   3.730   4.430  2.4153  1.5348  1.5273
 7611TIP3   OH244247   4.442   3.849  15.333  0.4439 -0.0087 -0.1778
 7611TIP3    H144248   4.394   3.931  15.345 -0.6066 -0.7523  1.0084
 7611TIP3    H244249   4.469   3.849  15.241 -0.4770  1.1710 -0.4664
 7612TIP3   OH244250   1.137   6.136  15.055 -0.3749 -0.4370  0.1287
 7612TIP3    H144251   1.224   6.174  15.043  0.1805 -1.1892  1.5546
 7612TIP3    H244252   1.104   6.178  15.134 -1.4868  0.1214 -0.6111
 7613TIP3   OH244253   4.049   0.790   6.145  0.4077 -1.0116 -0.0545
 7613TIP3    H144254   4.077   0.851   6.214  1.0994 -0.1157 -1.0933
 7613TIP3    H244255   4.131   0.750   6.115  0.4440  0.2859 -1.8713
 7614TIP3   OH244256   0.804   2.019  12.275  0.1018  0.4145  0.3343
 7614TIP3    H144257   0.851   1.953  12.225 -0.1609 -1.2333  2.1851
 7614TIP3    H244258   0.758   2.070  12.208  0.2766 -1.2738 -1.1529
 7615TIP3   OH244259   0.314   4.916  11.376 -0.5937 -0.1852 -0.1857
 7615TIP3    H144260   0.373   4.928  11.450  1.0431 -1.8864 -1.1261
 7615TIP3    H244261   0.266   4.836  11.395 -0.5566 -0.3413 -0.7216
 7616TIP3   OH244262   5.049   4.257   5.731 -0.5464 -0.0164 -0.3085
 7616TIP3    H144263   5.069   4.299   5.814 -1.1873 -0.5095  0.1021
 7616TIP3    H244264   4.972   4.303   5.699 -1.7323 -1.3478  0.5210
 7617TIP3   OH244265   1.716   4.461  14.076  0.1906  0.2615 -0.8068
 7617TIP3    H144266   1.756   4.518  14.010  0.9511 -0.8080 -1.3072
 7617TIP3    H244267   1.707   4.517  14.153  1.1876  0.9911 -1.1860
 7618TIP3   OH244268   4.970   6.616   0.912  0.5536  0.1688 -0.1776
 7618TIP3    H144269   4.958   6.612   0.817 -0.1588  1.5078 -0.1617
 7618TIP3    H244270   4.909   6.683   0.941  0.8727 -0.1267  1.2196
 7619TIP3   OH244271   5.803   1.351  15.909  0.6340 -0.0009 -0.1796
 7619TIP3    H144272   5.711   1.356  15.936  0.6961 -1.0039  0.2711
 7619TIP3    H244273   5.845   1.428  15.947  0.1337  0.0707  0.2255
 7620TIP3   OH244274   5.491   0.286  16.575  0.0592 -0.1491 -0.0453
 7620TIP3    H144275   5.536   0.362  16.613 -2.1575  2.1707 -1.7246
 7620TIP3    H244276   5.420   0.268  16.636 -0.5878  0.4227 -0.6208
 7621TIP3   OH244277   2.249   0.328  17.259 -0.0945 -0.2278  0.3866
 7621TIP3    H144278   2.333   0.316  17.303 -0.7809 -1.1168  1.5157
 7621TIP3    H244279   2.202   0.392  17.312  0.0873  0.7744 -0.6067
 7622TIP3   OH244280   6.408   4.048   3.906  0.1894 -0.1462  0.1487
 7622TIP3    H144281   6.372   4.073   3.991  0.9968 -0.0206  0.4624
 7622TIP3    H244282   6.395   3.953   3.901  0.8772 -0.2784  0.7704
 7623TIP3   OH244283   4.546   5.875  13.618  0.6679  0.1466 -0.3663
 7623TIP3    H144284   4.514   5.832  13.539  0.8575  1.3240 -1.1012
 7623TIP3    H244285   4.634   5.905  13.595  0.0961  2.0175 -0.3198
 7624TIP3   OH244286   3.040   2.042   6.509  0.0646 -0.5101 -0.0277
 7624TIP3    H144287   3.128   2.073   6.489 -0.1395 -0.7087 -1.3216
 7624TIP3    H244288   2.988   2.123   6.518  0.4166 -0.3871  0.9792
 7625TIP3   OH244289   0.902   1.308   1.300  0.2147 -0.2386  0.3357
 7625TIP3    H144290   0.913   1.214   1.287  1.7008 -0.0741  0.2421
 7625TIP3    H244291   0.822   1.330   1.252 -0.6868 -1.6024  1.1401
 7626TIP3   OH244292   2.113   4.540  14.647 -0.0283 -0.3871 -0.8729
 7626TIP3    H144293   2.123   4.503  14.735 -0.0928 -1.5250 -1.3367
 7626TIP3    H244294   2.203   4.547  14.614 -0.1189 -2.1519 -1.5881
 7627TIP3   OH244295   0.633   0.447   4.659  0.1040 -0.2527  0.0222
 7627TIP3    H144296   0.575   0.406   4.723 -1.4687  0.2162 -1.0353
 7627TIP3    H244297   0.654   0.532   4.697 -1.6470  0.4489 -0.4738
 7628TIP3   OH244298   4.180   4.157  16.500 -0.4839 -0.1404  0.0116
 7628TIP3    H144299   4.215   4.081  16.454 -0.9198 -2.4281  3.1541
 7628TIP3    H244300   4.138   4.121  16.578 -1.0962  3.3095  1.4619
 7629TIP3   OH244301   2.154   4.035  15.603  0.0468 -0.2000  0.1683
 7629TIP3    H144302   2.248   4.035  15.581 -0.0448  0.8122 -0.3168
 7629TIP3    H244303   2.113   3.984  15.534  0.3072 -1.2805  0.7872
 7630TIP3   OH244304   3.536   5.918   3.213  0.5021  0.6221  0.7902
 7630TIP3    H144305   3.630   5.903   3.213  0.1044 -2.4353  1.4962
 7630TIP3    H244306   3.526   6.010   3.238  3.3439  2.1885 -2.9481
 7631TIP3   OH244307   4.332   3.846  14.259 -0.1851 -0.2903  0.2540
 7631TIP3    H144308   4.407   3.897  14.291 -0.3784 -0.2726  0.6877
 7631TIP3    H244309   4.280   3.909  14.210 -1.0718  0.2553  1.8364
 7632TIP3   OH244310   2.229   3.691   4.354 -0.1840  0.4198 -0.0119
 7632TIP3    H144311   2.318   3.727   4.355  0.0049  0.0616  2.6715
 7632TIP3    H244312   2.173   3.766   4.335  0.5332  1.1229  0.6098
 7633TIP3   OH244313   1.877   2.607  12.768 -0.1929  0.1142 -0.4239
 7633TIP3    H144314   1.866   2.562  12.684  1.3702 -0.5928 -0.2677
 7633TIP3    H244315   1.865   2.539  12.834 -1.0427  0.5944 -0.0595
 7634TIP3   OH244316   2.742   5.547   1.591 -0.4159  0.7402 -0.7466
 7634TIP3    H144317   2.763   5.456   1.610 -1.5539  0.1530 -2.1516
 7634TIP3    H244318   2.813   5.597   1.633  0.1754 -0.7571  0.1204
 7635TIP3   OH244319   4.795   1.200   6.227 -0.4621 -0.4170  0.7264
 7635TIP3    H144320   4.768   1.210   6.318 -0.8407 -0.3569  0.6068
 7635TIP3    H244321   4.772   1.283   6.185  0.4708 -0.1290  0.7654
 7636TIP3   OH244322   0.780   1.949  16.753 -1.0963 -0.2899 -0.3480
 7636TIP3    H144323   0.764   1.859  16.780 -0.6031 -0.8438 -1.8118
 7636TIP3    H244324   0.845   1.943  16.683 -3.9682  0.7411 -3.4277
 7637TIP3   OH244325   2.466   1.435  13.639 -0.4931 -0.8272  0.2241
 7637TIP3    H144326   2.439   1.363  13.696 -0.7351 -0.5059  0.5198
 7637TIP3    H244327   2.418   1.510  13.672 -0.9535 -0.7245 -0.6640
 7638TIP3   OH244328   2.662   2.123   1.440  0.1027 -0.1339  0.3705
 7638TIP3    H144329   2.651   2.178   1.518 -0.0479  0.8893 -0.3406
 7638TIP3    H244330   2.738   2.068   1.460  1.9079  2.1165  0.1602
 7639TIP3   OH244331   3.745   2.395   5.585  0.3899 -0.2699 -0.8388
 7639TIP3    H144332   3.784   2.467   5.635 -2.3894  0.4529  0.4632
 7639TIP3    H244333   3.677   2.437   5.532  0.1764 -1.6752 -1.7268
 7640TIP3   OH244334   0.073   5.023   0.195  0.3384  0.4317 -0.4211
 7640TIP3    H144335   0.121   4.941   0.180 -0.2589 -0.0091  0.0303
 7640TIP3    H244336   0.142   5.088   0.208  0.8274 -0.1724  0.1082
 7641TIP3   OH244337   1.339   3.996   4.536  0.4495 -0.5026 -0.0552
 7641TIP3    H144338   1.430   4.017   4.554  0.4834 -0.6301 -0.0760
 7641TIP3    H244339   1.326   4.023   4.445  0.2171  0.3477  0.2174
 7642TIP3   OH244340   1.481   3.932   1.524 -0.3156 -0.2615  0.9087
 7642TIP3    H144341   1.454   3.861   1.466  1.7622  0.7105 -1.4779
 7642TIP3    H244342   1.506   4.003   1.465  2.4949  0.6347  2.9442
 7643TIP3   OH244343   3.289   1.139   2.856  0.2025 -0.3794  0.2828
 7643TIP3    H144344   3.243   1.158   2.938 -2.3979 -2.3052 -0.5882
 7643TIP3    H244345   3.287   1.221   2.807 -1.6210 -0.1667  0.6435
 7644TIP3   OH244346   4.017   6.643   2.016  0.0054 -0.0495  0.7497
 7644TIP3    H144347   3.981   6.583   2.082 -2.4508 -0.0652 -0.4754
 7644TIP3    H244348   4.043   6.720   2.065  0.7304 -1.0799  2.0343
 7645TIP3   OH244349   2.551   3.393   0.617 -0.6283  0.2832 -0.1577
 7645TIP3    H144350   2.459   3.412   0.598 -0.7881  0.3043  0.6060
 7645TIP3    H244351   2.600   3.447   0.555 -1.1202  0.9935  0.0647
 7646TIP3   OH244352   3.879   3.817   6.022 -0.4554  0.3187 -0.4289
 7646TIP3    H144353   3.879   3.854   6.111  1.1863  0.5680 -0.4895
 7646TIP3    H244354   3.798   3.767   6.017 -1.1233  1.2043  0.8252
 7647TIP3   OH244355   3.637   4.337   4.568  0.1659 -0.3531  0.1558
 7647TIP3    H144356   3.594   4.307   4.488  0.5191 -2.2430  0.6319
 7647TIP3    H244357   3.565   4.357   4.628 -0.1188 -2.6024  0.6304
 7648TIP3   OH244358   6.127   1.992   0.778  0.1083 -0.1197  0.1937
 7648TIP3    H144359   6.064   1.929   0.812  0.2695  0.0446  0.8218
 7648TIP3    H244360   6.106   2.000   0.685  0.1475 -1.1714  0.0808
 7649TIP3   OH244361   5.005   0.050  16.248  0.4044  0.2765 -0.3109
 7649TIP3    H144362   4.923   0.073  16.205 -0.1401 -0.0922  0.4998
 7649TIP3    H244363   5.064   0.027  16.176 -0.2247  0.4588 -0.9006
 7650TIP3   OH244364   4.400   1.760  16.192  0.1426 -0.0323 -0.2478
 7650TIP3    H144365   4.400   1.848  16.229 -0.2162 -0.3004  0.4110
 7650TIP3    H244366   4.448   1.768  16.110 -0.7983  0.9837 -0.7214
 7651TIP3   OH244367   5.026   1.775  13.743 -0.2389  0.4283 -0.3803
 7651TIP3    H144368   5.032   1.740  13.654 -1.9906  2.6565 -1.4915
 7651TIP3    H244369   5.111   1.815  13.759 -0.0412  0.3972 -1.2758
 7652TIP3   OH244370   6.475   3.365   1.744  0.1470 -0.6255  0.2865
 7652TIP3    H144371   6.476   3.296   1.810 -1.7467 -1.1778 -0.2176
 7652TIP3    H244372   6.396   3.414   1.762  0.3008  0.0272 -0.7707
 7653TIP3   OH244373   4.693   6.096   0.014 -0.3152 -0.4641  0.8289
 7653TIP3    H144374   4.697   6.180   0.059 -0.0877 -1.6800  3.2264
 7653TIP3    H244375   4.610   6.098  -0.034  1.2474  2.4469 -2.1784
 7654TIP3   OH244376   4.348   1.441  14.522  0.0369  0.4899  0.4870
 7654TIP3    H144377   4.437   1.464  14.547 -0.0595  0.0742  1.2608
 7654TIP3    H244378   4.322   1.374  14.586 -0.6142  0.1741 -0.0955
 7655TIP3   OH244379   5.133   1.525   1.281 -0.0579  0.1433  0.1052
 7655TIP3    H144380   5.079   1.446   1.286 -0.5963  0.5413  0.5490
 7655TIP3    H244381   5.128   1.564   1.368 -0.2323  0.9584 -0.2567
 7656TIP3   OH244382   2.434   0.643  11.456 -0.8774  0.1095  0.2031
 7656TIP3    H144383   2.346   0.616  11.481 -0.9503  0.3986  0.2663
 7656TIP3    H244384   2.430   0.651  11.361 -0.6861 -0.6899  0.1270
 7657TIP3   OH244385   5.521   6.702  12.657  0.3588  0.0665 -0.4305
 7657TIP3    H144386   5.602   6.747  12.637  0.3959  0.5584  0.7597
 7657TIP3    H244387   5.458   6.772  12.677  0.1405 -0.3628  0.4248
 7658TIP3   OH244388   3.756   1.720  14.673 -0.4527 -0.0068  0.4797
 7658TIP3    H144389   3.849   1.739  14.686 -0.1805 -0.1280 -1.0896
 7658TIP3    H244390   3.745   1.631  14.707 -0.0372  0.0705  0.8256
 7659TIP3   OH244391   3.532   6.194  14.372 -0.0161 -0.2517 -0.3027
 7659TIP3    H144392   3.544   6.101  14.392  0.5153  0.3237  2.6085
 7659TIP3    H244393   3.438   6.208  14.379 -0.1158 -0.5859 -0.9109
 7660TIP3   OH244394   4.063   5.519  14.090 -0.4237 -0.4034  0.2821
 7660TIP3    H144395   3.969   5.509  14.109 -0.6470  0.0923 -0.4985
 7660TIP3    H244396   4.090   5.596  14.140 -0.1956 -1.1166  1.2782
 7661TIP3   OH244397   0.615   5.692   5.363 -0.3560 -0.3588 -0.1016
 7661TIP3    H144398   0.572   5.670   5.446 -1.5075  2.4382  0.1697
 7661TIP3    H244399   0.691   5.743   5.389  2.0491 -3.3708 -0.6893
 7662TIP3   OH244400   5.784   0.635  15.860  0.3015  0.2720 -0.1447
 7662TIP3    H144401   5.746   0.547  15.859 -1.8803  1.0502  1.9920
 7662TIP3    H244402   5.867   0.626  15.814 -1.1600 -2.2346 -2.5855
 7663TIP3   OH244403   4.646   4.587  16.770  0.4582 -0.1237 -0.5339
 7663TIP3    H144404   4.579   4.522  16.791 -0.2642  0.6124 -0.4854
 7663TIP3    H244405   4.596   4.666  16.747  1.2195 -0.4697 -3.7946
 7664TIP3   OH244406   3.746   2.556   5.099 -0.4338 -0.1240 -0.3436
 7664TIP3    H144407   3.779   2.597   5.178  1.2880 -0.2986 -0.9274
 7664TIP3    H244408   3.822   2.512   5.061 -1.6796 -1.8525 -0.9835
 7665TIP3   OH244409   2.326   1.680  14.813  0.0285  0.1343  0.2023
 7665TIP3    H144410   2.283   1.596  14.795  0.7284 -0.2191  0.1437
 7665TIP3    H244411   2.342   1.718  14.727  1.2273 -0.4586  0.1424
 7666TIP3   OH244412   5.786   3.564   6.116 -0.2894  0.0010 -0.0806
 7666TIP3    H144413   5.804   3.605   6.031  0.3008 -1.4486 -0.7061
 7666TIP3    H244414   5.727   3.492   6.096  0.4144 -0.7999  0.6094
 7667TIP3   OH244415   4.353   0.710  12.626 -0.0538 -0.8190 -0.4543
 7667TIP3    H144416   4.260   0.713  12.651  0.0461 -1.1053 -0.0362
 7667TIP3    H244417   4.355   0.745  12.537 -0.3533  0.6758  0.1065
 7668TIP3   OH244418   2.885   5.751   0.392 -0.7222  0.0892  0.3154
 7668TIP3    H144419   2.861   5.693   0.319 -1.0166  0.5554  0.0302
 7668TIP3    H244420   2.879   5.696   0.469 -2.1710  0.0196  0.1865
 7669TIP3   OH244421   3.654   3.249  17.114 -0.3670  0.0100  0.2657
 7669TIP3    H144422   3.728   3.207  17.159 -0.2398  1.1618  1.1833
 7669TIP3    H244423   3.633   3.189  17.042  0.1696 -1.3324  1.1738
 7670TIP3   OH244424   2.118   4.007   1.188  0.5272  0.2560  0.1300
 7670TIP3    H144425   2.150   4.085   1.143  0.7074  1.7454  2.6161
 7670TIP3    H244426   2.033   3.988   1.147  0.8115  1.3123 -1.0051
 7671TIP3   OH244427   3.142   5.336  16.230 -0.0205 -0.2845  0.5997
 7671TIP3    H144428   3.155   5.362  16.139  1.5595  0.0169  0.8720
 7671TIP3    H244429   3.212   5.381  16.278  0.1081 -1.6189  1.7385
 7672TIP3   OH244430   1.737   6.201   6.761 -0.3197 -0.2074 -0.3174
 7672TIP3    H144431   1.768   6.245   6.681 -1.4805  1.4161  0.0703
 7672TIP3    H244432   1.642   6.195   6.749 -0.8396  2.0182  1.7669
 7673TIP3   OH244433   5.632   4.789   1.726 -0.0348  0.0926  0.0953
 7673TIP3    H144434   5.543   4.774   1.693 -0.0908  1.8369 -0.6535
 7673TIP3    H244435   5.619   4.834   1.809  0.1452 -0.8864  0.6574
 7674TIP3   OH244436   2.781   0.192   2.934 -0.5458  0.3461 -0.0250
 7674TIP3    H144437   2.767   0.155   3.021  0.8625  0.2825  0.2011
 7674TIP3    H244438   2.866   0.156   2.906 -0.3300  1.4275 -0.8437
 7675TIP3   OH244439   3.732   3.392   2.405  0.0654  0.1250 -0.6220
 7675TIP3    H144440   3.727   3.332   2.331 -2.0303  1.1476 -1.3839
 7675TIP3    H244441   3.684   3.348   2.475 -0.3913  0.3486 -0.7878
 7676TIP3   OH244442   1.186   0.721   2.661 -0.0578 -0.0733 -0.3165
 7676TIP3    H144443   1.235   0.706   2.581 -0.7393 -2.7966 -0.3151
 7676TIP3    H244444   1.124   0.791   2.639  1.9613  1.5414 -1.1056
 7677TIP3   OH244445   4.874   5.569  12.433 -0.8231 -0.1031  0.5010
 7677TIP3    H144446   4.824   5.534  12.359  1.4611 -1.4129 -0.5416
 7677TIP3    H244447   4.844   5.518  12.508 -0.7185 -1.2356 -0.1998
 7678TIP3   OH244448   1.812   5.916   5.073 -0.6934  0.1292 -0.5903
 7678TIP3    H144449   1.809   5.995   5.126  0.4227 -0.6737  0.7250
 7678TIP3    H244450   1.790   5.845   5.133  0.8536 -0.8353 -1.1003
 7679TIP3   OH244451   0.214   3.779   5.486 -0.0738  0.0104 -0.7802
 7679TIP3    H144452   0.171   3.855   5.447 -1.8846 -0.9091 -0.6744
 7679TIP3    H244453   0.239   3.725   5.411  1.8009  0.9527 -0.8918
 7680TIP3   OH244454   4.116   6.375  11.975  0.1897  0.3325 -0.1344
 7680TIP3    H144455   4.102   6.298  12.031  0.3776  0.8510  0.6457
 7680TIP3    H244456   4.041   6.431  11.993 -0.1217  0.2003 -0.9560
 7681TIP3   OH244457   3.939   3.924  12.388  0.0833 -0.3963  0.6809
 7681TIP3    H144458   3.935   4.020  12.389 -0.0441 -0.3871  2.2761
 7681TIP3    H244459   3.989   3.902  12.467 -0.7710 -1.6666  0.8984
 7682TIP3   OH244460   3.420   5.197  12.631  0.5509  0.6339  0.9980
 7682TIP3    H144461   3.381   5.159  12.709 -1.1727 -0.4012 -0.2758
 7682TIP3    H244462   3.454   5.122  12.582 -0.3818  0.9788 -0.2380
 7683TIP3   OH244463   4.051   6.718  14.593  0.7429  0.0481  0.3712
 7683TIP3    H144464   3.976   6.687  14.643  0.7593 -0.3370  0.1571
 7683TIP3    H244465   4.023   6.713  14.501 -0.3523  3.4271  0.3806
 7684TIP3   OH244466   6.102   2.798  14.600 -0.2987  0.0299  0.0333
 7684TIP3    H144467   6.080   2.741  14.673 -2.3585  1.2494  0.4609
 7684TIP3    H244468   6.083   2.887  14.633 -1.1795  0.6148 -1.9032
 7685TIP3   OH244469   4.736   0.400  12.868  0.0546 -0.2343  0.4708
 7685TIP3    H144470   4.670   0.373  12.805  1.8595 -2.3644 -0.6356
 7685TIP3    H244471   4.734   0.333  12.937  0.7547 -0.0745  0.6574
 7686TIP3   OH244472   5.018   0.805  10.700  0.4443  0.1874 -0.2228
 7686TIP3    H144473   4.976   0.828  10.783 -1.4770 -0.0362 -1.0665
 7686TIP3    H244474   4.984   0.870  10.638  2.2815  0.6975 -0.7577
 7687TIP3   OH244475   4.920   0.414   1.120 -0.4608  0.3507 -0.1751
 7687TIP3    H144476   5.006   0.377   1.102 -0.9995 -0.9033 -0.2550
 7687TIP3    H244477   4.939   0.496   1.165  0.7754  0.1535 -0.2879
 7688TIP3   OH244478   0.386   6.728   1.167 -0.5213 -0.5149 -0.5016
 7688TIP3    H144479   0.332   6.774   1.231 -1.4787 -1.4029 -0.6380
 7688TIP3    H244480   0.329   6.717   1.091  0.1223 -0.7663 -0.9619
 7689TIP3   OH244481   1.364   3.445   0.868  0.0521 -0.3797  0.0116
 7689TIP3    H144482   1.440   3.400   0.904  1.3302  0.7660 -1.1147
 7689TIP3    H244483   1.374   3.536   0.897 -0.6873 -0.1351 -0.4625
 7690TIP3   OH244484   2.994   1.012   3.148  0.7072  0.4566  0.0457
 7690TIP3    H144485   3.065   0.977   3.094  1.7636  0.5101  1.3405
 7690TIP3    H244486   2.918   0.957   3.126  1.4701 -0.4284 -0.4466
 7691TIP3   OH244487   0.679   3.521   2.400 -0.0929  0.4057  0.1308
 7691TIP3    H144488   0.665   3.610   2.433  1.6498  0.1833  1.6018
 7691TIP3    H244489   0.737   3.532   2.325  2.3832  0.3980  1.9317
 7692TIP3   OH244490   2.634   5.919   2.740 -0.2274 -0.5710 -0.1449
 7692TIP3    H144491   2.576   5.889   2.810  0.6521  0.2392  0.9870
 7692TIP3    H244492   2.716   5.872   2.755  0.5076  0.8138  0.4270
 7693TIP3   OH244493   3.174   2.266   5.575  0.2389 -0.9157  0.2893
 7693TIP3    H144494   3.112   2.234   5.510  0.7859 -0.8374 -0.2806
 7693TIP3    H244495   3.119   2.297   5.647 -0.4438  0.3494 -0.7376
 7694TIP3   OH244496   5.950   6.487   2.406 -0.1688  0.4132  0.1585
 7694TIP3    H144497   5.871   6.436   2.389  0.3428 -0.6444  0.8052
 7694TIP3    H244498   5.921   6.578   2.405 -1.4079  0.0398  0.4387
 7695TIP3   OH244499   5.494   2.058  13.152  0.5528  0.4256 -0.6096
 7695TIP3    H144500   5.429   2.108  13.101  0.0578  1.3394  0.8528
 7695TIP3    H244501   5.462   1.968  13.150 -0.4602  0.7689 -0.4041
 7696TIP3   OH244502   0.281   3.551   1.098 -0.4971 -0.1512  0.4137
 7696TIP3    H144503   0.349   3.525   1.161 -0.9577 -1.2192  0.4892
 7696TIP3    H244504   0.250   3.468   1.061 -0.7968  0.4201 -0.6383
 7697TIP3   OH244505   4.466   4.320   5.464  0.1286  0.3196 -0.0606
 7697TIP3    H144506   4.427   4.301   5.379 -0.5603 -0.6710  0.4491
 7697TIP3    H244507   4.412   4.389   5.501 -0.1698  0.0673 -0.0238
 7698TIP3   OH244508   5.424   2.940  15.170 -0.0520  0.3764  0.5035
 7698TIP3    H144509   5.460   3.024  15.143 -1.2565  0.6145 -0.4428
 7698TIP3    H244510   5.501   2.889  15.198  0.9079  1.1756 -0.5782
 7699TIP3   OH244511   4.951   3.074   1.087 -0.2089 -0.4968 -0.0156
 7699TIP3    H144512   4.930   3.108   1.000 -0.4060  3.0189  1.2496
 7699TIP3    H244513   4.896   2.997   1.097 -1.4563  0.0083 -2.3313
 7700TIP3   OH244514   4.655   0.538   2.118 -0.0856 -0.0677 -0.3421
 7700TIP3    H144515   4.664   0.633   2.127  0.0180 -0.1761  0.9322
 7700TIP3    H244516   4.565   0.520   2.146  0.3423 -0.4779  0.8422
 7701TIP3   OH244517   5.893   2.502   6.039 -0.5429  0.0972 -0.2911
 7701TIP3    H144518   5.871   2.577   6.095  0.0148 -0.8294  1.2130
 7701TIP3    H244519   5.989   2.499   6.041 -0.5470 -0.3646 -0.7593
 7702TIP3   OH244520   2.018   5.333  14.897 -0.2042 -0.6890 -0.3834
 7702TIP3    H144521   2.003   5.341  14.992 -2.8130 -2.3954 -0.5628
 7702TIP3    H244522   2.015   5.239  14.880 -0.1684 -0.3814 -2.2402
 7703TIP3   OH244523   4.337   1.110  12.635  0.2354 -0.0897 -0.5470
 7703TIP3    H144524   4.354   1.102  12.542  1.3118  3.1023 -0.7460
 7703TIP3    H244525   4.249   1.148  12.641 -0.6796 -2.1130 -0.0907
 7704TIP3   OH244526   3.884   0.438   3.001  0.8017 -0.5187  0.1207
 7704TIP3    H144527   3.908   0.420   2.910  1.1240  0.6461 -0.0500
 7704TIP3    H244528   3.940   0.380   3.052  1.0871 -0.7171 -0.4043
 7705TIP3   OH244529   3.955   0.517   5.233  0.3117 -0.4971 -1.0908
 7705TIP3    H144530   4.016   0.577   5.190  1.1062  0.9350  1.8042
 7705TIP3    H244531   3.868   0.552   5.214  0.6839  0.5548 -0.8948
 7706TIP3   OH244532   5.248   3.004   1.812  0.2290 -0.0321 -0.0237
 7706TIP3    H144533   5.175   2.998   1.750  0.6748 -0.7204 -0.5054
 7706TIP3    H244534   5.324   3.026   1.758  0.6129 -0.5869  0.2724
 7707TIP3   OH244535   6.706   4.245  13.030  0.0086  0.2976  0.6844
 7707TIP3    H144536   6.702   4.180  12.960  1.3560 -0.3253  1.1652
 7707TIP3    H244537   6.740   4.324  12.988  0.3372  0.0748  0.5347
 7708TIP3   OH244538   2.352   1.872  11.063  0.2725 -0.4542  0.6206
 7708TIP3    H144539   2.400   1.955  11.069 -2.2966  1.2276 -0.0933
 7708TIP3    H244540   2.266   1.898  11.029 -0.3774 -3.5522 -0.3617
 7709TIP3   OH244541   1.680   5.771   4.356 -0.0196  0.0706 -0.8765
 7709TIP3    H144542   1.689   5.698   4.296  0.1668  0.1971 -1.0062
 7709TIP3    H244543   1.630   5.737   4.430 -0.6633  0.0409 -1.3161
 7710TIP3   OH244544   1.560   1.604   5.993  0.1888  0.3410 -0.2037
 7710TIP3    H144545   1.516   1.683   5.962 -1.9819 -0.9680 -0.6041
 7710TIP3    H244546   1.540   1.600   6.086  2.4471  1.5398  0.4220
 7711TIP3   OH244547   3.082   0.379  13.175  0.1511 -0.0276 -0.1842
 7711TIP3    H144548   3.103   0.469  13.202  0.5539 -0.2743  0.3452
 7711TIP3    H244549   3.098   0.326  13.254 -0.7381 -0.4717 -0.2967
 7712TIP3   OH244550   4.055   5.420  13.806  0.5617 -0.3087  0.3844
 7712TIP3    H144551   4.032   5.430  13.898 -0.7527 -1.4192  0.2028
 7712TIP3    H244552   3.997   5.480  13.759 -1.7942 -2.7182 -0.0254
 7713TIP3   OH244553   6.670   3.102  14.373 -0.1039 -0.5988 -0.2599
 7713TIP3    H144554   6.650   3.195  14.382 -0.7869 -0.8252  0.8681
 7713TIP3    H244555   6.760   3.099  14.342  0.1336  0.4406  0.2811
 7714TIP3   OH244556   5.085   1.255   5.980  0.5566  0.4375 -0.2697
 7714TIP3    H144557   5.050   1.251   5.891  0.4278  1.4587 -0.2757
 7714TIP3    H244558   5.119   1.344   5.988  0.0450  0.5352  0.9017
 7715TIP3   OH244559   2.321   3.941   6.386  0.9240 -0.2282  0.4328
 7715TIP3    H144560   2.362   4.011   6.336 -0.6476 -1.0538 -2.2579
 7715TIP3    H244561   2.279   3.985   6.460  0.7368  1.5800 -0.6882
 7716TIP3   OH244562   4.525   2.009  13.990 -0.1404 -0.1259  0.0026
 7716TIP3    H144563   4.618   2.028  14.001 -0.1773  1.3942 -1.8528
 7716TIP3    H244564   4.522   1.914  13.977  0.9673 -0.3973  1.4526
 7717TIP3   OH244565   6.507   5.709  14.282  0.4341  0.0429 -0.1722
 7717TIP3    H144566   6.429   5.656  14.267 -0.6958  0.9719  1.9420
 7717TIP3    H244567   6.476   5.799  14.282  1.3907  0.4117  1.0904
 7718TIP3   OH244568   3.569   3.314  11.152  0.5840 -0.2039 -0.2716
 7718TIP3    H144569   3.572   3.407  11.174  1.0281  0.0917 -1.5366
 7718TIP3    H244570   3.483   3.285  11.183 -0.5381  1.1753 -1.9226
 7719TIP3   OH244571   1.721   4.422   4.254 -0.4372  0.2474  0.1700
 7719TIP3    H144572   1.676   4.407   4.171 -0.3455  2.7809 -0.4124
 7719TIP3    H244573   1.811   4.441   4.228 -0.1352 -0.0769  0.9643
 7720TIP3   OH244574   4.219   4.215  12.417  0.5198  0.2043  0.0294
 7720TIP3    H144575   4.146   4.205  12.478  1.2341 -2.1797  0.5721
 7720TIP3    H244576   4.180   4.206  12.330 -0.1763  1.4897  0.1857
 7721TIP3   OH244577   4.915   2.603  16.725  0.1395 -0.0009 -0.3457
 7721TIP3    H144578   4.821   2.622  16.730 -0.2604 -2.0090  1.3964
 7721TIP3    H244579   4.928   2.566  16.638 -1.0159 -1.0290 -0.1130
 7722TIP3   OH244580   0.785   3.181   5.881  0.6145  0.0796 -0.0125
 7722TIP3    H144581   0.718   3.225   5.828  0.1395  0.4239  0.8513
 7722TIP3    H244582   0.866   3.190   5.831 -0.0356 -0.6117 -1.2180
 7723TIP3   OH244583   0.363   4.849   5.658  0.1473  0.1148 -0.1883
 7723TIP3    H144584   0.373   4.875   5.566  0.8948  0.2215 -0.0877
 7723TIP3    H244585   0.322   4.925   5.700 -0.4359 -0.0368 -0.4886
 7724TIP3   OH244586   2.932   6.104  16.553  0.4095  1.2299  0.3367
 7724TIP3    H144587   2.918   6.167  16.625  0.4359 -0.5862  2.0163
 7724TIP3    H244588   3.026   6.106  16.537  0.3309  2.0599 -0.0716
 7725TIP3   OH244589   4.640   6.317   0.916 -0.6991 -1.0543 -0.3767
 7725TIP3    H144590   4.586   6.393   0.896  0.1234 -0.5451 -0.7378
 7725TIP3    H244591   4.699   6.347   0.985  1.1399 -0.6111 -2.0378
 7726TIP3   OH244592   2.285   1.470   5.335 -0.5343 -0.2458  0.1049
 7726TIP3    H144593   2.192   1.469   5.316 -0.5010  0.5261 -0.1597
 7726TIP3    H244594   2.300   1.555   5.377 -0.0296 -0.5448  0.5456
 7727TIP3   OH244595   0.772   6.328  11.475 -0.1708 -0.5155  0.2647
 7727TIP3    H144596   0.730   6.403  11.516 -0.0288  0.4985 -1.3691
 7727TIP3    H244597   0.765   6.345  11.381 -2.7161 -3.9006 -0.3750
 7728TIP3   OH244598   0.521   2.345   6.603  0.0573 -0.7025  0.1833
 7728TIP3    H144599   0.600   2.335   6.656  1.5740  0.4308 -1.7599
 7728TIP3    H244600   0.551   2.344   6.513 -2.2931 -1.2429 -0.6797
 7729TIP3   OH244601   2.762   0.950  14.296  0.1663  0.2204 -0.0512
 7729TIP3    H144602   2.767   0.888  14.223 -1.2394  2.2577 -2.0393
 7729TIP3    H244603   2.843   0.937  14.345  0.8312 -1.7474 -1.5473
 7730TIP3   OH244604   5.352   2.367   0.198  0.4213 -0.3576 -0.3110
 7730TIP3    H144605   5.298   2.343   0.274 -0.8456 -1.2799 -1.4665
 7730TIP3    H244606   5.440   2.336   0.221 -0.2036 -1.7622  0.2551
 7731TIP3   OH244607   4.824   1.160  12.979 -0.0294 -0.0619  0.6027
 7731TIP3    H144608   4.766   1.088  13.005  2.4512 -3.1215 -1.5581
 7731TIP3    H244609   4.793   1.187  12.893  0.5993 -0.4295  0.2516
 7732TIP3   OH244610   3.022   5.765   2.222 -0.6871  0.1008  0.3792
 7732TIP3    H144611   3.077   5.703   2.175  0.4145  0.9363  0.4972
 7732TIP3    H244612   2.971   5.712   2.283 -0.4327 -0.7563 -0.1419
 7733TIP3   OH244613   5.989   2.718  15.814  0.1131  0.1111 -0.1565
 7733TIP3    H144614   6.013   2.734  15.906  0.2219  1.8172 -0.4393
 7733TIP3    H244615   6.045   2.778  15.764  0.1572 -0.8989 -1.3629
 7734TIP3   OH244616   0.529   6.473  15.842  0.1385 -0.1417 -0.1462
 7734TIP3    H144617   0.586   6.425  15.782 -0.1586 -0.2808 -0.3214
 7734TIP3    H244618   0.462   6.512  15.786  0.8888  1.2350 -0.1025
 7735TIP3   OH244619   1.709   5.646   5.188 -0.4016 -0.1654 -0.4683
 7735TIP3    H144620   1.730   5.640   5.281 -1.0037  0.0769 -0.3146
 7735TIP3    H244621   1.617   5.621   5.182 -1.2093  2.5838 -0.6012
 7736TIP3   OH244622   4.637   1.026   0.536 -0.5776  0.5386 -0.0796
 7736TIP3    H144623   4.711   0.977   0.572  0.3764  1.2258 -1.0631
 7736TIP3    H244624   4.586   1.052   0.613 -0.7322 -1.3548  0.5140
 7737TIP3   OH244625   4.603   4.614  12.738 -0.3076 -0.2372 -0.1903
 7737TIP3    H144626   4.613   4.524  12.708  1.3080  0.2755 -1.3134
 7737TIP3    H244627   4.675   4.628  12.799 -0.2767  0.4289 -0.3675
 7738TIP3   OH244628   2.375   2.672  14.945 -0.3734  0.0547 -0.1779
 7738TIP3    H144629   2.330   2.628  15.017 -0.2061 -2.7642 -1.6205
 7738TIP3    H244630   2.448   2.613  14.923 -0.4192  0.7751 -2.5910
 7739TIP3   OH244631   0.795   0.472  11.508 -0.2226  0.0771  0.0179
 7739TIP3    H144632   0.840   0.389  11.493  0.4522  0.6831 -1.5452
 7739TIP3    H244633   0.832   0.505  11.589  0.5848 -0.4542 -0.1218
 7740TIP3   OH244634   5.876   6.225  16.947 -0.2458  0.1805 -0.3931
 7740TIP3    H144635   5.823   6.150  16.970  1.8212 -1.5859 -1.0607
 7740TIP3    H244636   5.948   6.190  16.895  2.6837  2.0081  1.9955
 7741TIP3   OH244637   4.583   1.380   3.299  0.6807  0.3213 -0.4417
 7741TIP3    H144638   4.630   1.301   3.276 -0.3456 -0.1295 -1.0707
 7741TIP3    H244639   4.507   1.349   3.350 -0.1824  0.8052 -1.3980
 7742TIP3   OH244640   6.693   3.698  10.884  0.5519 -0.6309  0.2701
 7742TIP3    H144641   6.615   3.699  10.829 -0.3457  0.6006  1.4975
 7742TIP3    H244642   6.706   3.789  10.908  0.9232 -1.1154  2.0399
 7743TIP3   OH244643   2.622   3.135   0.697 -0.4841 -0.0214 -0.7839
 7743TIP3    H144644   2.588   3.222   0.679 -0.1567  0.6043  1.3603
 7743TIP3    H244645   2.706   3.151   0.741  0.4568 -1.4626 -1.9479
 7744TIP3   OH244646   2.134   1.616  14.085 -0.0081 -0.3903 -0.4311
 7744TIP3    H144647   2.094   1.588  14.167 -0.0914  0.4629 -0.1701
 7744TIP3    H244648   2.200   1.549  14.066 -1.0453 -1.4315 -0.4911
 7745TIP3   OH244649   0.473   6.086   5.466  0.0710  0.4131 -0.0725
 7745TIP3    H144650   0.500   6.046   5.383 -1.8688 -3.1872  0.8330
 7745TIP3    H244651   0.388   6.125   5.446  1.4852  3.5466 -0.6765
 7746TIP3   OH244652   2.842   1.394  15.546 -0.0819  0.3615  0.5259
 7746TIP3    H144653   2.878   1.440  15.470 -0.8951 -0.0151 -0.1099
 7746TIP3    H244654   2.908   1.405  15.614  1.4400 -0.6494 -0.7045
 7747TIP3   OH244655   5.780   3.106  10.697  0.4990 -0.0951  0.1137
 7747TIP3    H144656   5.867   3.082  10.730  0.6481 -0.1081 -0.2842
 7747TIP3    H244657   5.763   3.192  10.737  0.5510 -0.2444  0.4574
 7748TIP3   OH244658   4.142   5.922  17.128  0.0808 -0.0572 -0.0487
 7748TIP3    H144659   4.157   5.941  17.036 -0.6125  0.8119  0.0059
 7748TIP3    H244660   4.209   5.974  17.174  0.1031 -0.0992 -0.0332
 7749TIP3   OH244661   6.149   5.332   0.516 -0.3783  0.1277 -0.1273
 7749TIP3    H144662   6.059   5.338   0.548 -0.3020 -0.6700  0.2396
 7749TIP3    H244663   6.201   5.304   0.591 -0.2102 -1.8246 -0.8988
 7750TIP3   OH244664   1.057   6.605  16.114  0.0578 -0.1894  0.2937
 7750TIP3    H144665   1.145   6.570  16.101  0.6899  1.4479 -0.1929
 7750TIP3    H244666   1.047   6.611  16.209 -0.0655 -1.6140  0.3840
 7751TIP3   OH244667   3.340   3.021  17.003  0.0308 -0.1414  0.0366
 7751TIP3    H144668   3.273   3.006  16.937 -0.0276  0.0376  0.0549
 7751TIP3    H244669   3.351   2.936  17.046 -0.0695 -0.2095 -0.0720
 7752TIP3   OH244670   2.499   4.729  11.933  0.6865 -0.2143  0.2496
 7752TIP3    H144671   2.468   4.672  11.863  0.9502 -1.0839  0.8239
 7752TIP3    H244672   2.444   4.707  12.008  0.5197  0.5848  0.3730
 7753TIP3   OH244673   1.306   3.322   3.778  0.2383 -0.3905  0.3459
 7753TIP3    H144674   1.240   3.388   3.757 -0.3035 -0.5462  1.5145
 7753TIP3    H244675   1.255   3.242   3.793  0.6237 -0.3988  1.7482
 7754TIP3   OH244676   4.519   5.294  12.101  0.3402 -0.3339  0.8896
 7754TIP3    H144677   4.581   5.234  12.060  1.8323  2.4950 -1.3937
 7754TIP3    H244678   4.445   5.299  12.041  1.5676  2.2048 -0.5658
 7755TIP3   OH244679   3.003   0.061  16.815  0.3397  0.0548  0.1813
 7755TIP3    H144680   2.968   0.133  16.763 -0.6279  0.4128  1.2973
 7755TIP3    H244681   3.058   0.103  16.881 -0.6453 -0.1547  1.1657
 7756TIP3   OH244682   1.830   1.143  13.048 -0.2440 -0.4586  0.7341
 7756TIP3    H144683   1.841   1.218  13.106 -0.4978  0.7642 -0.7338
 7756TIP3    H244684   1.753   1.098  13.081 -1.4269  1.2039  0.3687
 7757TIP3   OH244685   0.915   0.024  16.551 -0.5836  0.0863 -0.1992
 7757TIP3    H144686   0.853   0.093  16.526 -1.8318 -1.3194 -1.0826
 7757TIP3    H244687   0.923   0.034  16.646 -0.2781  1.7965 -0.3636
 7758TIP3   OH244688   3.990   5.264  15.761 -0.2233  0.0285  0.0991
 7758TIP3    H144689   3.928   5.202  15.800 -0.4608  0.6664  0.7648
 7758TIP3    H244690   4.068   5.211  15.744 -1.8735 -1.5489 -3.6086
 7759TIP3   OH244691   6.604   5.364   2.972  0.0414  0.0533  0.0180
 7759TIP3    H144692   6.509   5.365   2.965 -0.0440 -0.6368  0.9312
 7759TIP3    H244693   6.629   5.455   2.984 -0.3376  0.4709 -1.9353
 7760TIP3   OH244694   6.529   5.884   4.881  0.1209 -0.7941  0.4267
 7760TIP3    H144695   6.576   5.922   4.955 -1.0216  0.3937  0.5882
 7760TIP3    H244696   6.597   5.867   4.815  0.7215  1.8022  0.2704
 7761TIP3   OH244697   4.427   4.885  15.666  0.3334 -0.4335  0.6573
 7761TIP3    H144698   4.438   4.934  15.585  0.3385 -3.1322 -1.1167
 7761TIP3    H244699   4.516   4.859  15.690  0.1850 -0.9505  0.6527
 7762TIP3   OH244700   2.031   3.513  15.749  0.1636 -0.0552 -0.6030
 7762TIP3    H144701   1.959   3.553  15.701  0.8268  0.9375 -0.7931
 7762TIP3    H244702   2.108   3.563  15.724  0.5692  0.3576  1.3174
 7763TIP3   OH244703   0.121   6.119   4.435 -0.4074 -0.0025 -0.1962
 7763TIP3    H144704   0.053   6.090   4.496 -1.0023  0.0157 -0.8229
 7763TIP3    H244705   0.124   6.214   4.445 -1.6277  0.1898 -1.2767
 7764TIP3   OH244706   0.671   2.962  16.568 -0.2935  0.0173  0.3536
 7764TIP3    H144707   0.607   2.929  16.631 -1.1790 -0.2981 -0.6818
 7764TIP3    H244708   0.743   2.899  16.573 -0.7112 -0.4598  0.4723
 7765TIP3   OH244709   5.120   0.371   3.876  0.2160  0.0585  0.3478
 7765TIP3    H144710   5.063   0.320   3.933 -0.2826  1.3926  1.0788
 7765TIP3    H244711   5.203   0.378   3.923  1.0656 -1.9056 -0.7274
 7766TIP3   OH244712   1.597   1.175  11.061 -0.0052  0.6235  0.0252
 7766TIP3    H144713   1.659   1.102  11.064 -1.3119 -0.5396  0.0617
 7766TIP3    H244714   1.567   1.185  11.151 -0.7432  0.3710 -0.1839
 7767TIP3   OH244715   4.711   6.059  13.448  0.1356  0.2945  0.3458
 7767TIP3    H144716   4.800   6.022  13.450  0.0820  0.1767  0.6427
 7767TIP3    H244717   4.724   6.153  13.443  0.3042  0.4120  2.2204
 7768TIP3   OH244718   4.764   3.079  17.080 -0.0160 -0.1037 -0.0429
 7768TIP3    H144719   4.821   3.124  17.018 -0.1868  1.4722  0.8926
 7768TIP3    H244720   4.708   3.148  17.116  0.4038 -0.8536  2.2096
 7769TIP3   OH244721   3.293   3.339  12.348 -0.1952 -0.0492 -0.5565
 7769TIP3    H144722   3.218   3.280  12.354  0.5677 -0.8834  2.9793
 7769TIP3    H244723   3.369   3.282  12.362  0.6596  1.4736  1.5364
 7770TIP3   OH244724   1.178   1.736  15.782 -0.4684  0.3283 -0.4671
 7770TIP3    H144725   1.194   1.828  15.757 -0.4207  0.4811  0.1253
 7770TIP3    H244726   1.170   1.691  15.698  0.7865  0.6534 -0.7999
 7771TIP3   OH244727   5.115   3.283   2.454  0.4542 -0.2723  0.1639
 7771TIP3    H144728   5.110   3.266   2.360 -0.4611  1.0554 -0.0495
 7771TIP3    H244729   5.046   3.229   2.492 -1.0004  1.1985 -0.2658
 7772TIP3   OH244730   3.363   4.062   0.507 -0.3210 -0.1146 -0.2976
 7772TIP3    H144731   3.281   4.070   0.459 -0.4042  1.1409  0.0299
 7772TIP3    H244732   3.360   4.131   0.573  0.1095 -1.3450  1.0638
 7773TIP3   OH244733   4.655   1.355   3.970 -0.1597 -0.7608 -1.0599
 7773TIP3    H144734   4.560   1.362   3.963 -0.0334  0.3955 -1.7937
 7773TIP3    H244735   4.671   1.260   3.974 -1.7825 -1.3276  6.1524
 7774TIP3   OH244736   3.223   1.636   6.010 -0.4790  0.1608  0.1826
 7774TIP3    H144737   3.208   1.568   6.076  0.9245 -0.7202 -0.3600
 7774TIP3    H244738   3.295   1.688   6.045 -0.5619  0.4544 -0.0832
 7775TIP3   OH244739   0.127   0.853  14.861  0.4669  0.4833  0.4670
 7775TIP3    H144740   0.136   0.824  14.770 -0.1291  3.9826 -0.8593
 7775TIP3    H244741   0.216   0.848  14.896  0.9649  0.4172 -0.7567
 7776TIP3   OH244742   4.744   5.262  14.736 -0.1540  0.5095 -0.3779
 7776TIP3    H144743   4.704   5.185  14.695  0.5402  0.1222 -0.3511
 7776TIP3    H244744   4.835   5.235  14.753  1.2183  2.4890 -3.6747
 7777TIP3   OH244745   4.417   4.920   3.478  0.2383  0.0585  0.2093
 7777TIP3    H144746   4.493   4.887   3.429  0.1131  1.4255 -0.9454
 7777TIP3    H244747   4.343   4.908   3.418  0.0323  1.4641  0.1592
 7778TIP3   OH244748   5.997   1.274  14.473 -0.2721 -0.6083  0.2023
 7778TIP3    H144749   6.026   1.363  14.454 -0.2059 -0.8805 -1.0407
 7778TIP3    H244750   5.956   1.280  14.559  0.5163  0.4475  0.5267
 7779TIP3   OH244751   2.191   5.053   5.198  0.3391  0.9248 -0.0287
 7779TIP3    H144752   2.101   5.065   5.166 -0.8389 -0.7500  2.3031
 7779TIP3    H244753   2.221   4.974   5.155 -0.2421  0.1633  0.9179
 7780TIP3   OH244754   6.704   6.288   2.339  0.4644 -0.1552 -0.2926
 7780TIP3    H144755   6.612   6.315   2.335  0.2122 -1.1631 -1.9686
 7780TIP3    H244756   6.743   6.321   2.258  1.0752 -1.4846 -0.5632
 7781TIP3   OH244757   4.974   1.390  13.457  0.1194 -0.5292 -0.5109
 7781TIP3    H144758   4.888   1.382  13.415 -1.3764 -1.5253  2.4464
 7781TIP3    H244759   5.002   1.299  13.470 -0.3318 -0.3713  2.0582
 7782TIP3   OH244760   4.338   4.106  15.117  0.0068  0.5361  0.6244
 7782TIP3    H144761   4.393   4.091  15.040 -0.1764  2.3501  0.1037
 7782TIP3    H244762   4.396   4.149  15.180 -0.1034 -0.0777  1.1658
 7783TIP3   OH244763   1.981   5.016  13.548 -0.2140 -0.3310  0.4109
 7783TIP3    H144764   1.952   5.054  13.465  0.2200  1.6216  1.0987
 7783TIP3    H244765   1.917   4.948  13.567 -2.6030  1.7418  0.3404
 7784TIP3   OH244766   3.863   2.231   4.234 -0.2672 -0.1860  0.2560
 7784TIP3    H144767   3.917   2.153   4.225  1.1598  0.7371  0.5371
 7784TIP3    H244768   3.827   2.225   4.323  0.7737  0.0435  0.7028
 7785TIP3   OH244769   5.770   5.819   2.769  0.1494 -0.6472  0.4355
 7785TIP3    H144770   5.679   5.790   2.758 -0.4651  0.7521  1.6308
 7785TIP3    H244771   5.802   5.831   2.679  0.1031 -3.8141 -0.1332
 7786TIP3   OH244772   0.412   3.523   3.243  0.1160  0.6197 -0.1605
 7786TIP3    H144773   0.468   3.531   3.166 -0.9841  0.4148 -1.0180
 7786TIP3    H244774   0.468   3.548   3.316  0.9752  1.5947 -1.1080
 7787TIP3   OH244775   6.246   1.980   0.049  1.0964  0.1165  0.0797
 7787TIP3    H144776   6.263   2.066   0.089 -1.5522  0.8372 -0.1375
 7787TIP3    H244777   6.233   1.922   0.124  3.6650 -0.3605  0.2423
 7788TIP3   OH244778   3.845   4.652   2.621  0.5707  0.0568  0.1479
 7788TIP3    H144779   3.918   4.680   2.675  1.1740  0.0770 -0.6587
 7788TIP3    H244780   3.816   4.731   2.576 -0.2638  0.1465  0.8071
 7789TIP3   OH244781   2.852   4.574   3.605 -0.0873  0.0296 -0.7270
 7789TIP3    H144782   2.875   4.492   3.560 -0.6265 -0.2243 -0.5480
 7789TIP3    H244783   2.816   4.546   3.689  1.2414  0.5141  0.0337
 7790TIP3   OH244784   1.309   4.550  10.979 -0.0481 -0.1698 -0.2415
 7790TIP3    H144785   1.224   4.588  10.956 -0.1052 -1.2248 -1.9802
 7790TIP3    H244786   1.373   4.609  10.939 -0.0624 -0.5483 -0.8465
 7791TIP3   OH244787   2.279   3.325   5.724 -0.0928 -0.0683 -0.3625
 7791TIP3    H144788   2.304   3.414   5.750  0.9359 -0.9889  2.0029
 7791TIP3    H244789   2.322   3.313   5.639 -0.6071  1.8156 -0.9462
 7792TIP3   OH244790   1.581   1.904  12.896 -0.4403 -0.3080 -0.1677
 7792TIP3    H144791   1.527   1.869  12.825 -1.0200  0.0041  0.1106
 7792TIP3    H244792   1.564   1.846  12.970 -1.5686  0.6398  0.3592
 7793TIP3   OH244793   6.089   3.723   6.801 -0.4085  0.5345 -0.0055
 7793TIP3    H144794   6.161   3.663   6.820 -1.0288 -0.3449 -0.3342
 7793TIP3    H244795   6.080   3.775   6.881 -1.9911 -2.0849  1.6698
 7794TIP3   OH244796   4.142   2.030   0.327 -0.1554 -0.3954 -0.0076
 7794TIP3    H144797   4.203   1.967   0.289  0.6552  0.0443  0.5417
 7794TIP3    H244798   4.156   2.111   0.279 -1.4971 -0.7137 -1.0001
 7795TIP3   OH244799   4.280   6.278  15.363 -0.6720  0.4335  0.7318
 7795TIP3    H144800   4.233   6.195  15.370  1.0613 -0.4753  3.7719
 7795TIP3    H244801   4.213   6.345  15.378 -1.8792 -0.4533 -0.5041
 7796TIP3   OH244802   0.426   2.060  16.398 -0.5124  0.9748  0.0364
 7796TIP3    H144803   0.373   2.107  16.462 -0.0708 -1.1970  2.1515
 7796TIP3    H244804   0.366   1.994  16.361  0.0555  0.0634  0.6940
 7797TIP3   OH244805   4.039   6.170   4.449 -0.1322  0.1622 -0.0975
 7797TIP3    H144806   3.983   6.133   4.381 -0.4852  2.2596 -1.0078
 7797TIP3    H244807   3.995   6.250   4.476 -0.4952 -1.0277  3.3370
 7798TIP3   OH244808   6.704   5.876  13.932  0.2889  0.0236 -0.5931
 7798TIP3    H144809   6.699   5.797  13.985  2.0954  0.2234 -0.0586
 7798TIP3    H244810   6.632   5.867  13.869 -0.6356 -1.1828  0.5667
 7799TIP3   OH244811   6.099   3.368   2.881 -0.5378 -0.3300 -0.2441
 7799TIP3    H144812   6.100   3.458   2.911 -3.4964  0.3197 -1.6766
 7799TIP3    H244813   6.124   3.316   2.957 -0.3838  1.6068  1.0739
 7800TIP3   OH244814   0.385   3.028   0.176 -0.2418  0.1012  0.4725
 7800TIP3    H144815   0.477   3.053   0.178 -0.0365 -0.5638 -0.2896
 7800TIP3    H244816   0.378   2.954   0.236 -0.0298 -0.6257 -0.3837
 7801TIP3   OH244817   2.072   6.161   0.392 -0.1411 -0.2219 -0.2823
 7801TIP3    H144818   2.101   6.233   0.336 -0.9257 -0.6509 -1.2872
 7801TIP3    H244819   1.989   6.132   0.353 -0.5345 -0.7686  0.9145
 7802TIP3   OH244820   0.822   5.043  16.360  0.4775  0.3275  0.4872
 7802TIP3    H144821   0.731   5.014  16.369  0.6210  0.4743  3.2090
 7802TIP3    H244822   0.830   5.116  16.421  2.2948  0.6798 -0.1219
 7803TIP3   OH244823   3.136   4.929  15.374  0.1135  0.1637 -0.1565
 7803TIP3    H144824   3.227   4.908  15.394 -0.4939 -3.1203 -0.3257
 7803TIP3    H244825   3.129   4.919  15.279 -0.0439  2.3873 -0.4331
 7804TIP3   OH244826   3.275   3.175  13.137 -0.2672  0.5342  0.1949
 7804TIP3    H144827   3.292   3.266  13.112  0.5007 -0.0610 -1.5825
 7804TIP3    H244828   3.273   3.127  13.054  0.2462 -1.2214  1.1533
 7805TIP3   OH244829   1.323   5.513  11.798 -0.2561  0.0380  0.3417
 7805TIP3    H144830   1.268   5.456  11.744  0.1782  0.7382 -0.8860
 7805TIP3    H244831   1.269   5.533  11.875 -0.4965 -1.8227  0.6903
 7806TIP3   OH244832   5.784   2.504   3.965  0.5628 -0.6346  0.1816
 7806TIP3    H144833   5.707   2.552   3.935  0.2317 -1.9098 -1.1495
 7806TIP3    H244834   5.753   2.414   3.977  1.9584 -1.3480 -1.1203
 7807TIP3   OH244835   3.582   5.925   3.892  0.3668  0.1378  0.0664
 7807TIP3    H144836   3.490   5.910   3.912  0.0395  0.4381 -1.1293
 7807TIP3    H244837   3.593   6.020   3.899  0.7017  0.0530  0.6830
 7808TIP3   OH244838   2.588   5.303  11.015 -0.5485 -0.3058  0.5315
 7808TIP3    H144839   2.617   5.378  11.067  0.1408  0.6445 -1.1205
 7808TIP3    H244840   2.524   5.341  10.954  1.7467 -0.4390 -2.1211
 7809TIP3   OH244841   0.795   4.824  14.546  0.4767 -0.3781 -0.1477
 7809TIP3    H144842   0.749   4.905  14.567  1.4301  0.5580 -1.4847
 7809TIP3    H244843   0.726   4.760  14.532 -0.2895 -0.5412  3.3350
 7810TIP3   OH244844   6.116   0.438  13.026 -0.0059 -0.5470 -0.4128
 7810TIP3    H144845   6.049   0.437  12.957 -2.0981  2.0127  1.3837
 7810TIP3    H244846   6.196   0.464  12.981 -0.5192 -2.0627 -2.3625
 7811TIP3   OH244847   2.917   2.367   4.447 -0.0519  0.6047 -0.8131
 7811TIP3    H144848   2.927   2.348   4.354 -1.6831 -0.4717 -0.8160
 7811TIP3    H244849   2.999   2.338   4.487 -0.3104 -1.3276 -1.6000
 7812TIP3   OH244850   1.656   3.668  10.720  0.3755 -0.1527 -0.3829
 7812TIP3    H144851   1.625   3.680  10.810 -1.9113  0.6683 -1.2137
 7812TIP3    H244852   1.653   3.573  10.706 -2.0395 -0.1334 -0.4327
 7813TIP3   OH244853   0.163   3.213   2.185  0.3123 -0.7456  0.1857
 7813TIP3    H144854   0.126   3.161   2.257 -0.6568 -0.6372 -0.2112
 7813TIP3    H244855   0.132   3.302   2.202  0.6260 -0.5992 -0.0116
 7814TIP3   OH244856   0.739   0.123  11.992 -0.0138  0.1254  0.1966
 7814TIP3    H144857   0.768   0.165  12.073  0.8074 -0.7515  0.3755
 7814TIP3    H244858   0.791   0.167  11.923  0.3335 -0.1093  0.3059
 7815TIP3   OH244859   3.692   3.945   1.928  0.2164  0.4922  0.6836
 7815TIP3    H144860   3.745   3.971   2.003  0.2412 -1.3782  1.3605
 7815TIP3    H244861   3.604   3.933   1.964 -0.1495  1.2029  0.0598
 7816TIP3   OH244862   0.311   2.476   2.662  0.2177 -0.5928 -0.3540
 7816TIP3    H144863   0.315   2.386   2.632  1.9943 -1.4905  2.2640
 7816TIP3    H244864   0.316   2.471   2.757  2.4391  2.3003 -0.1543
 7817TIP3   OH244865   1.540   0.339   1.454 -0.1075 -0.1678 -0.5232
 7817TIP3    H144866   1.560   0.335   1.548  0.1669  0.1517 -0.5654
 7817TIP3    H244867   1.571   0.426   1.427 -1.1526  0.1718 -0.6846
 7818TIP3   OH244868   4.267   3.285  11.224 -0.5273 -0.4268  0.0848
 7818TIP3    H144869   4.356   3.288  11.188 -0.7851 -2.2179 -0.8283
 7818TIP3    H244870   4.276   3.316  11.314  0.9559 -0.2269 -0.1105
 7819TIP3   OH244871   6.643   0.055  11.708  0.5291 -0.1325  0.0324
 7819TIP3    H144872   6.684  -0.023  11.745  0.7537 -0.3923 -0.7412
 7819TIP3    H244873   6.691   0.072  11.627 -1.0164 -0.5939 -1.0425
 7820TIP3   OH244874   6.169   5.700  12.448  0.2647  0.1341 -0.1091
 7820TIP3    H144875   6.181   5.712  12.542  1.4752 -0.0764 -0.2144
 7820TIP3    H244876   6.218   5.619  12.428 -0.2933 -0.0289 -0.8500
 7821TIP3   OH244877   2.396   1.913  16.072  0.0899  0.3818 -0.0907
 7821TIP3    H144878   2.370   1.831  16.030  0.4215  0.1940  0.0647
 7821TIP3    H244879   2.449   1.886  16.147  0.1226  0.7352  0.0170
 7822TIP3   OH244880   6.196   0.500  14.892 -0.2874  0.0499 -0.1664
 7822TIP3    H144881   6.253   0.460  14.827 -0.2386  0.4543 -0.3785
 7822TIP3    H244882   6.148   0.567  14.843  0.2190  0.8050  0.3473
 7823TIP3   OH244883   1.258   2.721   0.246 -0.4736 -0.2830  0.1986
 7823TIP3    H144884   1.252   2.809   0.208  1.3330  0.2612  1.0342
 7823TIP3    H244885   1.298   2.668   0.176  0.2760  0.0549  0.3586
 7824TIP3   OH244886   4.340   1.935  16.840  0.8185  0.3600  0.7713
 7824TIP3    H144887   4.423   1.902  16.806  1.5717  1.0467  1.8451
 7824TIP3    H244888   4.315   2.004  16.779  0.8542 -0.0812  0.2510
 7825TIP3   OH244889   2.644   6.235  14.492 -0.0655 -0.0282 -0.7864
 7825TIP3    H144890   2.687   6.157  14.526 -0.1799  0.9640  1.8292
 7825TIP3    H244891   2.551   6.218  14.502 -0.0822  0.6009  0.2530
 7826TIP3   OH244892   0.772   3.576   1.608  0.0346  0.4715  0.0045
 7826TIP3    H144893   0.701   3.632   1.576 -0.1024 -0.9183 -2.3570
 7826TIP3    H244894   0.733   3.525   1.678 -2.2057 -1.9873 -2.7709
 7827TIP3   OH244895   2.716   0.820  16.764  0.3679  0.3286  0.0823
 7827TIP3    H144896   2.717   0.781  16.851 -1.5349  0.3522  0.1636
 7827TIP3    H244897   2.808   0.839  16.745  0.7594  1.4293  2.5724
 7828TIP3   OH244898   6.073   2.714   4.121 -0.5244 -0.0707 -0.0309
 7828TIP3    H144899   6.135   2.784   4.102 -2.7304  2.0069  0.0794
 7828TIP3    H244900   6.118   2.660   4.187  1.1002  1.4212  0.1572
 7829TIP3   OH244901   6.594   1.158  16.737 -0.1706 -0.3631 -0.0431
 7829TIP3    H144902   6.603   1.208  16.818 -1.8553  3.3304 -1.8669
 7829TIP3    H244903   6.683   1.153  16.703  0.1933  0.7058  0.6668
 7830TIP3   OH244904   5.211   6.638   3.413 -0.2126  0.4925 -0.5651
 7830TIP3    H144905   5.191   6.713   3.469 -0.2680  1.2526 -1.5768
 7830TIP3    H244906   5.128   6.591   3.406 -0.0847  0.0907  0.3951
 7831TIP3   OH244907   1.747   1.982  14.898  0.6785  0.2279 -0.3127
 7831TIP3    H144908   1.725   1.906  14.951  1.3182 -0.1446 -0.5691
 7831TIP3    H244909   1.833   2.010  14.930  0.8495  0.2920 -0.8172
 7832TIP3   OH244910   4.360   3.021  15.297  0.0018 -0.2737  0.2506
 7832TIP3    H144911   4.379   3.025  15.204  1.1223 -1.9322  0.3572
 7832TIP3    H244912   4.344   3.112  15.323  1.6772  0.4691 -1.1576
 7833TIP3   OH244913   1.497   2.107  17.339  0.1717 -0.4208  0.0867
 7833TIP3    H144914   1.416   2.139  17.301  1.2069 -0.6288 -2.4611
 7833TIP3    H244915   1.471   2.074  17.425 -2.0935  1.1003  0.0915
 7834TIP3   OH244916   6.114   0.307   2.987  0.0433 -0.1074 -0.1160
 7834TIP3    H144917   6.117   0.318   2.891  0.2195  0.4711 -0.0488
 7834TIP3    H244918   6.059   0.379   3.017  0.3865  0.0012  0.2591
 7835TIP3   OH244919   0.708   5.402  15.669  0.1911 -0.0955 -0.2331
 7835TIP3    H144920   0.626   5.451  15.662  1.2821  1.8522 -0.2727
 7835TIP3    H244921   0.776   5.466  15.644  1.8177 -1.3007  0.8937
 7836TIP3   OH244922   3.144   1.184   3.740  0.2298 -0.5182  0.2790
 7836TIP3    H144923   3.116   1.131   3.815  0.2906  0.8686  1.3185
 7836TIP3    H244924   3.238   1.166   3.732 -0.1098 -2.0361 -0.6242
 7837TIP3   OH244925   2.059   2.808  15.071  0.3000  0.2201  0.4850
 7837TIP3    H144926   1.989   2.874  15.073  0.7581  0.7631 -0.3814
 7837TIP3    H244927   2.034   2.750  14.999  0.1580 -0.2679  0.9238
 7838TIP3   OH244928   5.256   2.324  10.897  0.1579  0.5204  0.1167
 7838TIP3    H144929   5.170   2.286  10.881  0.2014 -0.0515  1.1520
 7838TIP3    H244930   5.316   2.250  10.894  0.1352  0.2560  3.0237
 7839TIP3   OH244931   2.628   6.637  13.281 -0.1404  0.0244 -0.1178
 7839TIP3    H144932   2.635   6.728  13.310 -1.0300  0.7011 -1.8885
 7839TIP3    H244933   2.711   6.620  13.237 -0.9647  0.8912 -2.1006
 7840TIP3   OH244934   6.563   5.986  16.187  0.5738 -0.2211  0.4424
 7840TIP3    H144935   6.558   5.992  16.091 -0.5681 -1.2794  0.4114
 7840TIP3    H244936   6.655   5.969  16.206  0.8952  0.4746 -0.4324
 7841TIP3   OH244937   1.771   3.432  17.132  0.2823  0.5878  0.5369
 7841TIP3    H144938   1.700   3.369  17.145 -0.3793  1.3219  0.5486
 7841TIP3    H244939   1.846   3.378  17.109  0.0364 -0.3042  1.7075
 7842TIP3   OH244940   2.112   0.765   0.818  0.6960  0.6395  0.0206
 7842TIP3    H144941   2.020   0.776   0.794  0.2801 -1.5485  0.3708
 7842TIP3    H244942   2.117   0.794   0.909  0.0887 -0.2692  0.3542
 7843TIP3   OH244943   3.167   5.626   2.040  0.0647  0.5777  0.1813
 7843TIP3    H144944   3.217   5.679   1.978  0.6205 -1.2139 -0.9754
 7843TIP3    H244945   3.165   5.538   2.001 -0.8438 -0.2635  1.9941
 7844TIP3   OH244946   2.069   4.068   2.712  0.1511  0.2607 -0.4648
 7844TIP3    H144947   2.116   4.011   2.651 -0.1402  1.3597 -1.7805
 7844TIP3    H244948   2.104   4.045   2.798  0.6873 -1.2412 -1.0516
 7845TIP3   OH244949   4.073   3.374   5.629 -0.0545 -0.0507 -0.6268
 7845TIP3    H144950   3.979   3.389   5.637  0.3769  3.4881 -0.9018
 7845TIP3    H244951   4.097   3.416   5.547  1.7607 -1.2610 -0.7791
 7846TIP3   OH244952   3.932   4.406  15.430  0.3394 -0.0876  0.1331
 7846TIP3    H144953   3.870   4.449  15.489  0.1684 -0.3207  0.1219
 7846TIP3    H244954   4.018   4.419  15.472  0.4195  1.1108 -0.3535
 7847TIP3   OH244955   2.917   3.683  13.825  0.3729 -0.2302  0.4328
 7847TIP3    H144956   2.952   3.642  13.746  0.7673 -1.5856  1.2661
 7847TIP3    H244957   2.840   3.631  13.847 -0.2399  0.6703  0.4814
 7848TIP3   OH244958   3.571   2.103   4.244 -0.2867  0.1726 -0.5193
 7848TIP3    H144959   3.489   2.116   4.291 -0.4112 -0.5150 -0.5380
 7848TIP3    H244960   3.634   2.160   4.289 -0.8232  0.8802 -0.6511
 7849TIP3   OH244961   1.383   1.816   3.012  0.2034 -0.7133  0.6706
 7849TIP3    H144962   1.402   1.756   2.939  1.6851 -0.8935  1.1613
 7849TIP3    H244963   1.457   1.876   3.012 -0.4003  0.0430  1.2807
 7850TIP3   OH244964   5.498   6.095   3.250 -0.5182 -0.2568  0.3963
 7850TIP3    H144965   5.497   6.126   3.340  0.7257 -1.7843  0.9864
 7850TIP3    H244966   5.566   6.028   3.248  0.4648  0.6739 -2.0179
 7851TIP3   OH244967   2.558   4.215  13.949 -0.5533  0.1078 -0.4080
 7851TIP3    H144968   2.464   4.206  13.966 -0.5275  1.3042  0.4557
 7851TIP3    H244969   2.599   4.208  14.035 -0.0206  1.5599 -0.5232
 7852TIP3   OH244970   2.202   1.809   4.675 -0.4294  0.7820 -0.2854
 7852TIP3    H144971   2.258   1.885   4.689  1.2245 -0.6129  1.3064
 7852TIP3    H244972   2.196   1.799   4.580  1.8810  1.1266 -0.5122
 7853TIP3   OH244973   5.247   2.930  14.473  0.0420  0.0265  0.0438
 7853TIP3    H144974   5.343   2.936  14.472  0.2073 -1.8869  1.1242
 7853TIP3    H244975   5.219   3.009  14.519  0.8525  2.2108 -2.8549
 7854TIP3   OH244976   2.277   0.395  15.099 -0.2556 -0.0985  0.1042
 7854TIP3    H144977   2.247   0.371  15.011 -1.5070 -2.0781  0.9671
 7854TIP3    H244978   2.196   0.405  15.150  0.4489  0.3921  1.1777
 7855TIP3   OH244979   4.016   4.326  13.231 -0.3689 -0.2331 -0.1325
 7855TIP3    H144980   4.094   4.356  13.278 -0.5007  0.7491 -0.5220
 7855TIP3    H244981   3.949   4.317  13.298 -0.2396  0.0416  0.0331
 7856TIP3   OH244982   3.920   6.522   2.253 -0.3048  0.2586  0.2017
 7856TIP3    H144983   3.957   6.599   2.297  1.5720 -0.4697 -0.0167
 7856TIP3    H244984   3.957   6.447   2.300 -0.3766 -0.5114 -0.9357
 7857TIP3   OH244985   0.603   6.327   5.557  0.7355 -0.1050  0.0955
 7857TIP3    H144986   0.555   6.257   5.514  0.4218  1.3055 -1.9852
 7857TIP3    H244987   0.692   6.321   5.522  1.2106 -0.5851  1.3325
 7858TIP3   OH244988   0.513   5.322   1.709 -0.2394 -0.4283  0.0623
 7858TIP3    H144989   0.604   5.305   1.733 -0.6279  0.5969  2.6710
 7858TIP3    H244990   0.462   5.268   1.771 -1.3626  2.0334  1.4114
 7859TIP3   OH244991   5.077   1.100  12.634 -0.4890 -0.0258 -0.5944
 7859TIP3    H144992   5.143   1.165  12.611  0.8490 -1.1479 -0.1243
 7859TIP3    H244993   5.053   1.060  12.551  0.7052 -0.7438 -0.6273
 7860TIP3   OH244994   0.669   3.506  15.930  0.2556 -0.0939  0.4510
 7860TIP3    H144995   0.654   3.598  15.954 -1.8652 -0.5118  0.9514
 7860TIP3    H244996   0.707   3.511  15.842 -1.5563  1.2776 -0.3331
 7861TIP3   OH244997   2.576   3.431   4.537 -0.2024 -0.1128  0.2275
 7861TIP3    H144998   2.566   3.516   4.579 -0.5498 -0.1000  0.1286
 7861TIP3    H244999   2.526   3.439   4.455 -0.5349 -0.5207  0.3841
 7862TIP3   OH245000   2.434   2.639  14.346  0.7488  0.3080 -0.3558
 7862TIP3    H145001   2.391   2.706  14.292  2.1273 -0.0328 -1.9715
 7862TIP3    H245002   2.480   2.689  14.414 -0.6735  0.7738  0.3116
 7863TIP3   OH245003   1.800   0.654  12.337 -0.2001 -0.5665  0.3760
 7863TIP3    H145004   1.711   0.689  12.341  0.0981  0.2517  0.1792
 7863TIP3    H245005   1.790   0.560  12.350 -1.0982 -0.4932  0.2667
 7864TIP3   OH245006   1.268   5.641   3.073 -0.0436  0.7725 -0.0947
 7864TIP3    H145007   1.309   5.726   3.056  0.4539  0.8707  1.4751
 7864TIP3    H245008   1.180   5.663   3.106  0.3548  0.7265  1.0398
 7865TIP3   OH245009   5.897   5.481   5.593  0.4833 -0.8820  0.0734
 7865TIP3    H145010   5.802   5.472   5.581 -0.0843  1.0680  2.3756
 7865TIP3    H245011   5.916   5.425   5.668  0.5052  1.0798  1.6193
 7866TIP3   OH245012   6.404   5.322   0.183  0.1467  0.4323  0.4014
 7866TIP3    H145013   6.439   5.250   0.235 -1.0879 -0.1525  0.4738
 7866TIP3    H245014   6.438   5.307   0.095 -2.5258 -2.1093 -0.3435
 7867TIP3   OH245015   6.143   1.054   4.418  0.6705 -0.3400  0.1010
 7867TIP3    H145016   6.221   1.027   4.467 -0.2733  0.6828  2.2680
 7867TIP3    H245017   6.160   1.145   4.395  1.1198 -0.8205 -1.6030
 7868TIP3   OH245018   0.950   3.667  14.011  0.1182  0.0160 -0.2836
 7868TIP3    H145019   0.966   3.580  14.048 -0.3085  0.6264  1.3885
 7868TIP3    H245020   1.035   3.711  14.014 -0.0553  0.2925  0.5888
 7869TIP3   OH245021   1.348   5.017   3.186  0.1445 -0.3358 -0.2467
 7869TIP3    H145022   1.383   4.942   3.138 -0.4139  0.7973 -2.6027
 7869TIP3    H245023   1.419   5.081   3.186 -0.5660  0.4993 -1.5991
 7870TIP3   OH245024   4.055   1.159  14.338 -0.5049  0.0371 -0.6072
 7870TIP3    H145025   4.123   1.175  14.273  0.3544 -0.2325  0.2162
 7870TIP3    H245026   4.000   1.091  14.298 -1.2433  1.3593 -1.9494
 7871TIP3   OH245027   1.380   3.643   3.063 -0.1689  0.1786  0.2524
 7871TIP3    H145028   1.475   3.646   3.063 -0.1679  0.2124  0.0055
 7871TIP3    H245029   1.354   3.697   2.988 -0.4322  1.3741  1.1752
 7872TIP3   OH245030   0.963   3.366   1.711  0.4276  0.0403  0.2123
 7872TIP3    H145031   0.925   3.445   1.672  1.5369  0.0407 -0.9397
 7872TIP3    H245032   1.002   3.397   1.793 -1.2019  0.2053  0.9559
 7873TIP3   OH245033   2.489   4.604  16.269  0.2215 -0.3923 -0.0743
 7873TIP3    H145034   2.531   4.520  16.285 -0.6806 -1.0836 -1.2504
 7873TIP3    H245035   2.475   4.641  16.357 -1.4251 -2.4716  0.6158
 7874TIP3   OH245036   4.222   5.382   4.792  0.0269 -0.1730 -0.0829
 7874TIP3    H145037   4.206   5.476   4.787  0.3776 -0.0865  0.3784
 7874TIP3    H245038   4.174   5.354   4.870  0.2441 -0.3050  0.0050
 7875TIP3   OH245039   4.067   6.025   2.993  0.3464 -0.1073  0.3739
 7875TIP3    H145040   4.043   6.116   3.010  0.2533 -0.1525  0.4804
 7875TIP3    H245041   4.132   6.005   3.060  1.7416  0.4560 -0.7500
 7876TIP3   OH245042   2.636   2.000   3.101  0.2234  0.0293 -0.2314
 7876TIP3    H145043   2.658   2.093   3.099  0.2269  0.0381  0.2518
 7876TIP3    H245044   2.680   1.966   3.179  2.7270 -1.0065 -1.9614
 7877TIP3   OH245045   3.905   1.901  11.102 -0.3682 -0.2465 -0.0371
 7877TIP3    H145046   3.860   1.875  11.183 -1.3846  0.1042 -0.4736
 7877TIP3    H245047   3.887   1.995  11.094  0.6122 -0.0577 -0.1281
 7878TIP3   OH245048   3.411   2.156   0.630  0.2730 -0.4319  0.7935
 7878TIP3    H145049   3.488   2.116   0.591  0.0708 -0.2797  0.2343
 7878TIP3    H245050   3.339   2.097   0.608 -0.0164  0.2033  0.0090
 7879TIP3   OH245051   6.377   5.029  13.860 -0.0199 -0.0671  0.1385
 7879TIP3    H145052   6.412   5.053  13.946  0.4219 -0.5207  0.0901
 7879TIP3    H245053   6.361   4.935  13.866  2.0693 -0.5684 -0.9419
 7880TIP3   OH245054   0.211   3.783   4.407  0.6308 -0.0492  0.0703
 7880TIP3    H145055   0.131   3.738   4.378  0.9163  0.1930 -1.1738
 7880TIP3    H245056   0.190   3.817   4.494 -0.5450 -0.1661 -0.1522
 7881TIP3   OH245057   3.894   1.958  16.060  0.4396  0.6398 -0.1993
 7881TIP3    H145058   3.888   2.045  16.099 -1.8387  0.2752  0.4104
 7881TIP3    H245059   3.878   1.973  15.967 -0.2858  0.8414 -0.0450
 7882TIP3   OH245060   0.690   0.616  11.296 -0.0573 -0.5531 -0.3928
 7882TIP3    H145061   0.728   0.567  11.369 -0.3742 -0.2825 -0.0416
 7882TIP3    H245062   0.764   0.636  11.239  0.4540  0.5896  0.6433
 7883TIP3   OH245063   4.099   4.155  13.025  0.2300  0.4152 -0.2891
 7883TIP3    H145064   4.066   4.229  13.076 -1.0080 -0.3023  0.0072
 7883TIP3    H245065   4.022   4.125  12.975  0.9766 -0.0040 -1.2219
 7884TIP3   OH245066   1.420   4.521  15.986 -0.3029  0.0501  0.0942
 7884TIP3    H145067   1.359   4.485  16.051  0.8231 -1.7408  0.2439
 7884TIP3    H245068   1.383   4.494  15.901 -0.1278 -0.3991  0.1548
 7885TIP3   OH245069   4.507   6.655   4.412 -0.5831 -0.1708 -0.1545
 7885TIP3    H145070   4.514   6.748   4.392 -0.8983  0.0773  0.8070
 7885TIP3    H245071   4.571   6.640   4.481 -1.8705 -0.2142  1.0815
 7886TIP3   OH245072   1.590   4.191  13.106  0.8333  0.1286 -0.0080
 7886TIP3    H145073   1.540   4.150  13.177  0.0238  0.7676 -0.2010
 7886TIP3    H245074   1.677   4.203  13.143  0.5356  0.0741  0.7396
 7887TIP3   OH245075   0.651   5.572   5.080  0.0935  0.1391 -0.0730
 7887TIP3    H145076   0.689   5.650   5.121 -1.0334  0.8292 -0.3063
 7887TIP3    H245077   0.651   5.506   5.149  3.3081 -0.5042 -0.5007
 7888TIP3   OH245078   2.947   6.085   4.214  0.1847  0.4918  0.3380
 7888TIP3    H145079   2.983   6.154   4.270 -0.1335  2.4275 -1.6992
 7888TIP3    H245080   2.854   6.085   4.233  0.4583 -1.0670  1.9966
 7889TIP3   OH245081   1.116   6.372   5.619 -0.0588  0.2595  0.2487
 7889TIP3    H145082   1.143   6.425   5.693 -0.2059 -0.5274  0.8771
 7889TIP3    H245083   1.197   6.330   5.589 -0.0157  0.5055  0.0130
 7890TIP3   OH245084   4.494   3.901   2.400  0.2563 -0.2142  0.0050
 7890TIP3    H145085   4.471   3.871   2.488 -1.1699 -0.2154 -0.3304
 7890TIP3    H245086   4.443   3.844   2.341 -0.8103  1.3831 -0.7116
 7891TIP3   OH245087   5.851   0.559  16.145 -0.0456  0.0034  0.1121
 7891TIP3    H145088   5.833   0.622  16.076 -3.0206 -1.8670 -1.0410
 7891TIP3    H245089   5.856   0.611  16.225  0.0536  1.8998 -1.0725
 7892TIP3   OH245090   0.878   4.987   0.321  0.5090 -0.1036 -0.7022
 7892TIP3    H145091   0.951   5.033   0.363 -0.8516  1.4679  0.0346
 7892TIP3    H245092   0.878   5.020   0.231 -0.8360  1.9706 -0.0269
 7893TIP3   OH245093   5.307   2.204   3.753 -0.3538 -0.4473 -0.9735
 7893TIP3    H145094   5.310   2.213   3.658  2.0832 -0.2197 -0.9260
 7893TIP3    H245095   5.398   2.196   3.780 -1.0237 -1.4943  1.2774
 7894TIP3   OH245096   2.988   2.255  11.405  0.1291  0.2361  0.1849
 7894TIP3    H145097   2.945   2.175  11.374  1.5708  0.2754 -2.1496
 7894TIP3    H245098   2.925   2.294  11.466 -0.7186 -2.5245  1.2204
 7895TIP3   OH245099   1.169   6.474  13.809 -0.1593  0.0517 -0.3441
 7895TIP3    H145100   1.137   6.417  13.879 -0.4833 -1.4721 -1.6757
 7895TIP3    H245101   1.094   6.528  13.786 -1.0450 -1.6365 -1.6135
 7896TIP3   OH245102   2.121   2.688  15.572  0.3021  0.4108 -0.6371
 7896TIP3    H145103   2.111   2.595  15.552  0.4514  0.5684 -1.4807
 7896TIP3    H245104   2.091   2.697  15.663 -0.3404 -0.3449 -0.7660
 7897TIP3   OH245105   2.592   0.334   5.955 -0.0757  0.5050 -0.2350
 7897TIP3    H145106   2.573   0.421   5.920 -0.3321  1.2425  1.6177
 7897TIP3    H245107   2.533   0.325   6.030 -1.2669 -1.9790 -1.3342
 7898TIP3   OH245108   6.122   0.410  13.506  0.4509 -0.2404 -0.4459
 7898TIP3    H145109   6.052   0.443  13.562  1.4771  1.1427  0.0714
 7898TIP3    H245110   6.167   0.345  13.560  1.0591  0.6455  0.1346
 7899TIP3   OH245111   5.138   2.613  17.286 -0.6889  0.1063  0.0654
 7899TIP3    H145112   5.047   2.617  17.318 -0.4336  0.8904  0.7288
 7899TIP3    H245113   5.185   2.676  17.340  0.7408 -1.8834  1.2774
 7900TIP3   OH245114   1.090   5.264  13.259 -0.2725  0.1897 -0.0188
 7900TIP3    H145115   1.153   5.243  13.189  0.7240  0.1393  0.8684
 7900TIP3    H245116   1.090   5.359  13.263  0.3577  0.1807  0.4902
 7901TIP3   OH245117   4.741   1.950   5.684 -0.2863  0.0666 -0.1994
 7901TIP3    H145118   4.705   1.921   5.767  0.1343  1.2685  0.4328
 7901TIP3    H245119   4.806   1.884   5.660 -0.2912 -0.1985  0.5165
 7902TIP3   OH245120   6.130   0.195   1.715  0.4990 -0.4560 -0.2269
 7902TIP3    H145121   6.100   0.267   1.659  0.7472 -0.7872 -0.8050
 7902TIP3    H245122   6.051   0.146   1.735 -0.1381  1.4554  2.4264
 7903TIP3   OH245123   0.739   6.645   3.604  0.7680 -0.1579 -0.2054
 7903TIP3    H145124   0.722   6.673   3.694 -0.4994  0.2060 -0.5418
 7903TIP3    H245125   0.814   6.698   3.577  0.5788  0.4055  0.3318
 7904TIP3   OH245126   1.348   4.836  11.039 -0.2573  1.0129  0.8144
 7904TIP3    H145127   1.391   4.921  11.046 -0.8263  1.4944 -1.0979
 7904TIP3    H245128   1.258   4.856  11.013  0.4420 -0.1987 -3.1281
 7905TIP3   OH245129   1.440   0.712  13.436 -0.2067  0.2918  0.3176
 7905TIP3    H145130   1.400   0.753  13.359 -0.3719 -0.3316  0.0640
 7905TIP3    H245131   1.493   0.781  13.475  0.1520  0.5192 -0.5500
 7906TIP3   OH245132   3.417   1.098   0.136 -0.0505  0.3358  0.5546
 7906TIP3    H145133   3.490   1.110   0.198 -1.4011  1.0970  2.0969
 7906TIP3    H245134   3.433   1.164   0.068  0.6017  0.6394  0.9850
 7907TIP3   OH245135   1.357   2.929   4.246 -0.1210  0.0170  0.1175
 7907TIP3    H145136   1.447   2.957   4.225 -0.4630  2.2072  1.3195
 7907TIP3    H245137   1.365   2.882   4.329  0.0468 -0.9764 -0.4359
 7908TIP3   OH245138   5.468   2.970  13.444 -0.1651  0.6629 -0.1960
 7908TIP3    H145139   5.562   2.979  13.428 -0.1672  0.4794 -0.3148
 7908TIP3    H245140   5.455   2.876  13.457 -0.6253  0.4174 -2.0821
 7909TIP3   OH245141   4.175   4.430  11.396 -0.4821  0.0573  0.4994
 7909TIP3    H145142   4.141   4.519  11.399 -0.2022  0.1549  2.6380
 7909TIP3    H245143   4.152   4.397  11.309 -0.7668  2.1285 -0.2538
 7910TIP3   OH245144   0.815   2.329   0.608  0.1087  0.5974  0.2418
 7910TIP3    H145145   0.827   2.259   0.672 -0.7657  1.6637  1.6270
 7910TIP3    H245146   0.773   2.286   0.534  0.9680 -0.6321  0.4328
 7911TIP3   OH245147   0.322   2.159   1.080  0.1525  0.2652  0.2130
 7911TIP3    H145148   0.241   2.129   1.041 -0.3795  0.9056  0.7962
 7911TIP3    H245149   0.353   2.084   1.131  0.1915 -0.1429 -0.4014
 7912TIP3   OH245150   1.250   1.310  13.942 -0.0003 -0.1717  0.0716
 7912TIP3    H145151   1.197   1.388  13.956 -0.5135 -0.7903  1.8748
 7912TIP3    H245152   1.244   1.262  14.025  2.9354 -0.5548  0.1517
 7913TIP3   OH245153   4.818   1.361   3.094  0.5255 -0.3206 -0.1556
 7913TIP3    H145154   4.878   1.308   3.147 -0.6818 -1.6735 -0.0893
 7913TIP3    H245155   4.752   1.299   3.064 -0.5458  1.0359 -0.6720
 7914TIP3   OH245156   6.216   0.802  13.142  0.3340 -0.0779  0.3424
 7914TIP3    H145157   6.307   0.833  13.139  0.8285 -1.4650  0.5295
 7914TIP3    H245158   6.166   0.880  13.166  1.7228  0.2530  2.4609
 7915TIP3   OH245159   0.950   2.257   5.941  0.3790 -0.5331 -0.0706
 7915TIP3    H145160   0.935   2.224   6.030  1.8729 -1.4641 -0.1305
 7915TIP3    H245161   0.873   2.230   5.892 -1.1389  1.1912  1.2223
 7916TIP3   OH245162   6.584   2.935   0.504 -0.6495  0.0172 -0.3546
 7916TIP3    H145163   6.661   2.992   0.512 -1.3755  0.9369  0.3928
 7916TIP3    H245164   6.553   2.949   0.415 -0.8141  0.8280 -0.1851
 7917TIP3   OH245165   5.232   0.242  14.515  0.5262 -0.0477 -0.7154
 7917TIP3    H145166   5.323   0.250  14.486  1.1950  0.2236  1.3232
 7917TIP3    H245167   5.230   0.161  14.567 -0.0044  0.7125  0.5038
 7918TIP3   OH245168   3.392   0.470   0.110  0.6730 -0.2398 -0.1514
 7918TIP3    H145169   3.436   0.390   0.140  1.6000 -0.0092 -0.8482
 7918TIP3    H245170   3.400   0.530   0.185 -0.4224 -0.9265  0.5413
 7919TIP3   OH245171   0.290   4.774   4.473 -0.1523 -0.2413 -0.0669
 7919TIP3    H145172   0.325   4.846   4.420 -1.2951  1.3314  1.2336
 7919TIP3    H245173   0.195   4.787   4.471 -0.2437 -0.1091  2.3389
 7920TIP3   OH245174   4.206   5.399  11.263  0.4698 -0.5478  0.0226
 7920TIP3    H145175   4.227   5.308  11.283 -1.4332 -0.9027  0.6458
 7920TIP3    H245176   4.288   5.447  11.278  1.2517 -2.0183  0.6201
 7921TIP3   OH245177   5.784   4.573   5.447 -0.1611  0.1999 -0.2811
 7921TIP3    H145178   5.767   4.667   5.452  0.2916  0.2587  0.2335
 7921TIP3    H245179   5.879   4.565   5.453  0.0021 -0.1612 -2.5974
 7922TIP3   OH245180   1.586   2.896   2.538  0.3204 -0.1179  0.1906
 7922TIP3    H145181   1.627   2.835   2.478  1.2198  0.0015  0.6644
 7922TIP3    H245182   1.497   2.862   2.551  0.9812 -1.6534  0.8877
 7923TIP3   OH245183   6.233   2.935   4.985  0.9325 -0.1223  1.0202
 7923TIP3    H145184   6.142   2.959   4.969  1.1958  0.6903  0.6924
 7923TIP3    H245185   6.268   3.005   5.039  1.9017  0.6293 -0.5167
 7924TIP3   OH245186   6.321   1.024   0.694  0.0390 -0.0698 -0.0871
 7924TIP3    H145187   6.329   0.975   0.612  1.4400  1.6796 -1.0747
 7924TIP3    H245188   6.381   0.980   0.754  1.4169  0.4538 -1.0109
 7925TIP3   OH245189   4.088   1.098  16.208  0.3927 -0.4574 -0.0244
 7925TIP3    H145190   4.179   1.096  16.240  0.9379  0.9487 -1.3740
 7925TIP3    H245191   4.094   1.062  16.119  0.0966  1.8414 -1.0497
 7926TIP3   OH245192   6.394   6.026   3.471 -0.0495  0.6454 -0.3141
 7926TIP3    H145193   6.467   6.001   3.414  1.1589  1.7336  0.6914
 7926TIP3    H245194   6.317   5.989   3.429  1.1653 -1.2533 -0.9757
 7927TIP3   OH245195   6.480   4.614   5.424 -0.3831  0.1598 -0.0377
 7927TIP3    H145196   6.441   4.661   5.499  0.2472 -1.1909  1.1909
 7927TIP3    H245197   6.545   4.675   5.389  0.4462  0.2465  1.5486
 7928TIP3   OH245198   5.481   2.736   1.847  0.6557 -0.1908 -0.2985
 7928TIP3    H145199   5.533   2.779   1.914 -1.3185 -0.6380  1.6453
 7928TIP3    H245200   5.390   2.756   1.871 -0.1546 -1.4181 -2.1249
 7929TIP3   OH245201   5.851   0.008   2.407 -0.1426 -0.3221 -0.0403
 7929TIP3    H145202   5.867   0.048   2.322  2.5015  0.3342  0.6713
 7929TIP3    H245203   5.769   0.047   2.437 -0.7574 -0.0439 -1.9512
 7930TIP3   OH245204   2.476   1.386   2.289  0.3721 -0.0999 -0.2205
 7930TIP3    H145205   2.396   1.432   2.316  0.2005 -0.0756 -0.7689
 7930TIP3    H245206   2.513   1.354   2.371 -0.0792  0.0846  0.0625
 7931TIP3   OH245207   6.065   0.830  10.532 -0.1031  0.5398 -0.2454
 7931TIP3    H145208   6.160   0.846  10.534  0.0521 -0.3050 -0.4639
 7931TIP3    H245209   6.057   0.736  10.515 -0.9652  0.2368  1.5897
 7932TIP3   OH245210   3.152   1.074  15.134  0.4211 -0.0323  0.4785
 7932TIP3    H145211   3.198   1.135  15.076 -0.4050  0.2971  0.1548
 7932TIP3    H245212   3.221   1.021  15.173  1.1269  0.8433  0.4523
 7933TIP3   OH245213   5.623   4.408   1.588  0.0622  0.0820  0.3114
 7933TIP3    H145214   5.585   4.459   1.516  0.9707  3.7787  2.1904
 7933TIP3    H245215   5.716   4.431   1.587  0.0483  0.5519  2.7961
 7934TIP3   OH245216   3.141   3.779  17.245 -0.0118 -0.5506  0.6067
 7934TIP3    H145217   3.088   3.826  17.309  0.4060 -1.0223  1.3183
 7934TIP3    H245218   3.219   3.753  17.294  0.3031 -0.9436 -0.0932
 7935TIP3   OH245219   0.150   4.008   5.377 -0.3438 -0.0130 -0.0042
 7935TIP3    H145220   0.117   4.071   5.313 -1.6570 -1.1380 -0.4792
 7935TIP3    H245221   0.162   4.059   5.457 -0.0688  1.1108 -0.7294
 7936TIP3   OH245222   4.180   5.859  10.842 -0.2749 -0.6788 -0.4427
 7936TIP3    H145223   4.166   5.939  10.893 -0.2896 -0.2586 -1.1077
 7936TIP3    H245224   4.256   5.877  10.787  0.2821 -1.4466  0.0509
 7937TIP3   OH245225   3.672   0.458   1.205 -0.1746  0.4337  0.1014
 7937TIP3    H145226   3.588   0.493   1.235 -0.8629 -1.3796  0.4042
 7937TIP3    H245227   3.680   0.490   1.116 -1.5389  0.0965 -0.1753
 7938TIP3   OH245228   0.556   6.334  12.880  0.3637 -0.2587  0.6844
 7938TIP3    H145229   0.522   6.398  12.943  0.8687  0.5169  0.1809
 7938TIP3    H245230   0.597   6.387  12.812  0.0809 -1.0996 -0.1546
 7939TIP3   OH245231   5.084   1.293   4.657 -0.2657  0.1572  0.0403
 7939TIP3    H145232   5.173   1.258   4.646 -0.0152  1.0851 -1.0630
 7939TIP3    H245233   5.092   1.355   4.729  0.2092  0.9151 -0.6436
 7940TIP3   OH245234   1.000   6.659   4.528 -0.6830 -0.1302 -0.1781
 7940TIP3    H145235   1.013   6.576   4.481 -1.5438  0.1714 -0.9803
 7940TIP3    H245236   0.905   6.666   4.538 -0.5781  0.4620  0.4390
 7941TIP3   OH245237   1.866   2.849  14.657  0.3740  0.5709 -0.1620
 7941TIP3    H145238   1.874   2.833  14.751 -0.2268 -0.1837 -0.2310
 7941TIP3    H245239   1.948   2.818  14.620  0.7033  1.0800  0.1401
 7942TIP3   OH245240   0.283   2.927  11.590 -0.6711 -0.0268  0.0271
 7942TIP3    H145241   0.241   3.003  11.550 -0.2264  0.7740  1.0517
 7942TIP3    H245242   0.219   2.856  11.580 -0.1244 -0.2209 -3.1950
 7943TIP3   OH245243   0.189   3.846  16.929 -0.0706  0.0770  0.3437
 7943TIP3    H145244   0.202   3.833  17.023  0.5734 -0.8546  0.1404
 7943TIP3    H245245   0.275   3.874  16.897  0.2269 -1.4060 -0.2427
 7944TIP3   OH245246   1.625   5.285  13.814 -0.1983  0.1735 -0.0304
 7944TIP3    H145247   1.652   5.321  13.729  0.6269 -1.4495 -0.4905
 7944TIP3    H245248   1.627   5.361  13.873 -1.4200  1.4787 -1.5513
 7945TIP3   OH245249   6.743   1.923  13.526  0.2277 -0.3495 -0.1009
 7945TIP3    H145250   6.653   1.890  13.523  0.2885 -0.5003 -0.2495
 7945TIP3    H245251   6.795   1.854  13.485  0.2673  0.2541 -1.0921
 7946TIP3   OH245252   0.256   0.416   5.808 -0.1330 -0.5800 -0.0912
 7946TIP3    H145253   0.229   0.468   5.884 -0.7765  0.6152 -1.0905
 7946TIP3    H245254   0.323   0.469   5.765  0.1442 -1.1880 -0.4229
 7947TIP3   OH245255   1.482   4.099   1.829 -0.0674 -0.0329  0.1002
 7947TIP3    H145256   1.468   4.054   1.912 -1.9195 -1.0485 -0.7039
 7947TIP3    H245257   1.460   4.190   1.847  0.6037 -0.0368  0.9788
 7948TIP3   OH245258   3.036   4.761   3.600  0.1849 -0.1546  0.4714
 7948TIP3    H145259   2.960   4.702   3.605  0.3195 -0.3412  0.3306
 7948TIP3    H245260   3.030   4.800   3.512 -0.1833  0.4223  0.7465
 7949TIP3   OH245261   6.654   3.436   1.252  0.2438 -0.2355  0.2483
 7949TIP3    H145262   6.582   3.414   1.311 -0.9597 -1.1353 -1.4617
 7949TIP3    H245263   6.664   3.531   1.260  0.4887 -0.4027  2.2583
 7950TIP3   OH245264   1.692   3.034  12.267  0.5908  0.1274  0.4156
 7950TIP3    H145265   1.781   3.010  12.294  0.8949  1.3527  0.5603
 7950TIP3    H245266   1.655   3.079  12.343  0.5508  1.3557 -0.3040
 7951TIP3   OH245267   3.030   0.914  14.033 -0.4557  0.4088 -0.3790
 7951TIP3    H145268   3.077   0.849  13.980  0.1936 -0.8712  1.6668
 7951TIP3    H245269   2.942   0.878  14.042 -0.5369  0.5795 -0.4892
 7952TIP3   OH245270   3.233   2.354   1.747  0.7082  0.8785 -0.1483
 7952TIP3    H145271   3.180   2.356   1.667 -0.7019 -1.6944  0.6078
 7952TIP3    H245272   3.322   2.338   1.715  0.2215  0.1966 -1.2576
 7953TIP3   OH245273   3.829   3.820  15.356  0.6846 -0.2800  0.1738
 7953TIP3    H145274   3.774   3.870  15.295 -0.5309 -0.0671  1.3877
 7953TIP3    H245275   3.874   3.756  15.301  0.3828  0.5425 -1.0722
 7954TIP3   OH245276   0.795   5.889   1.057 -0.3756 -0.7795 -0.0261
 7954TIP3    H145277   0.878   5.843   1.053 -0.3614 -0.9171  1.3194
 7954TIP3    H245278   0.818   5.977   1.085 -0.7726 -1.2497  1.9618
 7955TIP3   OH245279   5.351   4.832  14.273 -0.3897 -0.5101 -0.5309
 7955TIP3    H145280   5.365   4.861  14.182  0.4870  0.8883  0.0144
 7955TIP3    H245281   5.307   4.906  14.314 -1.0653 -1.2640  0.1220
 7956TIP3   OH245282   0.137   0.498  11.745 -0.1215 -0.0413 -0.5535
 7956TIP3    H145283   0.087   0.580  11.754 -1.1332 -0.8096  1.3665
 7956TIP3    H245284   0.072   0.434  11.716  0.3875 -0.4502 -0.7872
 7957TIP3   OH245285   4.994   0.451   0.497 -0.9637  0.7857  0.8674
 7957TIP3    H145286   4.955   0.538   0.491 -0.4760  0.9810  0.4754
 7957TIP3    H245287   4.925   0.397   0.537 -1.1070  1.4483  1.5523
 7958TIP3   OH245288   1.435   6.109   0.745 -0.2451 -1.0179 -0.0324
 7958TIP3    H145289   1.525   6.079   0.729  1.0038  2.0527  0.5132
 7958TIP3    H245290   1.435   6.201   0.719 -2.4285 -0.1346  2.5934
 7959TIP3   OH245291   1.876   2.748  11.235  0.1629  0.0721  0.1528
 7959TIP3    H145292   1.803   2.810  11.232 -2.2716 -2.5983  0.6266
 7959TIP3    H245293   1.943   2.788  11.179 -1.8540  2.4006 -0.7795
 7960TIP3   OH245294   0.402   6.399  11.930  0.0406  0.6724 -0.2157
 7960TIP3    H145295   0.479   6.395  11.873  1.9722  2.0652  2.0927
 7960TIP3    H245296   0.385   6.308  11.954  0.9683  0.3229 -0.8131
 7961TIP3   OH245297   5.888   4.889  16.033 -0.1795 -0.2813  0.4373
 7961TIP3    H145298   5.802   4.910  16.069 -0.0834  1.1814 -0.1371
 7961TIP3    H245299   5.940   4.968  16.048  0.5868 -0.5591 -0.6580
 7962TIP3   OH245300   6.629   5.944  13.021 -0.0649  0.2804 -0.2279
 7962TIP3    H145301   6.661   5.975  12.936 -0.5008 -1.1113 -0.9292
 7962TIP3    H245302   6.559   6.006  13.044 -1.2295 -0.3916 -1.8080
 7963TIP3   OH245303   1.508   2.942  13.162 -0.3716 -0.1796 -0.3529
 7963TIP3    H145304   1.502   2.866  13.220 -1.7654 -0.6365 -1.0505
 7963TIP3    H245305   1.597   2.974  13.173 -0.1623 -1.1248  0.9397
 7964TIP3   OH245306   3.968   6.178   0.612 -0.4282 -0.6391  0.1275
 7964TIP3    H145307   3.876   6.200   0.595 -0.0955  0.0149 -0.8683
 7964TIP3    H245308   3.990   6.114   0.544 -0.4776 -1.7108  1.0911
 7965TIP3   OH245309   5.618   5.909  16.088  0.2407  0.0393 -0.1104
 7965TIP3    H145310   5.641   5.894  16.180  1.0582 -0.4335 -0.3839
 7965TIP3    H245311   5.623   6.004  16.077  1.6222 -0.0016 -0.0325
 7966TIP3   OH245312   0.234   0.959   0.230 -0.0290 -0.6126 -0.1686
 7966TIP3    H145313   0.279   0.875   0.232 -1.7694 -1.5825  1.1125
 7966TIP3    H245314   0.146   0.938   0.197 -1.0219  0.3708  1.6953
 7967TIP3   OH245315   6.147   0.663   3.073 -0.6805  0.7380 -0.0693
 7967TIP3    H145316   6.136   0.641   2.981  0.0685  1.5607 -0.3718
 7967TIP3    H245317   6.105   0.591   3.121 -0.7503  0.1214 -1.0396
 7968TIP3   OH245318   2.914   0.457  13.594 -0.5324  0.4083  0.3204
 7968TIP3    H145319   2.822   0.447  13.618 -0.9416  1.1301 -0.8716
 7968TIP3    H245320   2.937   0.546  13.621 -1.0129  1.2556 -1.8486
 7969TIP3   OH245321   6.174   0.503   4.405 -0.3648  0.3382 -0.0254
 7969TIP3    H145322   6.262   0.521   4.371 -0.5742  1.6142  0.0564
 7969TIP3    H245323   6.135   0.590   4.418 -0.5714 -0.0884  2.7750
 7970TIP3   OH245324   1.484   0.222  14.212 -0.4176 -0.1575  0.0367
 7970TIP3    H145325   1.470   0.138  14.169  1.7008 -0.1127 -0.8825
 7970TIP3    H245326   1.469   0.287  14.143  1.6696 -0.0221 -0.3594
 7971TIP3   OH245327   2.096   5.861  17.052 -0.2116  0.3279 -0.7683
 7971TIP3    H145328   2.146   5.784  17.079  0.0991  1.2547  1.5519
 7971TIP3    H245329   2.155   5.910  16.995 -0.5983 -1.3284 -2.7252
 7972TIP3   OH245330   2.284   2.608  15.974  0.5017  0.0747  0.3241
 7972TIP3    H145331   2.379   2.613  15.961  0.3477 -2.2014 -3.3961
 7972TIP3    H245332   2.272   2.530  16.028  0.7284  1.3123  2.2322
 7973TIP3   OH245333   0.539   3.168  13.852  0.2169  0.2989  0.0511
 7973TIP3    H145334   0.570   3.244  13.901  0.5295  1.6070 -2.0984
 7973TIP3    H245335   0.616   3.113  13.842  0.3989  0.5494  0.0677
 7974TIP3   OH245336   1.393   5.408   1.363  0.2133  0.0033 -0.0775
 7974TIP3    H145337   1.396   5.504   1.366 -1.4955  0.1072 -0.5554
 7974TIP3    H245338   1.482   5.381   1.385  0.4696  1.6672  1.1991
 7975TIP3   OH245339   3.671   1.829   4.275  0.4583  0.4656 -0.4917
 7975TIP3    H145340   3.596   1.793   4.323  1.2407 -1.0521 -0.3486
 7975TIP3    H245341   3.687   1.914   4.317 -0.4728  0.3127  0.2200
 7976TIP3   OH245342   5.347   5.043  16.045  0.0205  0.7753 -0.1333
 7976TIP3    H145343   5.407   5.106  16.006  1.5057 -0.8154 -0.5494
 7976TIP3    H245344   5.366   5.047  16.139  1.2763 -0.1485 -0.3176
 7977TIP3   OH245345   1.541   1.768   3.905  0.4877  0.2088  0.3443
 7977TIP3    H145346   1.634   1.758   3.886  0.2983  0.0462 -0.5449
 7977TIP3    H245347   1.537   1.832   3.976  1.1830  1.6405 -0.8616
 7978TIP3   OH245348   6.538   6.685   2.221  0.7127  0.2396 -0.1066
 7978TIP3    H145349   6.474   6.657   2.156  0.8099  1.1141 -0.6031
 7978TIP3    H245350   6.616   6.633   2.202  0.5374  0.0355 -0.2752
 7979TIP3   OH245351   4.056   3.106   5.731 -0.5245 -0.6120  0.0759
 7979TIP3    H145352   4.018   3.067   5.652  0.7514 -0.5096 -0.6230
 7979TIP3    H245353   4.070   3.198   5.708 -0.6385 -0.4579  0.6138
 7980TIP3   OH245354   6.098   3.290  15.426 -0.0844  0.4297  0.1008
 7980TIP3    H145355   6.021   3.266  15.477 -0.5011 -0.9553 -1.1031
 7980TIP3    H245356   6.145   3.208  15.413  0.8860  1.0326 -0.3296
 7981TIP3   OH245357   0.704   3.800   2.461 -0.0804 -0.5972 -0.2577
 7981TIP3    H145358   0.769   3.797   2.531  0.2201 -0.4014 -0.5261
 7981TIP3    H245359   0.620   3.807   2.507  0.1352 -0.1802  0.0782
 7982TIP3   OH245360   0.080   5.912   0.706 -0.0137  0.4425 -0.1764
 7982TIP3    H145361   0.133   5.970   0.761  0.2464  0.7257 -0.7170
 7982TIP3    H245362   0.099   5.824   0.739  0.3347  0.5902  0.0249
 7983TIP3   OH245363   3.643   1.068  14.285  0.6342  0.0119 -0.1285
 7983TIP3    H145364   3.578   1.008  14.324  1.1537 -0.9191 -0.6481
 7983TIP3    H245365   3.592   1.120  14.222  0.1810  0.0968  0.3009
 7984TIP3   OH245366   2.402   6.715  14.224  0.5397 -0.5316  0.1864
 7984TIP3    H145367   2.406   6.795  14.276  0.2956 -0.5806  0.2817
 7984TIP3    H245368   2.399   6.644  14.289  1.4722 -0.6577  0.1038
 7985TIP3   OH245369   6.036   3.408   1.784 -0.2655  0.5784  0.1275
 7985TIP3    H145370   5.963   3.444   1.834 -0.6010 -2.1093  1.7337
 7985TIP3    H245371   6.003   3.402   1.694 -0.9543  2.0715  0.2578
 7986TIP3   OH245372   0.837   1.393   0.420  0.1658  0.0526 -0.9881
 7986TIP3    H145373   0.890   1.322   0.385  0.8215 -1.0604  1.9706
 7986TIP3    H245374   0.786   1.353   0.490 -0.1899  2.3014  0.1456
 7987TIP3   OH245375   4.214   6.269   0.147  0.0607  0.2726 -0.1361
 7987TIP3    H145376   4.126   6.306   0.148  0.1804  0.5985 -0.9554
 7987TIP3    H245377   4.200   6.174   0.144 -0.2875  0.3470 -1.4306
 7988TIP3   OH245378   6.520   5.653   2.927 -0.4788  0.5490 -0.6285
 7988TIP3    H145379   6.503   5.747   2.915 -2.2141  0.4372  0.5613
 7988TIP3    H245380   6.597   5.650   2.985 -0.0698  1.2100 -1.1204
 7989TIP3   OH245381   0.096   2.607   3.104 -0.0012  0.1788  0.3692
 7989TIP3    H145382   0.094   2.591   3.199 -0.9299 -1.5527  0.0977
 7989TIP3    H245383   0.091   2.520   3.065  2.0387  0.7354 -1.3106
 7990TIP3   OH245384   6.185   2.896   5.427 -0.5325  0.0671  0.5714
 7990TIP3    H145385   6.132   2.958   5.378  0.3041 -0.1680 -0.6989
 7990TIP3    H245386   6.216   2.833   5.361 -0.0467 -0.7599  1.5463
 7991TIP3   OH245387   2.865   0.065  11.778  0.2655 -0.5664 -0.1127
 7991TIP3    H145388   2.923   0.039  11.706 -2.0195 -0.6371 -2.0882
 7991TIP3    H245389   2.787   0.011  11.766 -0.8750  0.6426  1.4130
 7992TIP3   OH245390   4.920   6.326  16.247  0.2413 -0.0984  0.5410
 7992TIP3    H145391   4.841   6.273  16.237 -0.2564  0.2950  2.0730
 7992TIP3    H245392   4.934   6.364  16.160 -0.5780 -1.0852 -0.0490
 7993TIP3   OH245393   2.646   6.277   2.243 -0.2797 -0.1219  0.2896
 7993TIP3    H145394   2.637   6.308   2.333 -0.7680  2.1326 -0.4648
 7993TIP3    H245395   2.737   6.249   2.236 -0.7080 -2.1549  1.9632
 7994TIP3   OH245396   0.161   0.989  16.398  0.7857  0.0827 -0.0652
 7994TIP3    H145397   0.158   0.896  16.379 -0.7176 -0.3658  2.0537
 7994TIP3    H245398   0.146   1.031  16.313 -0.5950 -1.6403 -0.7315
 7995TIP3   OH245399   5.429   6.661  16.541  0.4411  0.7279 -0.1208
 7995TIP3    H145400   5.413   6.567  16.553  1.1225  0.5233 -0.7675
 7995TIP3    H245401   5.363   6.689  16.478 -1.0703  1.1293  1.5603
 7996TIP3   OH245402   1.459   5.172  11.930 -1.0353 -0.0504  0.1527
 7996TIP3    H145403   1.427   5.253  11.971  2.8074  0.4672  2.5747
 7996TIP3    H245404   1.414   5.102  11.978 -0.7118  0.6347  1.5068
 7997TIP3   OH245405   2.582   0.869  15.580  0.5128 -0.1577  0.3418
 7997TIP3    H145406   2.627   0.951  15.560 -1.1361  0.7123  0.0001
 7997TIP3    H245407   2.492   0.883  15.551  0.2025 -2.1421  0.1706
 7998TIP3   OH245408   1.896   5.424  13.631  0.5555 -0.1282 -0.7398
 7998TIP3    H145409   1.804   5.440  13.652  0.6488 -1.5525  1.0248
 7998TIP3    H245410   1.897   5.407  13.537 -1.1148 -0.7911 -0.6661
 7999TIP3   OH245411   0.622   0.681  11.805  0.2404  0.2265  0.0451
 7999TIP3    H145412   0.536   0.640  11.799  0.7595 -0.9786  0.4992
 7999TIP3    H245413   0.604   0.772  11.828 -0.9503  0.3172 -1.1385
 8000TIP3   OH245414   3.728   3.050  15.421 -0.1473 -0.0995 -0.4572
 8000TIP3    H145415   3.770   3.108  15.358 -0.5051  0.4903 -0.1623
 8000TIP3    H245416   3.726   3.100  15.502  0.7309 -1.0297  0.1612
 8001TIP3   OH245417   5.473   3.524   6.608 -0.9341 -0.3863  0.0288
 8001TIP3    H145418   5.506   3.549   6.694  2.9499  0.3573 -1.4414
 8001TIP3    H245419   5.450   3.432   6.616 -1.7185 -0.0491  2.0777
 8002TIP3   OH245420   2.157   1.968   6.533 -0.5160  0.0735 -0.9438
 8002TIP3    H145421   2.112   2.041   6.490 -0.3212  0.9106  0.2163
 8002TIP3    H245422   2.126   1.890   6.487  0.4450  0.9632 -3.2494
 8003TIP3   OH245423   4.686   1.317  15.256  0.4228  0.3482 -0.4722
 8003TIP3    H145424   4.591   1.305  15.259  0.5303 -0.3756  0.7357
 8003TIP3    H245425   4.716   1.250  15.194  0.3434 -1.1039  0.9888
 8004TIP3   OH245426   4.396   2.287   0.975  0.0385 -0.5641 -0.5707
 8004TIP3    H145427   4.303   2.286   0.953  0.1846 -0.0218 -1.2629
 8004TIP3    H245428   4.421   2.379   0.966  0.9371 -0.9015 -1.7246
 8005TIP3   OH245429   6.194   6.020   4.455 -0.2873 -0.3808  0.4004
 8005TIP3    H145430   6.159   5.980   4.375 -0.0659 -0.1202  0.1728
 8005TIP3    H245431   6.283   6.047   4.432 -0.0478 -0.7430  0.8821
 8006TIP3   OH245432   6.046   2.522   4.717  0.0035 -0.0293  0.0329
 8006TIP3    H145433   6.048   2.463   4.793 -1.1728  0.0324  0.1190
 8006TIP3    H245434   5.980   2.485   4.659 -1.1385  1.4654  0.3225
 8007TIP3   OH245435   1.451   1.319   2.256  0.0626 -0.2608 -0.1318
 8007TIP3    H145436   1.536   1.359   2.280  0.5364 -1.6404  0.5945
 8007TIP3    H245437   1.395   1.394   2.234  2.1366  0.6177 -3.0637
 8008TIP3   OH245438   4.826   2.360   3.798  0.5727  0.3459  0.7038
 8008TIP3    H145439   4.747   2.325   3.757  0.2722 -1.6039  2.7138
 8008TIP3    H245440   4.898   2.323   3.747  0.2064  0.3757  0.1584
 8009TIP3   OH245441   0.937   5.124  11.560  0.2118  0.7945 -0.8883
 8009TIP3    H145442   0.992   5.102  11.635 -0.2733  0.4461 -0.6350
 8009TIP3    H245443   0.914   5.216  11.573 -1.3684  0.2480  0.3499
 8010TIP3   OH245444   6.228   0.946   3.944  0.4663 -0.0536  0.2526
 8010TIP3    H145445   6.222   0.894   3.864  0.8139 -0.5363  0.5365
 8010TIP3    H245446   6.191   1.031   3.920 -1.1309 -0.7631  0.0709
 8011TIP3   OH245447   0.968   2.893  14.321  0.3479 -0.5077 -0.0942
 8011TIP3    H145448   0.881   2.853  14.324 -0.4536  0.6737 -3.1506
 8011TIP3    H245449   0.957   2.978  14.362 -0.0889 -0.1997 -0.8268
 8012TIP3   OH245450   5.933   4.267  17.356 -0.0831  0.3222 -0.4418
 8012TIP3    H145451   5.920   4.187  17.407  2.8553  0.0362  0.0406
 8012TIP3    H245452   5.970   4.330  17.418 -0.1015  1.2729 -1.3543
 8013TIP3   OH245453   1.348   1.457  13.632 -0.0202  0.4489  0.2510
 8013TIP3    H145454   1.325   1.512  13.557  0.9736  0.4084 -0.0914
 8013TIP3    H245455   1.309   1.372  13.612  0.7918  0.2526 -0.5381
 8014TIP3   OH245456   0.013   2.572  12.891  0.1158 -0.4413  0.4247
 8014TIP3    H145457  -0.053   2.551  12.825  1.0200 -0.8629 -0.3858
 8014TIP3    H245458   0.018   2.667  12.891 -1.1238 -0.3613  1.1547
 8015TIP3   OH245459   5.125   5.538   2.033 -0.4422  0.4859  0.1675
 8015TIP3    H145460   5.198   5.526   2.095  0.1701 -0.5918 -0.7269
 8015TIP3    H245461   5.148   5.483   1.958 -2.0935  0.2842 -0.2246
 8016TIP3   OH245462   1.009   5.353  16.097  0.1788  0.3533 -0.2395
 8016TIP3    H145463   0.945   5.282  16.097  1.1875 -0.5861 -1.0514
 8016TIP3    H245464   1.082   5.320  16.045  2.8503 -0.0290  3.3042
 8017TIP3   OH245465   1.219   0.705  17.320  0.6001 -0.7147  0.6397
 8017TIP3    H145466   1.130   0.673  17.332  0.4632 -0.1181  1.3209
 8017TIP3    H245467   1.221   0.739  17.231 -0.0703 -0.1234  0.8378
 8018TIP3   OH245468   4.871   2.651   1.706  0.0741  0.0943  0.3198
 8018TIP3    H145469   4.834   2.564   1.688 -0.3978  0.0808  1.2558
 8018TIP3    H245470   4.941   2.634   1.769 -0.3098  0.4211  0.8489
 8019TIP3   OH245471   5.596   2.162   3.232  0.6000  0.9130 -0.5648
 8019TIP3    H145472   5.608   2.198   3.320  2.5890  2.0496 -1.2301
 8019TIP3    H245473   5.616   2.069   3.241 -1.4775  0.5098  0.5765
 8020TIP3   OH245474   1.818   3.100   4.254  0.0615 -0.5411 -0.5683
 8020TIP3    H145475   1.748   3.037   4.269 -0.0206 -0.3221 -0.0229
 8020TIP3    H245476   1.790   3.150   4.177 -0.9147  0.2840  0.3001
 8021TIP3   OH245477   0.407   3.376   0.110 -0.8465  0.7671  0.6567
 8021TIP3    H145478   0.380   3.289   0.140 -2.7687  1.0809 -0.0298
 8021TIP3    H245479   0.412   3.429   0.190 -0.5290  0.2439  0.9880
 8022TIP3   OH245480   4.190   3.160   5.003  0.5329  0.1121  0.6129
 8022TIP3    H145481   4.162   3.177   5.093  1.1714  1.2940  0.6107
 8022TIP3    H245482   4.273   3.206   4.995  1.1308 -1.0629 -0.2019
 8023TIP3   OH245483   3.468   2.500   4.100  0.2709  0.0473  0.4713
 8023TIP3    H145484   3.544   2.506   4.042  0.8738 -1.5218  1.0227
 8023TIP3    H245485   3.477   2.574   4.159  1.4988 -0.2183  0.6502
 8024TIP3   OH245486   3.013   0.751  16.526 -0.7047 -0.1292  0.8303
 8024TIP3    H145487   2.961   0.678  16.558  0.6702 -0.3111  2.9061
 8024TIP3    H245488   3.040   0.797  16.606  0.2950  1.3456 -0.2973
 8025TIP3   OH245489   4.358   3.442  16.386  0.4032  0.5167 -0.6189
 8025TIP3    H145490   4.440   3.446  16.435 -0.6383  1.1885  1.1503
 8025TIP3    H245491   4.329   3.351  16.394  1.0121  0.2395 -1.3773
 8026TIP3   OH245492   2.144   0.158   4.078  0.0890  0.5778 -0.8031
 8026TIP3    H145493   2.198   0.157   3.999  0.8661  0.0402 -0.2790
 8026TIP3    H245494   2.059   0.126   4.049 -0.2096  2.1261 -1.7983
 8027TIP3   OH245495   3.802   3.492  12.447 -0.5547  0.0088  0.6004
 8027TIP3    H145496   3.710   3.478  12.465 -0.5275 -0.1570  0.6179
 8027TIP3    H245497   3.827   3.567  12.500 -0.9171  0.6694 -0.1512
 8028TIP3   OH245498   5.837   5.681  13.710 -0.0356  0.0732 -0.2403
 8028TIP3    H145499   5.882   5.669  13.627 -0.3671  1.3569 -0.6398
 8028TIP3    H245500   5.748   5.706  13.685 -0.2790 -0.0158  0.5116
 8029TIP3   OH245501   4.027   0.754  14.220 -0.6038 -0.4881 -0.5988
 8029TIP3    H145502   3.960   0.689  14.200 -1.7675  1.1174 -2.2552
 8029TIP3    H245503   3.984   0.839  14.203  1.4029  0.6409 -0.3244
 8030TIP3   OH245504   1.260   4.697   5.670 -0.4240  0.1949  0.0818
 8030TIP3    H145505   1.210   4.637   5.615 -0.0558  0.1578 -0.2112
 8030TIP3    H245506   1.294   4.642   5.741  1.5925 -0.3838 -1.2485
 8031TIP3   OH245507   2.536   5.002  15.361 -0.7016  0.7124  0.2697
 8031TIP3    H145508   2.600   5.072  15.348 -0.3610  0.5372  0.9501
 8031TIP3    H245509   2.580   4.923  15.329 -0.5365  0.5805  0.7991
 8032TIP3   OH245510   1.414   6.456   3.425  0.1639 -0.4164  0.3520
 8032TIP3    H145511   1.450   6.478   3.339  0.1052  1.6071  0.7759
 8032TIP3    H245512   1.486   6.412   3.471  1.8897  2.5514  0.8006
 8033TIP3   OH245513   1.118   1.488   0.777 -0.3435  0.5097  0.0450
 8033TIP3    H145514   1.085   1.497   0.866 -1.1936  1.4711 -0.3363
 8033TIP3    H245515   1.054   1.536   0.723  0.9900  1.3323 -0.8888
 8034TIP3   OH245516   4.667   5.496   0.008 -0.3793  0.1593 -0.3658
 8034TIP3    H145517   4.674   5.403  -0.015 -2.1692 -0.4559  1.3496
 8034TIP3    H245518   4.752   5.518   0.044 -0.0690 -0.9267 -0.3909
 8035TIP3   OH245519   1.373   4.621   4.274 -0.2463  0.2930 -0.3577
 8035TIP3    H145520   1.347   4.541   4.320 -1.0197  0.2195 -0.8954
 8035TIP3    H245521   1.469   4.619   4.274 -0.2534 -0.3659  0.0946
 8036TIP3   OH245522   5.866   5.170  16.731  0.1820 -0.2931  0.3279
 8036TIP3    H145523   5.822   5.117  16.665  1.5635 -0.0811 -0.8162
 8036TIP3    H245524   5.815   5.251  16.735 -0.5026 -0.7195  0.2777
 8037TIP3   OH245525   2.408   2.933   4.924  0.0080  0.1080  0.4477
 8037TIP3    H145526   2.502   2.930   4.942  0.0057  1.2337  0.7256
 8037TIP3    H245527   2.390   2.853   4.874  1.2118  0.1542 -0.0775
 8038TIP3   OH245528   6.537   2.083   3.329  0.1603 -0.3025  0.0197
 8038TIP3    H145529   6.492   2.085   3.413  0.2607 -1.7683  0.1353
 8038TIP3    H245530   6.467   2.070   3.265  0.0792  0.8545 -0.1572
 8039TIP3   OH245531   5.875   6.272  11.290  0.5876 -0.2826 -0.0122
 8039TIP3    H145532   5.851   6.246  11.201  0.2890 -0.6794  0.1803
 8039TIP3    H245533   5.832   6.207  11.346 -0.2936  0.6904  0.4925
 8040TIP3   OH245534   1.818   2.034   3.810  0.2917 -0.4362 -0.1976
 8040TIP3    H145535   1.749   2.099   3.797 -0.9711 -1.7533 -0.2503
 8040TIP3    H245536   1.826   2.026   3.905  1.8012  1.1312 -0.1286
 8041TIP3   OH245537   4.007   5.972   0.438 -0.2039  0.0615 -0.0046
 8041TIP3    H145538   3.913   5.978   0.422 -0.3475 -0.1895  0.6999
 8041TIP3    H245539   4.025   5.878   0.442  0.0267  0.1099  0.1436
 8042TIP3   OH245540   4.452   5.813  16.425  0.0884  0.1903 -0.2715
 8042TIP3    H145541   4.458   5.805  16.330 -0.8314  1.1490 -0.4270
 8042TIP3    H245542   4.464   5.907  16.442 -0.2950  0.1067  0.5077
 8043TIP3   OH245543   3.826   3.750  10.275 -0.2141 -0.0207  0.1377
 8043TIP3    H145544   3.852   3.842  10.274 -0.5322  0.0773  0.7066
 8043TIP3    H245545   3.739   3.750  10.314  0.6079 -0.7820  2.0586
 8044TIP3   OH245546   5.720   3.612   3.082  0.6086 -0.0053 -0.0909
 8044TIP3    H145547   5.688   3.695   3.117  0.8913 -0.0925  0.3829
 8044TIP3    H245548   5.656   3.547   3.113 -0.0623  0.1358 -1.1361
 8045TIP3   OH245549   0.160   1.291   2.512 -0.0063 -0.1960  0.6160
 8045TIP3    H145550   0.206   1.228   2.568  0.8944  0.1135  0.2406
 8045TIP3    H245551   0.171   1.375   2.555 -1.9492 -0.3597  1.5791
 8046TIP3   OH245552   2.592   6.024  10.801 -0.0226  0.3209  0.2228
 8046TIP3    H145553   2.534   5.951  10.821 -1.0057  1.4576  1.7705
 8046TIP3    H245554   2.663   6.017  10.866 -0.2121  0.7998  0.4951
 8047TIP3   OH245555   1.727   3.280   2.998 -0.1840  0.0383 -0.2753
 8047TIP3    H145556   1.704   3.291   3.090 -2.7055 -0.9255 -0.7033
 8047TIP3    H245557   1.815   3.241   2.999  0.6929  1.8982  1.6093
 8048TIP3   OH245558   6.697   2.640  17.309 -0.1720 -0.3094 -0.4038
 8048TIP3    H145559   6.701   2.670  17.400 -1.2396  2.0080 -1.0590
 8048TIP3    H245560   6.604   2.626  17.292 -0.0289 -0.2605 -1.2697
 8049TIP3   OH245561   1.272   4.526   5.876  0.0383  0.0771  0.1163
 8049TIP3    H145562   1.258   4.437   5.845  1.5197  0.3658 -1.4897
 8049TIP3    H245563   1.286   4.516   5.970 -2.1749 -1.0765  0.3966
 8050TIP3   OH245564   0.707   6.630   6.263 -0.4286 -0.1333 -0.1094
 8050TIP3    H145565   0.694   6.722   6.240 -1.1135 -0.3550 -0.6534
 8050TIP3    H245566   0.722   6.631   6.358 -2.2044  0.3946  0.2084
 8051TIP3   OH245567   2.710   2.863  16.426  0.4474 -0.2741  0.5061
 8051TIP3    H145568   2.625   2.839  16.464  1.0479 -1.4380  1.1461
 8051TIP3    H245569   2.687   2.910  16.345 -0.8099  0.0857  1.0389
 8052TIP3   OH245570   2.800   1.913  15.993  0.0105 -0.4282  0.2985
 8052TIP3    H145571   2.733   1.856  16.030 -0.6622  0.5863  0.6816
 8052TIP3    H245572   2.809   1.883  15.902  0.5571 -1.9203  0.8122
 8053TIP3   OH245573   0.130   4.643  12.374 -0.0345  0.0026  0.4771
 8053TIP3    H145574   0.089   4.695  12.305 -0.6343 -1.7063 -0.5318
 8053TIP3    H245575   0.224   4.658  12.363 -0.0453 -0.9153 -1.3707
 8054TIP3   OH245576   3.997   5.104   5.414  0.0948 -0.2912  0.3400
 8054TIP3    H145577   4.072   5.164   5.425  0.3778 -0.1251 -2.0212
 8054TIP3    H245578   3.951   5.108   5.498  0.5365  2.6627  0.5450
 8055TIP3   OH245579   5.298   4.364   0.840 -0.3791 -0.1053  0.4078
 8055TIP3    H145580   5.210   4.401   0.830 -1.9482 -3.5637 -0.0812
 8055TIP3    H245581   5.284   4.285   0.892  1.9989 -2.1063 -1.7433
 8056TIP3   OH245582   0.296   1.012   1.650  0.3277 -0.3701  0.1955
 8056TIP3    H145583   0.276   0.926   1.689  0.5927 -0.3074  0.4715
 8056TIP3    H245584   0.389   1.025   1.667  0.7206 -0.8413 -1.4368
 8057TIP3   OH245585   1.142   4.526   4.003  0.3240  0.2412 -0.0512
 8057TIP3    H145586   1.227   4.501   4.041  0.3816 -2.2781 -1.5792
 8057TIP3    H245587   1.140   4.481   3.918 -2.8975 -0.5461  0.3107
 8058TIP3   OH245588   6.313   6.419  16.912  0.4187 -0.2334  0.2212
 8058TIP3    H145589   6.266   6.390  16.834 -1.1296  0.9284  0.6620
 8058TIP3    H245590   6.257   6.391  16.985  1.5510 -0.7854  0.9128
 8059TIP3   OH245591   5.005   2.263   1.941  0.1841  0.0521  0.0289
 8059TIP3    H145592   5.061   2.197   1.899  0.6910 -1.0283  2.2484
 8059TIP3    H245593   4.920   2.220   1.951 -0.1113  0.5222 -0.4247
 8060TIP3   OH245594   2.602   2.116  16.120 -0.1776 -0.8590  0.3818
 8060TIP3    H145595   2.575   2.095  16.210 -0.6759  0.7804  0.6398
 8060TIP3    H245596   2.542   2.065  16.065  0.0309 -1.7590  0.9541
 8061TIP3   OH245597   0.399   3.123   5.240 -0.3283  0.0735  0.4918
 8061TIP3    H145598   0.479   3.174   5.251  0.6005 -1.4056  0.8985
 8061TIP3    H245599   0.341   3.179   5.189  0.7909  1.3554  0.5777
 8062TIP3   OH245600   3.487   2.627   1.714 -1.1459 -0.2144  0.0285
 8062TIP3    H145601   3.462   2.633   1.806 -0.8168 -0.8079  0.1574
 8062TIP3    H245602   3.494   2.533   1.696 -1.7655 -0.1265 -0.7586
 8063TIP3   OH245603   6.576   0.968  11.880 -0.4930  0.3087 -0.2544
 8063TIP3    H145604   6.524   1.026  11.935 -0.9250  1.0282 -1.3946
 8063TIP3    H245605   6.656   1.018  11.860 -0.1886 -0.0752 -0.0157
 8064TIP3   OH245606   4.443   6.129  13.078  0.3465  0.3463  0.2071
 8064TIP3    H145607   4.398   6.169  13.004 -0.3136  3.3991  2.0656
 8064TIP3    H245608   4.379   6.070  13.117 -0.5681  1.4327  0.3731
 8065TIP3   OH245609   0.330   6.051   2.552 -0.0223  0.3629  0.1491
 8065TIP3    H145610   0.256   6.000   2.584 -0.0976  1.1843  1.3312
 8065TIP3    H245611   0.401   5.987   2.541 -0.3166 -0.1109  0.9479
 8066TIP3   OH245612   5.297   2.057  16.575  0.1187  0.3655 -0.4985
 8066TIP3    H145613   5.325   2.114  16.646  0.8101  0.5919 -0.9424
 8066TIP3    H245614   5.312   1.968  16.607 -0.9908  0.4109  0.2090
 8067TIP3   OH245615   3.801   1.022  12.418 -0.3739  0.2667 -0.3256
 8067TIP3    H145616   3.838   1.091  12.473 -1.9260  1.2359 -0.4370
 8067TIP3    H245617   3.709   1.046  12.408 -0.9375 -1.8050 -0.4304
 8068TIP3   OH245618   5.270   1.941   0.777  0.1594  0.0536  0.1520
 8068TIP3    H145619   5.328   1.870   0.805  1.7732  1.3789  0.2918
 8068TIP3    H245620   5.203   1.946   0.846  2.3671  1.3177  2.3713
 8069TIP3   OH245621   0.927   2.449  15.282 -0.7134 -0.3146  0.5023
 8069TIP3    H145622   0.870   2.502  15.337 -1.4296 -0.6753  0.1174
 8069TIP3    H245623   0.894   2.360  15.291 -0.9488 -0.3564 -0.6388
 8070TIP3   OH245624   0.772   6.563   2.579 -0.6364  0.5804  0.9639
 8070TIP3    H145625   0.805   6.628   2.641 -0.2541  1.7335 -0.4034
 8070TIP3    H245626   0.826   6.574   2.501  0.1622 -2.1384  1.0454
 8071TIP3   OH245627   2.337   2.845   5.309 -0.4996  0.2403 -0.3274
 8071TIP3    H145628   2.283   2.922   5.325  0.1229  0.4135  1.0562
 8071TIP3    H245629   2.295   2.801   5.235 -2.4468  0.4401  0.5945
 8072TIP3   OH245630   4.170   4.685  14.103 -0.2653 -0.0073 -0.0844
 8072TIP3    H145631   4.194   4.776  14.085 -1.8052  0.4687  0.0378
 8072TIP3    H245632   4.248   4.646  14.141  0.8574  0.8871 -1.3800
 8073TIP3   OH245633   5.606   2.756  15.329  0.3895  0.4470 -0.1311
 8073TIP3    H145634   5.615   2.664  15.353 -0.6113 -0.0466 -1.5701
 8073TIP3    H245635   5.663   2.767  15.253 -0.3302  0.7456 -0.6343
 8074TIP3   OH245636   4.589   1.821   5.906  0.5448 -0.6120  0.6371
 8074TIP3    H145637   4.626   1.740   5.942 -0.4581 -0.8386  1.2075
 8074TIP3    H245638   4.596   1.884   5.977  1.5240 -0.1161  0.1197
 8075TIP3   OH245639   2.008   5.667  15.107  0.5142 -0.2295 -0.0613
 8075TIP3    H145640   1.927   5.697  15.147 -0.3467 -3.4252  0.9005
 8075TIP3    H245641   2.010   5.707  15.020 -1.9107  0.1835  0.0267
 8076TIP3   OH245642   3.622   4.025  15.886 -0.7233  0.4739 -0.1289
 8076TIP3    H145643   3.648   4.114  15.863 -0.1545  0.1432 -0.8265
 8076TIP3    H245644   3.662   4.009  15.971 -0.6123  0.8038 -0.1188
 8077TIP3   OH245645   1.577   1.141   4.055  0.0447 -0.1352  1.0378
 8077TIP3    H145646   1.619   1.195   3.989 -1.1177 -0.0417  0.3385
 8077TIP3    H245647   1.578   1.053   4.018 -1.2138  0.0318  0.5624
 8078TIP3   OH245648   3.736   0.694  12.848 -0.3082  0.1155  0.1751
 8078TIP3    H145649   3.730   0.623  12.784  2.7356  0.5099 -0.6750
 8078TIP3    H245650   3.806   0.666  12.907 -1.1782  1.0462  1.6977
 8079TIP3   OH245651   6.232   0.472   0.382  0.2356  0.5011 -0.0317
 8079TIP3    H145652   6.167   0.537   0.355 -0.6908 -0.9178 -1.3932
 8079TIP3    H245653   6.231   0.407   0.312 -0.6697 -2.2942  2.3585
 8080TIP3   OH245654   0.837   1.630  11.420 -0.0477  0.2612  0.4398
 8080TIP3    H145655   0.905   1.580  11.465  0.7923  0.4227 -0.6165
 8080TIP3    H245656   0.812   1.576  11.345 -0.8211  0.3796  0.6016
 8081TIP3   OH245657   6.746   2.496  13.531  0.4714 -0.3402  0.0383
 8081TIP3    H145658   6.715   2.560  13.595  4.2698  0.3496  1.4639
 8081TIP3    H245659   6.799   2.435  13.582  2.2515 -0.7750 -2.1689
 8082TIP3   OH245660   4.662   2.230   0.887  0.0110  0.2458  0.3065
 8082TIP3    H145661   4.652   2.147   0.840  0.4685  0.2990  0.1161
 8082TIP3    H245662   4.575   2.247   0.924 -0.1749 -0.1380  0.0504
 8083TIP3   OH245663   3.011   3.840  16.258 -0.1518 -0.1896 -0.2306
 8083TIP3    H145664   2.953   3.899  16.211 -0.9853 -1.0803 -0.3677
 8083TIP3    H245665   3.051   3.786  16.190 -1.2582 -1.3937  0.0338
 8084TIP3   OH245666   3.863   5.001   0.540  0.0959  0.7750  0.1649
 8084TIP3    H145667   3.902   4.945   0.607  0.3373  1.7401  0.8447
 8084TIP3    H245668   3.904   5.086   0.552  2.1904  0.3642 -2.9718
 8085TIP3   OH245669   1.589   5.340  14.361 -0.2647  0.1304  0.1145
 8085TIP3    H145670   1.580   5.394  14.439 -0.4869 -2.6066  2.1264
 8085TIP3    H245671   1.683   5.331  14.348 -0.0831 -1.8616  2.0654
 8086TIP3   OH245672   6.559   6.377   6.544 -0.1532  0.1590  0.0408
 8086TIP3    H145673   6.503   6.313   6.500  0.5223  0.8937 -2.0108
 8086TIP3    H245674   6.638   6.328   6.568 -1.1212 -0.5994  1.8955
 8087TIP3   OH245675   2.956   0.003   1.898 -0.5154 -0.4146  0.4833
 8087TIP3    H145676   2.894   0.073   1.918 -1.0942 -0.9625  0.6340
 8087TIP3    H245677   2.903  -0.066   1.858  0.1216 -0.5966 -0.0609
 8088TIP3   OH245678   0.159   2.868  16.691 -0.0966  0.2201 -0.9420
 8088TIP3    H145679   0.169   2.951  16.645  0.1340  0.9688  0.4179
 8088TIP3    H245680   0.180   2.888  16.782 -1.5724 -0.9773 -0.2869
 8089TIP3   OH245681   1.208   0.908  11.500 -0.2242 -0.1723  0.3240
 8089TIP3    H145682   1.161   0.825  11.497 -0.2531 -0.1399 -0.2851
 8089TIP3    H245683   1.287   0.894  11.448 -1.2317  0.7738 -1.5723
 8090TIP3   OH245684   6.651   0.353   3.844  0.0650  0.2361  0.0226
 8090TIP3    H145685   6.626   0.352   3.937  1.5450  1.6496  0.4816
 8090TIP3    H245686   6.666   0.446   3.824 -0.1595 -0.0564 -1.6197
 8091TIP3   OH245687   4.805   2.648   3.725 -0.8582  0.3595  0.5007
 8091TIP3    H145688   4.869   2.667   3.658 -1.0220 -0.4193  0.1119
 8091TIP3    H245689   4.808   2.553   3.735 -3.2354  0.0505 -0.8634
 8092TIP3   OH245690   6.236   3.757   4.589  0.1446 -0.3405 -0.3187
 8092TIP3    H145691   6.232   3.693   4.660 -0.3281 -0.1211 -0.1436
 8092TIP3    H245692   6.327   3.788   4.590  0.1568 -0.3904  0.1441
 8093TIP3   OH245693   0.202   0.277  17.038 -0.1439 -0.5228  0.0058
 8093TIP3    H145694   0.254   0.207  17.079  2.6250  0.5099 -1.5165
 8093TIP3    H245695   0.175   0.332  17.112  2.2977 -0.2801  0.8319
 8094TIP3   OH245696   1.461   0.782   0.979 -0.1445  0.0803  0.5348
 8094TIP3    H145697   1.432   0.692   0.989 -0.0635  0.1452  1.4946
 8094TIP3    H245698   1.551   0.782   1.012  0.7560  0.0208 -1.7401
 8095TIP3   OH245699   3.392   1.381  12.504 -0.6641 -0.5578 -0.2140
 8095TIP3    H145700   3.425   1.424  12.426 -0.8207 -1.4042 -0.7539
 8095TIP3    H245701   3.411   1.442  12.575  2.2236 -1.0620 -0.4546
 8096TIP3   OH245702   5.395   5.664   2.522  0.0447  0.0216 -0.1719
 8096TIP3    H145703   5.436   5.586   2.485 -0.4093  0.9729 -2.8472
 8096TIP3    H245704   5.308   5.667   2.483 -1.0898  0.3311  2.1707
 8097TIP3   OH245705   1.407   1.549  15.370  0.0337 -0.3798 -0.9222
 8097TIP3    H145706   1.368   1.521  15.453 -0.6527  0.0470 -1.0961
 8097TIP3    H245707   1.500   1.563  15.391 -0.1356 -0.2645 -0.2185
 8098TIP3   OH245708   4.618   3.606   5.195 -0.3305  0.1791 -0.2066
 8098TIP3    H145709   4.601   3.518   5.228 -0.2129  0.3212  0.2450
 8098TIP3    H245710   4.710   3.622   5.218 -0.1587  0.1706 -0.8653
 8099TIP3   OH245711   4.713   6.535   1.555 -0.3610 -0.2612 -0.3588
 8099TIP3    H145712   4.629   6.490   1.545 -0.1295 -1.0095  0.8797
 8099TIP3    H245713   4.690   6.627   1.564 -1.1832 -0.5796  1.2581
 8100TIP3   OH245714   6.065   0.897   6.362 -0.0614 -0.2296 -0.1712
 8100TIP3    H145715   6.097   0.975   6.409 -0.8791  0.1636 -0.2460
 8100TIP3    H245716   6.139   0.869   6.309 -0.4374  1.9431 -2.0167
 8101TIP3   OH245717   1.053   6.647   5.023  0.3871  0.7101 -0.0943
 8101TIP3    H145718   1.075   6.610   4.937  0.8212  0.9084 -0.0757
 8101TIP3    H245719   1.081   6.581   5.085  1.1584  1.0480 -0.0614
 8102TIP3   OH245720   2.825   0.563   0.042 -0.1717 -0.2581  0.0856
 8102TIP3    H145721   2.755   0.564   0.108 -0.6107  1.4537 -0.3317
 8102TIP3    H245722   2.882   0.636   0.067  1.6244 -1.7360  0.5172
 8103TIP3   OH245723   2.792   0.983  11.941  0.0467  0.6648 -0.3367
 8103TIP3    H145724   2.770   1.065  11.897  1.4001  2.4149  2.0022
 8103TIP3    H245725   2.827   1.010  12.026 -0.1350 -2.3954  0.8383
 8104TIP3   OH245726   2.638   4.337   2.124  0.2680 -0.4465  0.8308
 8104TIP3    H145727   2.676   4.423   2.109 -0.8642 -0.2913 -1.5281
 8104TIP3    H245728   2.678   4.307   2.206  4.6443  0.1285 -0.8336
 8105TIP3   OH245729   3.509   0.198   6.737  0.1455  0.2606 -0.2579
 8105TIP3    H145730   3.584   0.193   6.796  0.0285 -0.6951 -0.1706
 8105TIP3    H245731   3.436   0.161   6.787  0.1807 -1.1707 -1.1826
 8106TIP3   OH245732   5.138   4.088  13.610  0.7200 -0.1964  0.3605
 8106TIP3    H145733   5.160   4.094  13.517 -0.4672  0.7699  0.1288
 8106TIP3    H245734   5.173   4.169  13.648 -0.7311  0.4579  0.3351
 8107TIP3   OH245735   5.177   4.106   1.577  0.5745 -0.3448  0.2677
 8107TIP3    H145736   5.110   4.098   1.509 -1.2964  0.1317  1.9368
 8107TIP3    H245737   5.248   4.155   1.535 -0.8612  0.6624 -1.1130
 8108TIP3   OH245738   1.013   5.709   0.997 -0.0525  0.2533  0.8033
 8108TIP3    H145739   1.076   5.649   1.037  0.5567  0.7115  0.5355
 8108TIP3    H245740   1.010   5.684   0.905  1.3835  1.6183  0.3476
 8109TIP3   OH245741   1.714   3.807   4.259 -0.0358  0.1398  0.2370
 8109TIP3    H145742   1.713   3.853   4.175 -0.6666 -1.2089 -0.5363
 8109TIP3    H245743   1.624   3.776   4.271 -0.1213  0.8921  1.7674
 8110TIP3   OH245744   5.224   2.572  12.555 -0.1686  0.1401  0.4205
 8110TIP3    H145745   5.314   2.564  12.525 -0.8034 -1.2402 -1.2494
 8110TIP3    H245746   5.231   2.613  12.642  1.9458  1.3600 -0.2690
 8111TIP3   OH245747   3.399   4.960  12.894  0.2840  0.0376  0.0521
 8111TIP3    H145748   3.386   5.054  12.885 -0.2270 -0.1639 -1.7514
 8111TIP3    H245749   3.329   4.932  12.952 -0.2640  0.6115 -0.3201
 8112TIP3   OH245750   0.351   0.841   5.567 -0.6095 -0.5151  0.1845
 8112TIP3    H145751   0.315   0.810   5.483  0.0621 -1.6384  0.2892
 8112TIP3    H245752   0.444   0.821   5.562 -0.3871  0.3462  0.8025
 8113TIP3   OH245753   0.755   0.567  15.164 -0.2044  0.2156 -0.4392
 8113TIP3    H145754   0.838   0.550  15.208  0.2074 -0.5508 -1.4529
 8113TIP3    H245755   0.690   0.519  15.215  0.2367 -0.5254 -0.5535
 8114TIP3   OH245756   3.877   1.471  13.563 -0.6143 -0.5514 -0.4887
 8114TIP3    H145757   3.906   1.398  13.508 -0.4410  0.3787 -1.6900
 8114TIP3    H245758   3.925   1.460  13.645 -1.4867 -2.4404 -0.1684
 8115TIP3   OH245759   0.441   5.570   2.091  0.4579  0.2133 -0.2751
 8115TIP3    H145760   0.405   5.615   2.014  0.6568 -1.0297 -1.1416
 8115TIP3    H245761   0.527   5.538   2.062  0.7388  0.1314  0.6250
 8116TIP3   OH245762   6.370   0.197  12.550 -0.0087 -0.0363 -0.5774
 8116TIP3    H145763   6.448   0.174  12.500 -0.6767  0.6330 -1.9841
 8116TIP3    H245764   6.391   0.171  12.640  1.2738 -1.1656 -1.1588
 8117TIP3   OH245765   5.325   5.862  13.889 -0.0942  0.3660 -0.4377
 8117TIP3    H145766   5.236   5.857  13.925  0.5389  0.2907  1.1989
 8117TIP3    H245767   5.314   5.843  13.796 -1.4841 -2.3806  0.1657
 8118TIP3   OH245768   4.965   2.995   3.378  0.2683 -0.2107 -1.1786
 8118TIP3    H145769   5.051   2.960   3.355  1.2978  1.4807 -0.0955
 8118TIP3    H245770   4.943   3.054   3.305  0.7365  0.5007 -0.7560
 8119TIP3   OH245771   6.047   1.911   2.022  0.3258  0.9539  0.0213
 8119TIP3    H145772   6.026   1.928   2.114  0.3944 -0.4772  0.3160
 8119TIP3    H245773   5.967   1.874   1.985  1.0621 -0.8939  0.1809
 8120TIP3   OH245774   0.274   6.281  13.165  0.3424  0.0821 -0.2567
 8120TIP3    H145775   0.282   6.375  13.178  0.0626  0.4818 -2.5359
 8120TIP3    H245776   0.196   6.270  13.110  0.1376 -1.5178  0.2966
 8121TIP3   OH245777   6.671   2.236  15.437 -0.1044  0.3268 -0.0432
 8121TIP3    H145778   6.636   2.195  15.516  1.0377  1.2872  0.9981
 8121TIP3    H245779   6.738   2.175  15.405 -0.1309  0.2255  0.0989
 8122TIP3   OH245780   2.228   5.463   4.206 -0.9750 -0.2535  0.1606
 8122TIP3    H145781   2.194   5.507   4.283 -0.8089 -0.2919  0.2574
 8122TIP3    H245782   2.315   5.500   4.193  0.0168 -1.9926  1.4643
 8123TIP3   OH245783   6.093   2.093   5.481  0.1066  0.2055  0.1126
 8123TIP3    H145784   6.022   2.052   5.433  2.4444 -0.8072 -2.8497
 8123TIP3    H245785   6.164   2.029   5.478  1.4236  1.4608  2.2102
 8124TIP3   OH245786   5.459   4.737  16.157  0.0000  0.2070  0.4153
 8124TIP3    H145787   5.503   4.653  16.140 -0.1819  0.2257 -0.1654
 8124TIP3    H245788   5.367   4.720  16.137  0.1835  0.9547 -1.2428
 8125TIP3   OH245789   0.458   5.159   4.411 -0.4444 -0.0256 -0.1435
 8125TIP3    H145790   0.404   5.089   4.374 -0.4336  0.1774 -0.5455
 8125TIP3    H245791   0.413   5.183   4.492 -1.8211  1.1811 -1.2011
 8126TIP3   OH245792   3.286   3.384   4.981 -0.4251 -0.1528 -0.1956
 8126TIP3    H145793   3.314   3.293   4.974  0.7599  0.1239  0.5929
 8126TIP3    H245794   3.211   3.391   4.922  0.7993 -1.1149 -1.9606
 8127TIP3   OH245795   6.311   2.583   0.864  0.6062 -0.4641 -0.4516
 8127TIP3    H145796   6.223   2.602   0.896  1.4069 -0.4370  1.9640
 8127TIP3    H245797   6.331   2.497   0.900  1.5791 -0.4489 -0.9294
 8128TIP3   OH245798   3.223   0.666   1.139  0.5834  0.2535 -0.5796
 8128TIP3    H145799   3.147   0.619   1.104 -0.3736  1.2813  0.0697
 8128TIP3    H245800   3.197   0.758   1.141  1.6840  0.5770  0.0710
 8129TIP3   OH245801   6.251   3.360   5.281  0.4090  0.1422 -1.0774
 8129TIP3    H145802   6.215   3.430   5.335  1.2260  1.6438 -2.3904
 8129TIP3    H245803   6.321   3.322   5.333 -0.6409 -0.3393  0.0169
 8130TIP3   OH245804   4.605   0.773  17.123  0.2269 -0.1462  0.1492
 8130TIP3    H145805   4.575   0.808  17.207 -0.1821  1.1406 -0.5100
 8130TIP3    H245806   4.660   0.841  17.086  0.2847 -0.6357 -0.7040
 8131TIP3   OH245807   0.161   1.308   2.170 -0.2839 -0.3611 -0.0242
 8131TIP3    H145808   0.174   1.278   2.080  0.5949  0.9038 -0.3408
 8131TIP3    H245809   0.240   1.279   2.216 -1.0170 -1.5834  0.5358
 8132TIP3   OH245810   1.358   1.335   3.547 -0.2856 -0.0702  0.7734
 8132TIP3    H145811   1.329   1.284   3.472 -2.3978 -0.3824  1.7401
 8132TIP3    H245812   1.454   1.328   3.545 -0.4081 -2.1760 -0.4002
 8133TIP3   OH245813   5.622   4.506  12.250  0.3186  0.9745  0.1077
 8133TIP3    H145814   5.655   4.439  12.191 -0.6566 -0.3743  1.0370
 8133TIP3    H245815   5.598   4.459  12.330 -2.1879  2.0771  0.1069
 8134TIP3   OH245816   4.137   4.015   4.171  0.2193  0.4031 -0.0619
 8134TIP3    H145817   4.103   4.102   4.193  1.6914  1.1124 -0.4719
 8134TIP3    H245818   4.073   3.955   4.208 -0.8403  1.6533  0.2326
 8135TIP3   OH245819   2.844   6.454  11.101  0.5566 -0.4424  0.0506
 8135TIP3    H145820   2.902   6.527  11.081  1.0818 -0.1355  2.3203
 8135TIP3    H245821   2.862   6.390  11.033  1.6265  0.7138 -0.8093
 8136TIP3   OH245822   4.230   0.193  12.879 -0.0487  0.1704 -0.6173
 8136TIP3    H145823   4.185   0.277  12.872 -0.2667  0.1370  0.3408
 8136TIP3    H245824   4.212   0.162  12.968  1.0836 -0.2851 -0.5242
 8137TIP3   OH245825   1.892   1.099   6.638  0.6404  0.1302  0.0618
 8137TIP3    H145826   1.983   1.125   6.623  0.8263  0.4558  1.5864
 8137TIP3    H245827   1.841   1.177   6.618  0.5451 -0.3937 -1.9607
 8138TIP3   OH245828   3.117   5.007   2.715 -0.0166  0.2836 -0.1510
 8138TIP3    H145829   3.145   4.979   2.802  1.0819  0.1563 -0.5317
 8138TIP3    H245830   3.101   5.101   2.723 -0.0440  0.2487  0.2092
 8139TIP3   OH245831   6.701   5.590  12.094 -0.1987 -0.3310 -0.5152
 8139TIP3    H145832   6.687   5.511  12.043  2.4112 -0.3629 -1.3188
 8139TIP3    H245833   6.697   5.560  12.185 -0.6886 -1.0910 -0.7752
 8140TIP3   OH245834   6.062   2.356  10.434 -0.0089  0.2803 -0.4040
 8140TIP3    H145835   5.985   2.323  10.389 -0.6172 -0.8339  1.3468
 8140TIP3    H245836   6.091   2.431  10.382 -0.2647 -1.2812 -2.9632
 8141TIP3   OH245837   6.498   1.115  12.625  0.0384  0.0155  0.0846
 8141TIP3    H145838   6.531   1.205  12.632  0.0205  0.2628 -2.1310
 8141TIP3    H245839   6.403   1.123  12.640  0.0942  0.3174  0.2765
 8142TIP3   OH245840   1.092   0.666  11.501  0.5347 -0.4846  0.0325
 8142TIP3    H145841   1.023   0.658  11.567  1.6506  0.3750  1.3691
 8142TIP3    H245842   1.140   0.583  11.507 -0.2408 -1.0121 -0.7763
 8143TIP3   OH245843   5.781   1.493  10.488  0.0549  0.2968 -0.1429
 8143TIP3    H145844   5.873   1.520  10.479 -0.0620  0.0047 -2.8382
 8143TIP3    H245845   5.780   1.401  10.463 -0.8206 -0.0365  1.0416
 8144TIP3   OH245846   5.289   0.267   2.199  0.5496 -0.0517  0.1620
 8144TIP3    H145847   5.303   0.255   2.293  0.4753  0.7267  0.2784
 8144TIP3    H245848   5.222   0.201   2.176  2.3012 -1.9277  0.1383
 8145TIP3   OH245849   1.025   4.275   0.876 -0.7311  0.0962 -0.0508
 8145TIP3    H145850   1.108   4.268   0.923 -0.8253 -1.6140 -0.0640
 8145TIP3    H245851   1.042   4.234   0.791 -0.6912  2.7470 -1.4346
 8146TIP3   OH245852   2.803   0.103   1.486 -0.0623  0.1173 -0.3105
 8146TIP3    H145853   2.770   0.151   1.562  0.5386 -0.3833  0.2794
 8146TIP3    H245854   2.757   0.019   1.489 -0.9578  0.5548 -1.2210
 8147TIP3   OH245855   0.407   6.562   0.328 -0.1129  0.4045 -0.4156
 8147TIP3    H145856   0.388   6.524   0.414  0.6229  0.1316 -0.3697
 8147TIP3    H245857   0.501   6.551   0.316  0.2161  2.5802 -0.2328
 8148TIP3   OH245858   5.280   3.936   2.297 -0.2064 -0.0316  0.0865
 8148TIP3    H145859   5.190   3.924   2.268  0.1010 -1.4860 -0.3582
 8148TIP3    H245860   5.291   4.031   2.302 -2.0780  0.1747  1.2173
 8149TIP3   OH245861   2.538   3.392  11.930 -0.3081 -0.1808  0.7183
 8149TIP3    H145862   2.632   3.409  11.925 -0.8491  3.2883 -1.7407
 8149TIP3    H245863   2.508   3.444  12.005 -0.2330 -1.7328  1.8478
 8150TIP3   OH245864   4.389   6.288  17.263  0.2818 -0.2998  0.0442
 8150TIP3    H145865   4.345   6.253  17.340  0.6042 -0.5027  0.1365
 8150TIP3    H245866   4.369   6.226  17.193 -0.1396 -0.0334 -0.0732
 8151TIP3   OH245867   6.577   2.203  16.064  0.0303  0.6569 -0.1210
 8151TIP3    H145868   6.505   2.159  16.019 -0.2987  2.5012 -1.5117
 8151TIP3    H245869   6.654   2.150  16.044 -0.6595 -0.4610  0.0638
 8152TIP3   OH245870   5.833   0.948  11.159 -0.1031 -0.6515  0.5276
 8152TIP3    H145871   5.827   0.864  11.204 -0.7021 -0.2833  1.1406
 8152TIP3    H245872   5.743   0.968  11.133 -0.0150 -0.0378  0.6891
 8153TIP3   OH245873   0.056   1.040   0.536 -0.2519 -0.7522 -0.1300
 8153TIP3    H145874   0.112   1.020   0.611 -0.6653  1.6416  0.9297
 8153TIP3    H245875   0.111   1.092   0.478 -1.3233  1.9746  1.1130
 8154TIP3   OH245876   2.366   5.100   0.424  0.1965 -0.2092 -0.4333
 8154TIP3    H145877   2.366   5.195   0.431  0.1491 -0.3146  1.7953
 8154TIP3    H245878   2.447   5.072   0.467 -1.2065 -1.2267  1.7963
 8155TIP3   OH245879   2.342   1.961   2.736 -0.0128  0.0306 -0.6520
 8155TIP3    H145880   2.340   1.868   2.715  2.4181 -0.4654  1.0000
 8155TIP3    H245881   2.254   1.980   2.770 -0.8890 -1.3358 -2.0084
 8156TIP3   OH245882   2.174   1.872  12.806  0.3851  0.0073 -0.1105
 8156TIP3    H145883   2.117   1.836  12.873  1.2147 -0.7819  0.1896
 8156TIP3    H245884   2.114   1.906  12.740 -0.4359 -0.3813  0.4168
 8157TIP3   OH245885   2.947   3.703   6.453  0.6348 -0.2671  0.1098
 8157TIP3    H145886   3.010   3.775   6.454 -1.3688  1.5640  0.8151
 8157TIP3    H245887   2.999   3.626   6.429  3.3216  0.9387  1.6447
 8158TIP3   OH245888   1.524   3.802  15.086  0.0663  0.5284 -0.1908
 8158TIP3    H145889   1.594   3.854  15.126  1.4770 -1.3195 -0.0848
 8158TIP3    H245890   1.450   3.810  15.146 -0.3481  3.5604 -0.9318
 8159TIP3   OH245891   3.549   4.627  14.702  0.1891 -0.0092  0.2626
 8159TIP3    H145892   3.552   4.594  14.792  1.3016 -2.0512 -0.4724
 8159TIP3    H245893   3.641   4.637  14.677 -0.0921  2.5375 -0.0166
 8160TIP3   OH245894   0.684   0.247  15.299  0.6806 -0.0735 -0.0232
 8160TIP3    H145895   0.634   0.257  15.380 -0.3683  0.2665 -0.6817
 8160TIP3    H245896   0.769   0.285  15.318  0.0596  1.0609  0.5722
 8161TIP3   OH245897   5.277   6.290   5.252 -0.0757 -0.9188 -0.2012
 8161TIP3    H145898   5.280   6.297   5.156  2.4562 -0.1571 -0.1487
 8161TIP3    H245899   5.368   6.304   5.279 -0.6289 -1.7388  2.2961
 8162TIP3   OH245900   1.203   0.311   5.742 -0.1196  0.0203  1.2277
 8162TIP3    H145901   1.198   0.222   5.775  2.3190 -0.2403  1.0830
 8162TIP3    H245902   1.234   0.363   5.817  2.8946 -0.1226  0.2127
 8163TIP3   OH245903   4.261   3.787  12.786  0.1252 -0.2476  0.2349
 8163TIP3    H145904   4.174   3.782  12.824  0.5261  0.6032  1.3056
 8163TIP3    H245905   4.294   3.873  12.812  1.4198 -0.6973  0.1497
 8164TIP3   OH245906   5.358   4.558   4.085  0.3115 -0.4334  0.3114
 8164TIP3    H145907   5.314   4.503   4.020 -0.1118 -0.7735  0.8788
 8164TIP3    H245908   5.289   4.579   4.149  0.4369  0.8489  0.0493
 8165TIP3   OH245909   6.183   4.426  16.521  0.4517  0.1520  0.0071
 8165TIP3    H145910   6.228   4.466  16.446 -0.8036 -0.3142 -1.0371
 8165TIP3    H245911   6.090   4.432  16.498  0.1194 -1.2207  0.9105
 8166TIP3   OH245912   5.815   3.265  14.888 -0.4983  0.5013 -0.1228
 8166TIP3    H145913   5.797   3.347  14.933  0.4445  0.2246  0.8236
 8166TIP3    H245914   5.794   3.282  14.796  0.8739  2.2201 -0.1831
 8167TIP3   OH245915   3.248   4.600  10.973 -0.0017 -0.0320 -0.0434
 8167TIP3    H145916   3.322   4.659  10.983  0.8949 -1.3337  1.4070
 8167TIP3    H245917   3.264   4.530  11.036 -1.5581 -1.2788 -0.9471
 8168TIP3   OH245918   3.892   2.526  12.328 -0.2027  0.2267  0.1038
 8168TIP3    H145919   3.898   2.549  12.235 -1.7561 -1.5991 -0.5218
 8168TIP3    H245920   3.846   2.599  12.369 -0.9096  0.3582 -0.8885
 8169TIP3   OH245921   3.632   2.550   2.946  0.0106 -0.0627 -0.8387
 8169TIP3    H145922   3.657   2.585   3.031 -1.1866  0.8508 -0.8266
 8169TIP3    H245923   3.714   2.521   2.906  0.5344 -1.0228  0.8319
 8170TIP3   OH245924   4.089   0.448  12.890  0.2709 -0.0686 -0.0869
 8170TIP3    H145925   4.000   0.471  12.860  0.5095 -1.0913 -1.6988
 8170TIP3    H245926   4.141   0.526  12.870 -0.4570  1.0478  2.0594
 8171TIP3   OH245927   3.565   0.816  15.989  0.2203 -0.4748  0.2537
 8171TIP3    H145928   3.537   0.738  16.037 -0.1255 -0.4965  0.0191
 8171TIP3    H245929   3.500   0.882  16.010  0.0843 -0.4732 -0.1492
 8172TIP3   OH245930   5.609   4.809  11.491  0.2834 -0.0334  0.1459
 8172TIP3    H145931   5.611   4.868  11.416  2.0018 -0.6004 -0.2939
 8172TIP3    H245932   5.524   4.766  11.485  0.5497 -0.3872 -1.7495
 8173TIP3   OH245933   4.913   2.401   3.064 -0.0516  0.2293  0.2064
 8173TIP3    H145934   4.971   2.340   3.109 -1.7228  1.7961  5.0279
 8173TIP3    H245935   4.973   2.463   3.022  1.6207 -2.0754 -1.0219
 8174TIP3   OH245936   1.822   2.582  13.373 -0.3111  0.2757 -0.4796
 8174TIP3    H145937   1.773   2.535  13.306 -1.2566  0.1663  0.2673
 8174TIP3    H245938   1.912   2.550  13.364 -0.6468 -0.5540 -0.9775
 8175TIP3   OH245939   6.378   2.032  15.304 -0.2956  0.2803 -0.4426
 8175TIP3    H145940   6.364   2.126  15.298 -0.6674  0.3055  0.5129
 8175TIP3    H245941   6.428   2.020  15.385 -0.2538 -0.3384 -0.5520
 8176TIP3   OH245942   4.690   4.439   1.489 -0.1964 -0.3890  0.3153
 8176TIP3    H145943   4.705   4.356   1.443 -0.2790  0.3960 -1.2006
 8176TIP3    H245944   4.698   4.417   1.582  0.6581 -1.9124 -0.0832
 8177TIP3   OH245945   3.244   1.934   2.775 -0.6987 -0.3144 -0.2546
 8177TIP3    H145946   3.326   1.963   2.816 -1.1775 -0.9153  1.2218
 8177TIP3    H245947   3.187   1.914   2.849 -2.2122  0.1616 -1.2618
 8178TIP3   OH245948   3.257   4.689   3.810 -0.5184 -0.3409 -0.0892
 8178TIP3    H145949   3.169   4.726   3.816  0.2364  1.4600  0.8618
 8178TIP3    H245950   3.276   4.686   3.717 -0.8157  1.3015 -0.2371
 8179TIP3   OH245951   1.417   2.264  14.632 -0.1592 -0.1635  0.3087
 8179TIP3    H145952   1.407   2.172  14.609  1.3503 -0.1803 -0.3889
 8179TIP3    H245953   1.477   2.265  14.706  1.8095  0.3372 -1.2032
 8180TIP3   OH245954   4.596   6.724  17.254 -0.1822 -0.2319 -0.4346
 8180TIP3    H145955   4.543   6.773  17.191 -2.3871 -0.8145  0.8504
 8180TIP3    H245956   4.660   6.677  17.200 -2.2878 -1.1145 -2.3368
 8181TIP3   OH245957   6.159   1.968   5.164  0.2620  0.0342  0.0831
 8181TIP3    H145958   6.204   2.002   5.087  1.2651  1.2485  1.1721
 8181TIP3    H245959   6.223   1.910   5.205 -0.3406 -0.7659 -0.0821
 8182TIP3   OH245960   4.770   1.655  16.272  0.3333  0.1151 -0.4672
 8182TIP3    H145961   4.718   1.630  16.349  1.1512 -1.0326 -0.2592
 8182TIP3    H245962   4.858   1.666  16.306  1.0811 -2.1143 -1.4746
 8183TIP3   OH245963   3.223   2.807  16.175 -0.3655 -0.0831  0.3358
 8183TIP3    H145964   3.171   2.737  16.135 -1.9797  0.8139  0.7727
 8183TIP3    H245965   3.209   2.795  16.269  0.7763 -0.2159  0.4997
 8184TIP3   OH245966   4.814   4.554  11.992  0.0768  0.2054  0.3690
 8184TIP3    H145967   4.907   4.539  11.977  0.3770  1.6375  0.7200
 8184TIP3    H245968   4.810   4.622  12.059 -1.2317 -0.4162  0.9634
 8185TIP3   OH245969   0.350   1.277   3.788 -0.7832 -0.0945  0.1200
 8185TIP3    H145970   0.417   1.280   3.720 -1.5488 -1.2816 -0.7225
 8185TIP3    H245971   0.394   1.239   3.864 -0.0619  0.7663  0.1510
 8186TIP3   OH245972   0.007   2.478   1.922 -0.1460 -0.1925 -0.2192
 8186TIP3    H145973  -0.050   2.551   1.896  2.0217  1.5797 -0.3353
 8186TIP3    H245974   0.063   2.514   1.991  2.4786 -0.9700 -1.7698
 8187TIP3   OH245975   5.232   0.149   1.419  0.0271  0.3469 -0.0113
 8187TIP3    H145976   5.300   0.083   1.404  0.9107  0.6482  2.2087
 8187TIP3    H245977   5.151   0.099   1.429  0.3514 -0.2270 -0.2123
 8188TIP3   OH245978   1.797   5.934  13.249  0.6071  0.0926 -1.0613
 8188TIP3    H145979   1.780   5.886  13.330 -1.3738  1.1993 -0.7611
 8188TIP3    H245980   1.792   6.026  13.275  0.0563  0.4578 -2.4279
 8189TIP3   OH245981   5.022   1.951  12.049  0.0209 -0.3850 -0.5488
 8189TIP3    H145982   5.068   2.013  12.105 -1.5491  0.3754 -0.0348
 8189TIP3    H245983   5.059   1.965  11.962  2.3019 -1.3894  0.1896
 8190TIP3   OH245984   4.070   4.241   5.418  0.5886  0.3035 -0.2135
 8190TIP3    H145985   4.014   4.226   5.342 -0.2662 -1.2532  0.6664
 8190TIP3    H245986   4.128   4.312   5.392 -0.5809  0.7163 -1.8175
 8191TIP3   OH245987   5.469   5.812  12.889  0.3481  0.4943  0.5434
 8191TIP3    H145988   5.409   5.778  12.955 -0.0731  0.1516 -0.0120
 8191TIP3    H245989   5.414   5.831  12.813  1.2745 -2.6439 -1.0894
 8192TIP3   OH245990   4.912   4.162   2.340  0.3427 -0.1423  0.1993
 8192TIP3    H145991   4.890   4.130   2.427 -1.2381  2.1726  0.7481
 8192TIP3    H245992   4.830   4.199   2.306  1.5895  1.7264 -1.0018
 8193TIP3   OH245993   0.677   1.282  14.627  0.6436  0.5795 -0.4962
 8193TIP3    H145994   0.601   1.324  14.587  0.4584 -0.7480 -1.6290
 8193TIP3    H245995   0.745   1.349  14.626 -0.4456  1.7510  0.4173
 8194TIP3   OH245996   4.108   2.938   1.396 -0.0048  0.2996 -0.1063
 8194TIP3    H145997   4.179   2.880   1.370 -1.3845 -2.1537  1.2981
 8194TIP3    H245998   4.150   3.025   1.403  1.8945 -0.2323 -3.2411
 8195TIP3   OH245999   6.678   5.537  12.366  0.0288  0.6372  0.2939
 8195TIP3    H146000   6.615   5.580  12.424 -0.0299  0.5213  0.3160
 8195TIP3    H246001   6.716   5.467  12.419  0.2522  0.7712  0.3143
 8196TIP3   OH246002   1.894   2.320   0.729 -0.0262  0.3478 -0.3754
 8196TIP3    H146003   1.933   2.294   0.813  1.8314 -1.1858 -1.6467
 8196TIP3    H246004   1.956   2.383   0.692  1.0357 -1.5800 -2.0956
 8197TIP3   OH246005   6.224   5.820   5.501  0.5547 -0.0286 -1.0110
 8197TIP3    H146006   6.132   5.846   5.493  0.1541 -1.0705 -0.0202
 8197TIP3    H246007   6.273   5.901   5.488 -0.6043  1.1064  1.1023
 8198TIP3   OH246008   4.358   1.493  11.861  0.0538 -0.2343  0.9394
 8198TIP3    H146009   4.303   1.496  11.783  1.4134 -1.6009 -0.1390
 8198TIP3    H246010   4.305   1.534  11.930 -1.1490  1.0874 -0.6959
 8199TIP3   OH246011   1.915   2.711   1.076 -0.2439 -0.2528 -0.0942
 8199TIP3    H146012   1.966   2.792   1.079 -0.3080 -0.2320  0.8483
 8199TIP3    H246013   1.905   2.686   1.168 -1.1610 -0.7413 -0.3149
 8200TIP3   OH246014   3.851   4.459  16.562 -0.3508  0.0685  0.2088
 8200TIP3    H146015   3.870   4.547  16.596  1.0512 -0.2539  0.3203
 8200TIP3    H246016   3.902   4.401  16.618 -2.9528 -1.0713  1.5811
 8201TIP3   OH246017   0.730   6.569   4.522  0.8153 -0.6335  0.1516
 8201TIP3    H146018   0.773   6.494   4.564 -1.3031 -1.1597  1.5700
 8201TIP3    H246019   0.637   6.548   4.527  0.2942  0.9533 -1.7594
 8202TIP3   OH246020   5.693   5.109  15.333  0.4711  0.0816  0.5818
 8202TIP3    H146021   5.670   5.029  15.380 -3.7767 -0.0653 -1.2763
 8202TIP3    H246022   5.622   5.170  15.355  1.2057  1.7936 -1.4570
 8203TIP3   OH246023   1.669   1.473   2.800 -0.0572  0.1278  0.0269
 8203TIP3    H146024   1.617   1.459   2.720  0.3267 -1.3513  0.0002
 8203TIP3    H246025   1.759   1.454   2.773  0.0198 -0.8647  0.9050
 8204TIP3   OH246026   0.280   6.647  14.340 -0.0206  0.3376 -0.2148
 8204TIP3    H146027   0.362   6.657  14.291 -1.6880 -0.4769 -3.4801
 8204TIP3    H246028   0.284   6.558  14.375  0.8608  0.6484  0.5378
 8205TIP3   OH246029   6.134   2.250   3.178 -0.5129 -0.3332  0.1567
 8205TIP3    H146030   6.138   2.266   3.272 -0.0162 -1.2459  0.3060
 8205TIP3    H246031   6.108   2.334   3.140 -0.2354  0.1758  1.0641
 8206TIP3   OH246032   0.700   3.858   2.091 -0.3111  0.1350  0.0922
 8206TIP3    H146033   0.673   3.832   2.003 -0.1645  1.6263 -0.4195
 8206TIP3    H246034   0.735   3.778   2.130 -1.9362 -0.9565 -0.5808
 8207TIP3   OH246035   4.625   1.331  11.063 -0.2168  0.2126  0.0317
 8207TIP3    H146036   4.558   1.387  11.024  0.4228 -0.8262 -2.8460
 8207TIP3    H246037   4.684   1.310  10.990  1.8939 -0.8549  1.9093
 8208TIP3   OH246038   5.620   0.785   0.520  0.0430 -0.0115 -0.6588
 8208TIP3    H146039   5.703   0.812   0.559 -0.3450  0.5977 -0.2543
 8208TIP3    H246040   5.640   0.701   0.479  0.2695 -1.0671  1.5024
 8209TIP3   OH246041   2.279   0.580   6.196  0.1431  0.2620  0.1875
 8209TIP3    H146042   2.368   0.615   6.193 -0.2700  1.4052  0.7062
 8209TIP3    H246043   2.225   0.653   6.229 -1.2677  0.1688 -1.7595
 8210TIP3   OH246044   1.756   0.772   1.636 -0.4045 -0.8012  0.0815
 8210TIP3    H146045   1.768   0.855   1.681  1.4043 -0.1584 -1.4630
 8210TIP3    H246046   1.668   0.777   1.600 -0.5402  0.1923  0.5126
 8211TIP3   OH246047   4.799   3.321  16.105  0.1260  0.4384 -1.1233
 8211TIP3    H146048   4.879   3.279  16.137 -1.4275 -2.7340 -0.9650
 8211TIP3    H246049   4.829   3.380  16.036  2.5344 -1.9906 -2.3533
 8212TIP3   OH246050   0.946   6.267   2.419  0.2670 -0.0776 -0.6008
 8212TIP3    H146051   0.957   6.178   2.452 -0.6017 -1.2377 -3.1329
 8212TIP3    H246052   1.021   6.281   2.360 -0.7879 -0.0901 -2.0069
 8213TIP3   OH246053   3.299   2.807   0.527  0.4288  0.0067 -0.2717
 8213TIP3    H146054   3.348   2.769   0.600  1.1707 -0.8233 -1.1826
 8213TIP3    H246055   3.238   2.868   0.569  1.1000 -0.1646  1.0106
 8214TIP3   OH246056   6.560   3.621  13.327 -0.0331  0.1020  0.1896
 8214TIP3    H146057   6.480   3.570  13.336  0.3758 -0.3188  1.6276
 8214TIP3    H246058   6.533   3.701  13.281 -1.1491 -0.3021  0.1285
 8215TIP3   OH246059   4.925   2.877   6.087 -0.0620 -0.4366 -0.4226
 8215TIP3    H146060   4.932   2.806   6.151 -2.1719 -0.2109  0.1502
 8215TIP3    H246061   4.915   2.956   6.140 -1.0309 -0.1482 -0.9908
 8216TIP3   OH246062   6.451   5.036   2.608  0.3709 -0.0555 -0.4526
 8216TIP3    H146063   6.516   5.081   2.663  0.9168 -1.2875 -0.0658
 8216TIP3    H246064   6.499   4.964   2.568 -1.0313 -1.8109  0.8826
 8217TIP3   OH246065   2.948   3.477   5.760 -0.7326  0.3993 -0.6422
 8217TIP3    H146066   2.918   3.563   5.731 -1.2698  0.2073 -0.6678
 8217TIP3    H246067   3.011   3.451   5.693  0.0469  1.1171 -0.2072
 8218TIP3   OH246068   0.921   4.297   1.463  0.5158  0.5809 -0.2852
 8218TIP3    H146069   0.938   4.351   1.386 -1.6792  1.5167 -0.2018
 8218TIP3    H246070   0.880   4.218   1.428  2.1812 -0.3275 -0.2686
 8219TIP3   OH246071   2.134   4.358   4.990 -0.5877 -0.3280 -0.9294
 8219TIP3    H146072   2.210   4.302   4.978 -0.4318 -0.0932 -1.0304
 8219TIP3    H246073   2.128   4.409   4.910 -1.1145 -0.6603 -1.1083
 8220TIP3   OH246074   1.325   2.461   3.723  0.4787  0.5922 -0.2906
 8220TIP3    H146075   1.321   2.366   3.736  0.8555  0.3917 -1.4795
 8220TIP3    H246076   1.379   2.471   3.644  3.0481  1.9253  1.4837
 8221TIP3   OH246077   4.140   1.456  16.496  0.0463  0.3630  0.0405
 8221TIP3    H146078   4.091   1.397  16.440 -0.3103  1.5846 -0.9826
 8221TIP3    H246079   4.216   1.405  16.524 -0.3474 -0.6258 -0.6391
 8222TIP3   OH246080   4.796   1.632  13.694  0.4627 -0.0029  0.3091
 8222TIP3    H146081   4.746   1.713  13.690 -0.2183 -0.4626 -1.0031
 8222TIP3    H246082   4.884   1.659  13.722 -0.0583  1.0141  1.0114
 8223TIP3   OH246083   5.895   1.139  11.356 -0.0671 -0.1047 -0.3922
 8223TIP3    H146084   5.887   1.063  11.298 -1.9244 -0.9934  0.9084
 8223TIP3    H246085   5.819   1.132  11.415 -0.7545  3.1911 -0.7030
 8224TIP3   OH246086   2.715   5.612   5.608  0.7901  0.6677 -0.1513
 8224TIP3    H146087   2.671   5.684   5.561  0.7381  0.7598  0.0385
 8224TIP3    H246088   2.643   5.563   5.647  0.8711  0.9730  0.3836
 8225TIP3   OH246089   3.034   1.725   0.995 -0.0383  0.5945  0.7324
 8225TIP3    H146090   3.057   1.798   1.052 -0.7808  0.8096  0.7694
 8225TIP3    H246091   2.975   1.763   0.929 -0.6212 -0.0056  0.8909
 8226TIP3   OH246092   1.063   3.707  11.623  0.2574 -0.2518 -0.1331
 8226TIP3    H146093   1.077   3.739  11.712  1.9529 -0.7744 -0.1639
 8226TIP3    H246094   1.029   3.618  11.635  1.3637 -0.6737  0.0365
 8227TIP3   OH246095   6.407   2.317  15.761  0.1098  0.0196 -0.2102
 8227TIP3    H146096   6.325   2.347  15.723  0.3333  0.2465 -0.5164
 8227TIP3    H246097   6.472   2.379  15.729  0.4553 -0.3582 -0.2428
 8228TIP3   OH246098   3.776   0.385   0.726 -1.0019 -0.5911 -0.6672
 8228TIP3    H146099   3.812   0.338   0.651 -0.1860 -1.4752  0.2515
 8228TIP3    H246100   3.852   0.408   0.779 -1.6812 -1.9082  0.9812
 8229TIP3   OH246101   5.853   1.473  11.502  0.0528  0.1677  0.0830
 8229TIP3    H146102   5.901   1.394  11.474 -0.5964 -0.3826  0.4991
 8229TIP3    H246103   5.922   1.536  11.522  0.5857 -0.2477 -0.3709
 8230TIP3   OH246104   5.566   0.576  15.605 -0.9077 -0.1886 -0.2752
 8230TIP3    H146105   5.603   0.661  15.630  0.3020 -1.2243  1.7641
 8230TIP3    H246106   5.610   0.553  15.524 -2.3631  1.7486 -1.7075
 8231TIP3   OH246107   5.005   0.516  12.665 -0.5148  0.0530 -0.0460
 8231TIP3    H146108   4.977   0.529  12.755 -1.2577  1.5646 -0.4783
 8231TIP3    H246109   5.007   0.421  12.654 -2.4088 -0.1376  0.9543
 8232TIP3   OH246110   1.002   1.341   0.007 -0.5640 -0.1078  0.5766
 8232TIP3    H146111   0.968   1.253   0.021  0.1981 -0.4057  0.6012
 8232TIP3    H246112   1.090   1.339   0.044 -0.7229  0.8160  1.0471
 8233TIP3   OH246113   6.227   5.686  14.236 -0.4955 -0.0821  0.2405
 8233TIP3    H146114   6.183   5.689  14.321 -0.9091 -1.5967  0.1106
 8233TIP3    H246115   6.212   5.596  14.204  1.1861 -0.0977 -0.6160
 8234TIP3   OH246116   5.650   2.129  17.159  0.4203  0.3987  0.2779
 8234TIP3    H146117   5.716   2.106  17.093  0.2331 -1.2990  0.6511
 8234TIP3    H246118   5.594   2.052  17.166  0.8116  0.2712  2.8851
 8235TIP3   OH246119   6.138   4.062  12.865  0.3457  0.6358  0.4525
 8235TIP3    H146120   6.233   4.061  12.857  0.3942  1.9737  0.6456
 8235TIP3    H246121   6.107   3.999  12.799  1.3773 -0.3383  0.8802
 8236TIP3   OH246122   2.150   4.727  14.077  0.3446 -0.2574 -0.0796
 8236TIP3    H146123   2.167   4.656  14.015  1.5734  0.7040 -0.9084
 8236TIP3    H246124   2.133   4.683  14.160  1.6378 -1.5238 -0.4340
 8237TIP3   OH246125   3.779   3.541   3.634 -0.1197  0.0889  0.1347
 8237TIP3    H146126   3.774   3.548   3.539  0.7688  0.7914  0.1297
 8237TIP3    H246127   3.818   3.455   3.649 -1.9551 -0.8389 -0.0580
 8238TIP3   OH246128   4.025   5.838  16.519 -0.0256  0.4905 -0.2985
 8238TIP3    H146129   4.091   5.906  16.530 -0.1580  0.7386 -1.0004
 8238TIP3    H246130   4.061   5.781  16.450 -0.3714  0.4117 -0.4133
 8239TIP3   OH246131   1.587   2.177  12.213 -0.0220  0.2253 -0.0334
 8239TIP3    H146132   1.649   2.208  12.147 -1.3188  0.8608 -0.9927
 8239TIP3    H246133   1.628   2.199  12.297  2.1148 -1.4643 -0.5358
 8240TIP3   OH246134   2.427   4.276  13.388 -0.0385 -0.1028  0.2467
 8240TIP3    H146135   2.365   4.229  13.444 -0.0507 -0.5410 -0.1300
 8240TIP3    H246136   2.510   4.270  13.434  0.8356 -3.6137 -1.3802
 8241TIP3   OH246137   5.881   4.535   6.092  0.7345  0.2219 -0.0824
 8241TIP3    H146138   5.921   4.449   6.106 -0.1417 -0.0212  1.0755
 8241TIP3    H246139   5.942   4.597   6.133  0.5746 -0.0130  0.5164
 8242TIP3   OH246140   3.111   1.543   4.273 -0.2150 -0.1939  0.5823
 8242TIP3    H146141   3.095   1.470   4.212  0.5652  0.4642 -0.4401
 8242TIP3    H246142   3.206   1.545   4.283 -0.3648 -0.6096  2.2540
 8243TIP3   OH246143   3.256   0.363   1.374 -0.3603  0.6789 -0.1873
 8243TIP3    H146144   3.226   0.328   1.290  1.2815  2.0635 -1.4201
 8243TIP3    H246145   3.183   0.345   1.434 -1.9113  0.3064 -2.0522
 8244TIP3   OH246146   4.343   6.221   2.482 -0.2215 -0.8316  0.1163
 8244TIP3    H146147   4.326   6.312   2.459  0.6030 -0.7101 -0.0298
 8244TIP3    H246148   4.377   6.225   2.571 -1.2064 -1.0974  0.5134
 8245TIP3   OH246149   6.488   4.508  13.831  0.0172 -0.4122 -0.2640
 8245TIP3    H146150   6.473   4.603  13.826 -0.7499 -0.5496 -0.8515
 8245TIP3    H246151   6.583   4.498  13.828  0.1537  0.3880  0.8297
 8246TIP3   OH246152   5.045   2.324  16.622  0.6974 -0.0718  0.1232
 8246TIP3    H146153   4.995   2.258  16.671  0.3998  1.1211  1.4973
 8246TIP3    H246154   5.039   2.296  16.531  0.7320 -2.0312  0.6853
 8247TIP3   OH246155   0.315   0.381   1.194  0.3488 -0.1927 -0.2770
 8247TIP3    H146156   0.374   0.386   1.270  0.8503 -0.2091 -0.6593
 8247TIP3    H246157   0.372   0.356   1.122 -0.1817 -0.4662 -0.6027
 8248TIP3   OH246158   4.388   5.713  17.095 -0.4829  0.6209  0.2720
 8248TIP3    H146159   4.338   5.738  17.173  0.3157  0.3358  0.8813
 8248TIP3    H246160   4.421   5.796  17.060 -2.0927  0.9160 -0.6553
 8249TIP3   OH246161   2.386   2.930   2.375  0.6773 -0.3326  0.5186
 8249TIP3    H146162   2.430   2.896   2.297  0.2218  1.3304 -0.5280
 8249TIP3    H246163   2.298   2.952   2.346  0.4033  0.0514  1.5851
 8250TIP3   OH246164   2.240   5.511  10.962 -0.1427  0.0671  0.6066
 8250TIP3    H146165   2.239   5.594  10.914  1.9454  0.0394  0.4363
 8250TIP3    H246166   2.291   5.452  10.907 -0.9619 -1.1298  1.0886
 8251TIP3   OH246167   1.335   3.819   4.951 -0.0690  0.4161  0.3361
 8251TIP3    H146168   1.263   3.780   5.002 -0.3632 -0.8334 -0.9644
 8251TIP3    H246169   1.401   3.749   4.946  0.4813  0.9523  0.0625
 8252TIP3   OH246170   3.476   6.607   5.637  0.4352  0.2552  0.1426
 8252TIP3    H146171   3.388   6.623   5.671 -0.4836 -2.1086 -0.9158
 8252TIP3    H246172   3.514   6.544   5.698  0.8660  0.1688 -0.2083
 8253TIP3   OH246173   3.356   2.883  13.872  0.2287 -0.2103  0.1440
 8253TIP3    H146174   3.442   2.844  13.858 -0.4010 -0.3527 -4.8265
 8253TIP3    H246175   3.313   2.881  13.787 -4.2413  1.1663  2.0271
 8254TIP3   OH246176   0.049   0.739   1.301 -0.1241  0.2682  0.2277
 8254TIP3    H146177   0.105   0.722   1.225 -2.1717  0.7752 -1.4722
 8254TIP3    H246178   0.081   0.823   1.335  1.5211 -0.4953  0.6507
 8255TIP3   OH246179   4.670   2.149   4.689  0.1279 -0.0751 -0.1328
 8255TIP3    H146180   4.718   2.199   4.623  3.3103  1.6111  3.1108
 8255TIP3    H246181   4.601   2.209   4.718  1.0270  0.6910  0.5125
 8256TIP3   OH246182   1.137   5.066  13.938  0.5393 -0.0665 -0.2426
 8256TIP3    H146183   1.227   5.095  13.919  0.5025 -0.0544 -0.3988
 8256TIP3    H246184   1.093   5.070  13.854  0.7209 -1.2710 -0.4059
 8257TIP3   OH246185   3.751   3.910   3.612  0.1712 -0.0512  0.0726
 8257TIP3    H146186   3.729   3.855   3.688  1.1047  0.2445  0.5787
 8257TIP3    H246187   3.762   3.848   3.540  0.1136 -0.4245  0.3796
 8258TIP3   OH246188   2.504   3.490  12.375  0.4977 -0.3373 -0.7598
 8258TIP3    H146189   2.575   3.428  12.394 -0.5341 -0.9956  1.1764
 8258TIP3    H246190   2.443   3.479  12.448 -1.2080  0.8029 -1.9682
 8259TIP3   OH246191   6.045   3.397   4.515  0.7231  0.0270 -0.1745
 8259TIP3    H146192   6.133   3.407   4.477  0.6931 -0.8946 -0.5049
 8259TIP3    H246193   6.003   3.331   4.461  0.0938 -0.1054  0.4656
 8260TIP3   OH246194   0.310   0.367  13.905  0.6410 -0.3074  0.4088
 8260TIP3    H146195   0.285   0.296  13.846 -0.4966 -0.0535  0.5722
 8260TIP3    H246196   0.378   0.415  13.858 -0.4212  0.0445 -0.8196
 8261TIP3   OH246197   5.692   6.115  14.034 -0.2682  0.0884  0.0357
 8261TIP3    H146198   5.732   6.131  13.948  1.0308  1.3201  0.8115
 8261TIP3    H246199   5.678   6.020  14.037  0.0952 -0.0352 -1.3372
 8262TIP3   OH246200   2.856   0.190  13.141 -0.3811 -0.1496 -0.7397
 8262TIP3    H146201   2.859   0.170  13.234  1.6373 -0.3080 -0.7932
 8262TIP3    H246202   2.925   0.255  13.127 -0.2373 -0.5651 -2.1958
 8263TIP3   OH246203   4.201   2.774  13.894 -0.6294 -0.3689 -0.5254
 8263TIP3    H146204   4.127   2.831  13.873 -0.9470 -0.7553 -0.4557
 8263TIP3    H246205   4.164   2.686  13.895 -0.7671 -0.3727  2.0672
 8264TIP3   OH246206   5.071   4.103  16.551  0.0743 -0.2235  0.3078
 8264TIP3    H146207   4.978   4.084  16.562  0.2669 -1.9906 -0.6328
 8264TIP3    H246208   5.113   4.057  16.623  0.3343 -0.8618 -0.2429
 8265TIP3   OH246209   5.071   1.425   0.084  0.1320 -0.0155  0.4932
 8265TIP3    H146210   5.077   1.520   0.093 -1.4722  0.0117  1.6675
 8265TIP3    H246211   5.149   1.401   0.034  0.0880  2.0123 -0.6798
 8266TIP3   OH246212   4.514   1.997  11.135 -0.1308 -0.1620 -0.1631
 8266TIP3    H146213   4.542   1.973  11.047  0.8958 -1.2363  0.4386
 8266TIP3    H246214   4.594   2.017  11.182 -0.5701 -0.6584  0.8331
 8267TIP3   OH246215   1.588   6.343  13.140 -0.4654  0.3115 -0.1099
 8267TIP3    H146216   1.618   6.337  13.231 -1.7222  1.3147  0.4140
 8267TIP3    H246217   1.496   6.371  13.147 -0.7360 -0.0692 -1.6799
 8268TIP3   OH246218   5.327   4.108   3.273  0.4125 -0.4719  0.0617
 8268TIP3    H146219   5.339   4.023   3.315  1.9607 -0.2892  0.0357
 8268TIP3    H246220   5.392   4.109   3.202 -0.1441  0.4054 -0.4503
 8269TIP3   OH246221   4.361   5.245  15.231 -0.1707  1.0808 -0.0924
 8269TIP3    H146222   4.382   5.235  15.324 -3.8454 -0.0086  0.7819
 8269TIP3    H246223   4.267   5.228  15.225 -0.0901  0.9572 -4.0691
 8270TIP3   OH246224   6.108   1.613   2.084 -0.1482 -0.0882  0.7576
 8270TIP3    H146225   6.071   1.695   2.115  2.9529  1.7903 -0.0539
 8270TIP3    H246226   6.170   1.587   2.152  0.8059 -0.3082 -0.1703
 8271TIP3   OH246227   3.153   1.927  12.389 -0.1388  0.2952 -0.1779
 8271TIP3    H146228   3.171   1.837  12.415  0.5873  0.1350 -1.1685
 8271TIP3    H246229   3.227   1.977  12.424  0.4589  0.1932 -1.2679
 8272TIP3   OH246230   2.044   4.506  13.103  0.0399 -0.4608 -0.3699
 8272TIP3    H146231   1.987   4.432  13.126  1.0736 -1.0550  0.3655
 8272TIP3    H246232   2.119   4.497  13.161  1.0101  0.1614 -1.4893
 8273TIP3   OH246233   1.707   4.545  13.462  0.5211  0.1099  0.0214
 8273TIP3    H146234   1.622   4.529  13.423  0.1390 -0.7760  1.1708
 8273TIP3    H246235   1.707   4.638  13.484  0.0997  0.2429 -0.5336
 8274TIP3   OH246236   1.811   5.871   0.214 -0.2749 -0.5555  0.1696
 8274TIP3    H146237   1.853   5.904   0.135 -1.7019  2.6748  0.6171
 8274TIP3    H246238   1.733   5.826   0.181 -1.0012  0.9885 -0.3089
 8275TIP3   OH246239   4.221   3.743   5.717 -0.4865  0.3896  0.0780
 8275TIP3    H146240   4.267   3.665   5.687 -1.1239  0.0711 -0.0992
 8275TIP3    H246241   4.141   3.745   5.665 -0.5249  1.1096  0.1505
 8276TIP3   OH246242   4.834   1.762   4.891  0.4777 -0.5955  0.6066
 8276TIP3    H146243   4.765   1.829   4.901 -0.5899 -1.3492 -1.1568
 8276TIP3    H246244   4.810   1.694   4.953 -0.9471 -1.2517 -0.5967
 8277TIP3   OH246245   0.165   0.875  11.492  0.0911  0.0019 -0.2122
 8277TIP3    H146246   0.181   0.951  11.548 -0.3802 -1.0803  1.4416
 8277TIP3    H246247   0.114   0.910  11.419  0.2684  1.3546  0.2831
 8278TIP3   OH246248   2.107   5.559  11.385 -0.0850 -0.0964  0.2658
 8278TIP3    H146249   2.097   5.581  11.478 -0.1462 -0.0592  0.2503
 8278TIP3    H246250   2.033   5.603  11.342 -0.6497 -0.9558  0.3308
 8279TIP3   OH246251   2.541   5.037   2.557  0.3291  0.1432 -0.7061
 8279TIP3    H146252   2.628   5.014   2.524  0.6578  0.1877  0.1133
 8279TIP3    H246253   2.488   4.959   2.540  1.4447 -1.3768  2.0936
 8280TIP3   OH246254   6.604   3.357   4.496 -0.6387  0.0873 -0.1798
 8280TIP3    H146255   6.522   3.308   4.491 -1.2021  0.8416  1.1860
 8280TIP3    H246256   6.666   3.295   4.535 -1.3356  0.3834  1.5003
 8281TIP3   OH246257   4.947   4.852   3.620 -0.1972 -0.0622  0.1981
 8281TIP3    H146258   5.016   4.888   3.676  1.1574 -1.9693 -0.1265
 8281TIP3    H246259   4.928   4.766   3.658 -1.5548 -0.0858 -0.4481
 8282TIP3   OH246260   2.751   1.006   2.611  0.5821 -0.4513  0.0413
 8282TIP3    H146261   2.812   1.052   2.669 -0.7268  0.3506  0.8443
 8282TIP3    H246262   2.805   0.942   2.564  1.9763  0.0620  0.8963
 8283TIP3   OH246263   4.591   1.308  14.942  0.2563 -0.3401 -0.0264
 8283TIP3    H146264   4.601   1.226  14.990 -0.3695  0.4521  1.5066
 8283TIP3    H246265   4.517   1.292  14.882  1.2975 -1.4614 -1.0637
 8284TIP3   OH246266   5.999   3.772   2.115  0.2408 -0.2993 -0.9448
 8284TIP3    H146267   5.947   3.847   2.146 -1.0673 -1.1203 -1.1017
 8284TIP3    H246268   6.053   3.808   2.045  1.1053  0.9400  0.2938
 8285TIP3   OH246269   3.026   4.991  12.638  0.2640  0.0152 -0.0169
 8285TIP3    H146270   3.051   5.060  12.577 -1.6084  0.9674  0.2205
 8285TIP3    H246271   3.032   5.032  12.724 -1.3450  0.0575  0.0900
 8286TIP3   OH246272   6.632   3.769  14.357  0.4052 -0.4476  0.2362
 8286TIP3    H146273   6.717   3.760  14.316  0.4480 -0.6279  0.3642
 8286TIP3    H246274   6.651   3.779  14.451  0.3621  0.8696  0.1234
 8287TIP3   OH246275   1.119   4.372  13.979 -0.5264 -0.6929 -0.1010
 8287TIP3    H146276   1.124   4.456  14.024 -0.3568 -1.5815  1.6156
 8287TIP3    H246277   1.025   4.358  13.965 -0.5803 -0.3981 -0.0303
 8288TIP3   OH246278   5.256   1.120  14.940  0.9208  0.2975  0.4667
 8288TIP3    H146279   5.341   1.078  14.950  1.6488  0.8345 -2.5588
 8288TIP3    H246280   5.248   1.136  14.846 -2.9072 -0.4824  0.5028
 8289TIP3   OH246281   1.587   3.913  12.321  0.1543  0.3186 -0.2156
 8289TIP3    H146282   1.575   4.008  12.326 -1.3551  0.2189 -1.2721
 8289TIP3    H246283   1.570   3.891  12.230  1.3233 -0.8855 -0.1700
 8290TIP3   OH246284   4.113   4.471   3.619  1.0525  0.2744 -0.1384
 8290TIP3    H146285   4.187   4.420   3.587 -0.8193 -1.8729 -1.3328
 8290TIP3    H246286   4.036   4.418   3.597 -0.7957  1.8827  1.9940
 8291TIP3   OH246287   2.283   2.174   2.602 -0.3248 -0.0371 -0.0557
 8291TIP3    H146288   2.310   2.086   2.626 -0.4817 -0.6087 -1.8273
 8291TIP3    H246289   2.349   2.231   2.641 -0.4038 -0.8933  1.3863
 8292TIP3   OH246290   4.829   3.965   1.139  0.0644  0.2922  0.8408
 8292TIP3    H146291   4.867   3.891   1.092  0.1313  0.0986  1.1977
 8292TIP3    H246292   4.815   3.933   1.228 -0.9430  0.3530  0.7202
 8293TIP3   OH246293   2.065   3.260   5.508 -0.1751 -0.2000 -0.6575
 8293TIP3    H146294   2.089   3.346   5.473  0.9957 -0.2595 -0.0416
 8293TIP3    H246295   1.977   3.273   5.544  0.0427  0.7811 -0.4406
 8294TIP3   OH246296   2.296   5.038   1.157 -0.5381 -0.5846 -0.1208
 8294TIP3    H146297   2.325   5.123   1.125 -2.0331  0.3557  0.8985
 8294TIP3    H246298   2.332   5.031   1.246  0.3832 -1.4725 -0.5386
 8295TIP3   OH246299   1.740   1.732  12.706 -0.2538  0.2153 -0.1813
 8295TIP3    H146300   1.809   1.681  12.663 -0.7010  0.6386 -1.4401
 8295TIP3    H246301   1.788   1.796  12.758  0.3048 -0.3033 -0.0442
 8296TIP3   OH246302   2.020   2.574   1.607  0.1982 -0.5430  0.0111
 8296TIP3    H146303   1.931   2.605   1.619  0.3420  0.4483 -1.2649
 8296TIP3    H246304   2.066   2.597   1.688 -0.1718  0.9130 -0.1769
 8297TIP3   OH246305   4.735   2.436   6.379  0.4687 -0.4164  0.6950
 8297TIP3    H146306   4.810   2.435   6.440  1.2186 -1.0919 -0.2103
 8297TIP3    H246307   4.741   2.353   6.332 -0.2566 -0.0275 -0.1094
 8298TIP3   OH246308   6.701   1.483   1.651  0.0398  0.0264 -0.1697
 8298TIP3    H146309   6.631   1.534   1.692 -0.0878  0.1285 -0.5115
 8298TIP3    H246310   6.656   1.427   1.588  0.2739  0.1705 -0.4702
 8299TIP3   OH246311   3.763   0.199   6.830 -0.2823  0.6149  0.6774
 8299TIP3    H146312   3.833   0.202   6.896  0.8720 -0.4632 -0.4383
 8299TIP3    H246313   3.789   0.262   6.763 -0.4630  0.3188  0.3235
 8300TIP3   OH246314   3.154   5.881   3.079  0.5120 -0.1899 -0.5890
 8300TIP3    H146315   3.168   5.950   3.015 -1.0006  0.0873 -0.6677
 8300TIP3    H246316   3.178   5.920   3.163  1.6616 -0.2680 -0.8710
 8301TIP3   OH246317   6.312   0.900  12.437  0.1826  0.3567  0.2394
 8301TIP3    H146318   6.311   0.836  12.509  2.0239  0.8004  0.7314
 8301TIP3    H246319   6.304   0.985  12.481  0.9620  0.6094 -0.0887
 8302TIP3   OH246320   6.160   4.942   5.159 -0.7450 -0.0719 -0.4316
 8302TIP3    H146321   6.107   5.005   5.208  0.0348  1.0177 -0.9567
 8302TIP3    H246322   6.112   4.929   5.077 -2.2249 -2.1527  0.6894
 8303TIP3   OH246323   4.637   2.546  14.605 -0.0035 -0.1367  0.0121
 8303TIP3    H146324   4.557   2.559  14.655 -0.4146 -0.2992 -0.5937
 8303TIP3    H246325   4.643   2.452  14.592 -1.3011  0.0434 -2.4451
 8304TIP3   OH246326   2.906   1.621  11.591 -0.2560  0.5853  0.1661
 8304TIP3    H146327   2.938   1.710  11.592 -0.3969  0.6342  1.1943
 8304TIP3    H246328   2.984   1.566  11.581  0.1683  0.7071  2.4445
 8305TIP3   OH246329   0.399   4.158  15.248 -0.1766  0.2182  0.4105
 8305TIP3    H146330   0.465   4.115  15.303  0.3556  0.7541  0.2018
 8305TIP3    H246331   0.450   4.203  15.180 -0.7599  0.5801  0.2045
 8306TIP3   OH246332   1.351   2.692   4.870 -0.3584 -0.7378 -0.0922
 8306TIP3    H146333   1.306   2.776   4.878 -1.0454 -1.0687 -0.4167
 8306TIP3    H246334   1.438   2.708   4.906  0.2041  0.6470 -1.9024
 8307TIP3   OH246335   6.565   3.671   0.594  0.2453 -0.2085 -0.3959
 8307TIP3    H146336   6.493   3.679   0.657  0.8712  1.2446  0.2024
 8307TIP3    H246337   6.567   3.756   0.550  1.0302 -0.5472 -1.0285
 8308TIP3   OH246338   1.775   3.886   1.550  0.3151 -0.7691  0.0582
 8308TIP3    H146339   1.862   3.906   1.514 -0.3212  0.7303 -0.7321
 8308TIP3    H246340   1.718   3.882   1.473 -0.4972 -0.7149  0.6547
 8309TIP3   OH246341   0.107   5.736   0.336 -0.5102  0.3389 -0.5280
 8309TIP3    H146342   0.021   5.779   0.343 -1.3654 -0.4643 -3.9639
 8309TIP3    H246343   0.087   5.648   0.303  1.5912 -0.2814 -0.3051
 8310TIP3   OH246344   4.768   2.914   1.757 -0.4326 -0.0364 -0.0899
 8310TIP3    H146345   4.820   2.849   1.709 -1.1426 -0.5367 -0.1924
 8310TIP3    H246346   4.744   2.870   1.839  0.8587  0.8499  0.7928
 8311TIP3   OH246347   3.741   0.811  16.856 -0.4221  0.4761  0.2799
 8311TIP3    H146348   3.747   0.793  16.763  0.2011 -0.9964  0.5864
 8311TIP3    H246349   3.801   0.885  16.870  1.1806 -0.6861 -0.1474
 8312TIP3   OH246350   1.237   0.831   4.884 -0.2060 -0.4475 -0.2573
 8312TIP3    H146351   1.142   0.822   4.895 -0.5431  3.0148  1.0981
 8312TIP3    H246352   1.247   0.910   4.831  1.8584  0.5935  1.5387
 8313TIP3   OH246353   1.125   1.646  15.472 -0.0949 -0.7744 -0.4760
 8313TIP3    H146354   1.199   1.589  15.496  0.2098 -0.1947  0.0082
 8313TIP3    H246355   1.106   1.624  15.381  3.3003  1.7846 -2.0333
 8314TIP3   OH246356   1.365   2.586   0.029 -0.3398 -0.2066 -0.1495
 8314TIP3    H146357   1.452   2.551   0.046 -0.4093 -0.7829 -0.9114
 8314TIP3    H246358   1.374   2.636  -0.053 -0.3701  1.1058  0.6250
 8315TIP3   OH246359   5.897   4.454  15.393 -0.0820  0.2637 -0.0143
 8315TIP3    H146360   5.931   4.543  15.390  0.8736 -0.0030  1.7383
 8315TIP3    H246361   5.904   4.428  15.485 -1.5696 -1.1581 -0.2462
 8316TIP3   OH246362   4.804   3.045   0.551  0.1771 -0.2192  0.0941
 8316TIP3    H146363   4.795   3.087   0.466  1.8588  1.5216  0.7087
 8316TIP3    H246364   4.851   2.964   0.532  0.1364 -0.0693 -0.6943
 8317TIP3   OH246365   4.883   0.691   2.100 -0.0692  0.1154  0.4824
 8317TIP3    H146366   4.915   0.631   2.167  0.8372 -0.6150 -0.5780
 8317TIP3    H246367   4.918   0.657   2.018  0.2589  1.9427 -0.1842
 8318TIP3   OH246368   2.586   2.623  12.659 -0.0794 -0.1004  0.0844
 8318TIP3    H146369   2.642   2.562  12.610  0.4162  0.2020  0.2688
 8318TIP3    H246370   2.510   2.570  12.684  0.0590 -0.4825 -0.2780
 8319TIP3   OH246371   4.089   3.627   4.688  0.0531  0.0913  0.0173
 8319TIP3    H146372   4.063   3.658   4.775 -2.4577  0.5503 -0.8247
 8319TIP3    H246373   4.060   3.697   4.629  2.6420  0.2751 -1.1613
 8320TIP3   OH246374   3.277   6.690   2.103 -0.5855  0.3600 -0.3568
 8320TIP3    H146375   3.197   6.708   2.152  0.8916 -1.0156  2.8820
 8320TIP3    H246376   3.275   6.596   2.087 -0.5916  0.6408 -2.2633
 8321TIP3   OH246377   4.120   4.474   5.016 -0.4676  0.2550  0.5013
 8321TIP3    H146378   4.133   4.479   4.922  0.9751 -0.1621  0.6583
 8321TIP3    H246379   4.051   4.538   5.034 -1.0907  0.0032 -0.8824
 8322TIP3   OH246380   2.217   0.046  16.295  0.2120  1.0440 -0.2728
 8322TIP3    H146381   2.241   0.130  16.255  1.2935  1.2601  0.7931
 8322TIP3    H246382   2.140   0.017  16.245  0.0623  2.4693 -0.9082
 8323TIP3   OH246383   5.349   2.477  11.352 -0.2438 -0.3468 -0.2114
 8323TIP3    H146384   5.312   2.512  11.271 -0.1115  1.9743  0.6562
 8323TIP3    H246385   5.285   2.500  11.419  0.6189 -0.3772  0.6381
 8324TIP3   OH246386   1.628   4.159   2.626 -0.3198 -0.2506 -0.4084
 8324TIP3    H146387   1.561   4.152   2.693  1.1328  2.5684  1.5547
 8324TIP3    H246388   1.676   4.076   2.631 -1.8022 -1.1023  0.2181
 8325TIP3   OH246389   2.003   4.617   0.199 -0.3346  0.3748 -0.8234
 8325TIP3    H146390   1.992   4.599   0.292 -1.9295  1.2891 -0.7905
 8325TIP3    H246391   2.056   4.697   0.195  1.0777 -0.5352 -0.7719
 8326TIP3   OH246392   5.143   1.229   3.739 -0.0253 -0.1402 -0.2808
 8326TIP3    H146393   5.089   1.302   3.768 -1.2225 -1.3008  0.5153
 8326TIP3    H246394   5.180   1.258   3.656 -1.5320  0.8675 -0.6356
 8327TIP3   OH246395   6.701   5.582  16.390  0.1880 -0.0161  0.4898
 8327TIP3    H146396   6.674   5.506  16.443  0.4688 -0.8786 -0.5643
 8327TIP3    H246397   6.641   5.583  16.316 -0.5728  1.5415  1.0923
 8328TIP3   OH246398   1.948   4.663  11.764  0.4138  0.4023  0.0400
 8328TIP3    H146399   1.984   4.622  11.843  0.6025 -0.4990 -0.4936
 8328TIP3    H246400   1.871   4.611  11.743 -1.1523  2.2051  1.0643
 8329TIP3   OH246401   3.569   6.374   3.559  0.3816 -0.0965 -0.5419
 8329TIP3    H146402   3.536   6.412   3.478 -3.2931 -1.1533  0.2745
 8329TIP3    H246403   3.531   6.286   3.562  0.3494 -0.0842  2.3167
 8330TIP3   OH246404   0.276   0.561   3.406 -0.5883 -0.1282 -0.5461
 8330TIP3    H146405   0.281   0.532   3.315 -0.4332  0.1354 -0.6229
 8330TIP3    H246406   0.206   0.626   3.406 -0.9072 -0.4721 -0.3832
 8331TIP3   OH246407   3.436   0.313   2.748  0.8164 -0.2572 -0.2321
 8331TIP3    H146408   3.517   0.285   2.706  2.2128  1.3515  1.1919
 8331TIP3    H246409   3.435   0.266   2.831  0.1532 -0.4606 -0.3534
 8332TIP3   OH246410   4.602   1.371  11.795 -0.1927  0.3222  0.0781
 8332TIP3    H146411   4.667   1.400  11.731  0.1026  1.2989  0.8123
 8332TIP3    H246412   4.527   1.430  11.781 -1.1213 -1.0374 -1.0356
 8333TIP3   OH246413   6.385   1.447   0.348  0.0256  0.7047 -0.1616
 8333TIP3    H146414   6.371   1.393   0.271 -0.7468 -0.1436  0.5448
 8333TIP3    H246415   6.469   1.416   0.384 -0.8939 -0.7979  0.8111
 8334TIP3   OH246416   3.111   2.360  13.214 -0.0800 -0.2029  0.5520
 8334TIP3    H146417   3.087   2.434  13.158  1.6630  0.9138  1.1959
 8334TIP3    H246418   3.075   2.283  13.169  0.1977  0.7725 -1.4700
 8335TIP3   OH246419   4.999   0.717  13.673  0.0006  0.2879 -0.0619
 8335TIP3    H146420   5.001   0.623  13.689  1.4476  0.2795 -0.2083
 8335TIP3    H246421   4.928   0.729  13.610  1.6117 -1.0855 -2.2760
 8336TIP3   OH246422   0.751   2.094   2.522  0.8144  0.0415 -0.1901
 8336TIP3    H146423   0.842   2.121   2.514  0.3759  2.1061  0.9191
 8336TIP3    H246424   0.753   1.999   2.516  3.0162  0.0546 -0.3623
 8337TIP3   OH246425   2.679   0.786  11.264  0.0718  0.1986 -0.2524
 8337TIP3    H146426   2.685   0.692  11.280  0.6446  0.3845  0.6489
 8337TIP3    H246427   2.710   0.797  11.174 -0.2107 -0.4933 -0.4417
 8338TIP3   OH246428   2.846   6.093  15.974 -0.3374 -0.4231  0.6816
 8338TIP3    H146429   2.879   6.080  16.063  1.5374 -1.5523 -0.1171
 8338TIP3    H246430   2.914   6.057  15.917 -1.8170 -0.4245 -1.2086
 8339TIP3   OH246431   4.558   6.000  15.534 -0.4386  0.1765 -0.4453
 8339TIP3    H146432   4.493   5.983  15.467 -0.7317  1.2083 -0.4380
 8339TIP3    H246433   4.613   5.921  15.535  0.1480  0.4955 -2.5339
 8340TIP3   OH246434   6.175   4.335  15.710 -0.2364 -0.0249  0.1350
 8340TIP3    H146435   6.230   4.311  15.785 -1.4655 -2.0619  0.4585
 8340TIP3    H246436   6.235   4.334  15.636  0.6842  0.4510  0.8489
 8341TIP3   OH246437   3.016   0.944  12.413  0.2115 -0.1663 -0.0058
 8341TIP3    H146438   3.002   1.003  12.487 -0.1149 -0.4550  0.1651
 8341TIP3    H246439   3.094   0.979  12.369 -0.4936  0.9114 -0.4246
 8342TIP3   OH246440   3.937   2.293   6.069  0.4016  0.6222 -0.1949
 8342TIP3    H146441   3.903   2.223   6.013  0.3803  1.5003 -1.3384
 8342TIP3    H246442   3.918   2.265   6.158  0.2653 -0.7468 -0.6327
 8343TIP3   OH246443   2.919   3.073  14.827 -0.1950  0.0083  0.5026
 8343TIP3    H146444   2.879   3.089  14.741 -1.2237  0.2344  1.0122
 8343TIP3    H246445   2.853   3.101  14.890  0.1882 -0.9945  1.3814
 8344TIP3   OH246446   2.489   5.925  12.505 -0.1027  0.4094  0.0896
 8344TIP3    H146447   2.482   5.984  12.580  1.4445  0.4534  0.2213
 8344TIP3    H246448   2.419   5.861  12.519 -0.1736  0.7199  1.2853
 8345TIP3   OH246449   3.316   2.352  16.882 -0.2781  0.0437  0.4239
 8345TIP3    H146450   3.383   2.385  16.821 -1.0201  1.0734  0.1418
 8345TIP3    H246451   3.264   2.293  16.829  0.2424 -0.5623  0.5774
 8346TIP3   OH246452   5.971   0.539   5.121  0.1610 -0.1192 -0.1139
 8346TIP3    H146453   5.938   0.573   5.037  0.6142 -1.2014 -0.7501
 8346TIP3    H246454   6.011   0.455   5.099  0.3148 -0.4109  1.1947
 8347TIP3   OH246455   5.406   1.322   0.500  0.1420  0.7747 -0.0540
 8347TIP3    H146456   5.352   1.335   0.578  0.9975  1.0733  0.5124
 8347TIP3    H246457   5.478   1.266   0.531 -1.8709 -3.1570 -1.7085
 8348TIP3   OH246458   4.499   3.708  12.967 -0.1129 -0.4493  0.2797
 8348TIP3    H146459   4.437   3.684  12.898  0.9391  1.8430 -1.6004
 8348TIP3    H246460   4.557   3.632  12.974  0.4546 -0.3420 -2.2660
 8349TIP3   OH246461   2.613   3.509  16.697  0.3362 -0.5796 -0.1092
 8349TIP3    H146462   2.708   3.523  16.691  0.3607 -1.1028 -1.2053
 8349TIP3    H246463   2.602   3.417  16.672 -0.6345  0.0162 -2.0771
 8350TIP3   OH246464   6.466   2.832  13.301  0.0572 -0.0707 -0.3568
 8350TIP3    H146465   6.385   2.878  13.323 -0.1431 -0.0468 -1.1279
 8350TIP3    H246466   6.535   2.894  13.325 -0.0581 -0.6433  1.6777
 8351TIP3   OH246467   5.168   3.204  16.761  0.1792  0.2589 -0.1915
 8351TIP3    H146468   5.232   3.135  16.744 -0.1283 -0.2999  0.8169
 8351TIP3    H246469   5.214   3.267  16.816  0.5048  0.9511 -1.2332
 8352TIP3   OH246470   1.089   2.984   5.768 -0.1679 -0.4819  0.1910
 8352TIP3    H146471   1.051   3.072   5.765  0.0852 -0.3882 -0.1719
 8352TIP3    H246472   1.095   2.957   5.677  2.2729  0.1971  0.0905
 8353TIP3   OH246473   5.676   2.463  12.256 -0.0093  0.0756 -0.1014
 8353TIP3    H146474   5.585   2.491  12.265 -1.0117 -3.0718  0.9836
 8353TIP3    H246475   5.675   2.402  12.182  1.3366  0.3566 -0.3778
 8354TIP3   OH246476   1.437   3.279   3.340 -0.5384 -0.5343 -0.6674
 8354TIP3    H146477   1.516   3.305   3.292  0.8263  4.3109  3.3842
 8354TIP3    H246478   1.377   3.352   3.330 -3.4761 -2.8230 -1.1592
 8355TIP3   OH246479   0.861   4.453  17.015  0.0386  0.3929 -0.0191
 8355TIP3    H146480   0.813   4.458  16.933  1.1811 -1.8556 -0.8913
 8355TIP3    H246481   0.929   4.520  17.008  0.6454 -0.3350 -1.2783
 8356TIP3   OH246482   5.784   1.871  11.410  0.5756 -0.1856 -0.6334
 8356TIP3    H146483   5.783   1.794  11.354  4.6058 -0.8619 -0.0357
 8356TIP3    H246484   5.808   1.837  11.497  1.8224  1.6487 -0.2147
 8357TIP3   OH246485   4.988   1.397  15.202  0.0993  0.5355  0.2103
 8357TIP3    H146486   4.941   1.447  15.135 -0.8669  1.5534  1.5952
 8357TIP3    H246487   4.923   1.335  15.235  0.0174  1.1961  1.3570
 8358TIP3   OH246488   1.957   4.341   1.773  0.3717  0.4530 -0.0784
 8358TIP3    H146489   1.936   4.261   1.726  1.1812 -0.3704  0.9033
 8358TIP3    H246490   1.886   4.401   1.751 -1.4309 -1.2309  0.7997
 8359TIP3   OH246491   0.385   2.282  14.067  0.6574 -0.1070 -0.5802
 8359TIP3    H146492   0.368   2.192  14.092  1.8418  0.0966  1.2073
 8359TIP3    H246493   0.299   2.323  14.060  0.1465 -0.6362  1.7149
 8360TIP3   OH246494   0.703   2.041  13.380  0.1265 -0.4067 -0.2786
 8360TIP3    H146495   0.724   1.978  13.449 -2.1932 -1.3644 -0.3850
 8360TIP3    H246496   0.719   1.994  13.298  2.7202  0.6770 -0.5108
 8361TIP3   OH246497   1.194   5.256   3.172  0.0688 -0.2129 -0.5565
 8361TIP3    H146498   1.248   5.180   3.194  0.2873  0.3831  1.1857
 8361TIP3    H246499   1.200   5.312   3.250 -0.4444  1.3810 -1.6144
 8362TIP3   OH246500   5.117   6.577  13.846  0.4758 -0.0186 -0.2674
 8362TIP3    H146501   5.078   6.491  13.831  2.0200 -0.8120  0.0477
 8362TIP3    H246502   5.161   6.568  13.931  2.0174  0.5618 -0.9835
 8363TIP3   OH246503   4.540   2.442   6.130 -0.2388  0.3289 -0.5539
 8363TIP3    H146504   4.553   2.535   6.111 -0.8636  0.4313 -0.5037
 8363TIP3    H246505   4.564   2.432   6.222 -3.0891  1.0730  0.3590
 8364TIP3   OH246506   6.357   4.648  15.562 -0.2742 -0.0531 -0.1233
 8364TIP3    H146507   6.317   4.730  15.533  1.8728  0.8455 -0.7223
 8364TIP3    H246508   6.360   4.654  15.657  0.5289  0.9354 -0.1923
 8365TIP3   OH246509   5.431   4.993   3.651  0.1171 -0.1127 -0.2439
 8365TIP3    H146510   5.358   5.047   3.682 -0.4972 -2.0310  1.9669
 8365TIP3    H246511   5.502   5.011   3.713  0.1072 -1.3488  0.1392
 8366TIP3   OH246512   5.202   2.532   3.610 -0.8642 -0.0732 -0.5671
 8366TIP3    H146513   5.241   2.449   3.580  0.9263  0.1317  1.0027
 8366TIP3    H246514   5.231   2.540   3.701 -1.6337  1.9181 -0.4685
 8367TIP3   OH246515   6.118   3.692  15.548 -0.0023  0.0017  0.0278
 8367TIP3    H146516   6.195   3.703  15.492  0.0854 -0.9406 -0.0480
 8367TIP3    H246517   6.092   3.781  15.571  0.5158  0.3610 -0.7604
 8368TIP3   OH246518   1.105   0.333  14.233 -0.1006 -0.6929 -0.1581
 8368TIP3    H146519   1.155   0.311  14.312  1.0924  0.6814 -0.4827
 8368TIP3    H246520   1.167   0.379  14.177 -1.4817  0.2240 -1.0050
 8369TIP3   OH246521   5.527   3.971  15.052 -0.3992  0.4827 -0.2095
 8369TIP3    H146522   5.494   3.957  14.964  2.6065 -1.2360 -1.2089
 8369TIP3    H246523   5.600   4.033  15.041 -0.7335  1.2154  1.2945
 8370TIP3   OH246524   4.720   3.757   0.914  0.1790 -0.2032 -0.7938
 8370TIP3    H146525   4.806   3.754   0.874  0.5491 -0.9836  0.0365
 8370TIP3    H246526   4.672   3.683   0.875  0.4154 -0.7328 -0.0954
 8371TIP3   OH246527   0.004   5.418   1.325 -0.0782 -0.4020 -0.0046
 8371TIP3    H146528   0.084   5.422   1.273  0.0015 -0.4158  0.1193
 8371TIP3    H246529  -0.032   5.331   1.307  1.4038 -1.5398  2.1464
 8372TIP3   OH246530   2.944   4.739   4.566 -0.4917 -0.2172 -0.3231
 8372TIP3    H146531   3.027   4.746   4.613  0.8442 -1.4096 -2.3780
 8372TIP3    H246532   2.940   4.648   4.538 -1.2169  0.4266 -2.4984
 8373TIP3   OH246533   1.163   5.499   6.651 -0.3192  0.1010  0.1323
 8373TIP3    H146534   1.185   5.553   6.575  0.4649 -1.6764 -0.9503
 8373TIP3    H246535   1.069   5.487   6.645 -0.2928  0.1500 -0.4342
 8374TIP3   OH246536   0.998   4.805  15.426  0.0493 -0.5429 -0.4092
 8374TIP3    H146537   0.932   4.735  15.422 -0.1991 -0.2542 -1.7966
 8374TIP3    H246538   0.951   4.883  15.396  0.3891  0.1991  0.8947
 8375TIP3   OH246539   2.720   3.302  12.403 -0.5316  0.2145  0.2306
 8375TIP3    H146540   2.763   3.279  12.321 -1.3226 -0.3876 -0.0170
 8375TIP3    H246541   2.721   3.222  12.455 -0.1865  0.5459  0.7505
 8376TIP3   OH246542   1.650   3.496   1.152  0.2875 -0.1096 -0.4174
 8376TIP3    H146543   1.709   3.570   1.167 -1.1855  0.9866  0.1257
 8376TIP3    H246544   1.660   3.442   1.230  0.7128 -0.0316 -0.4141
 8377TIP3   OH246545   0.098   3.808   0.599  0.0202 -0.2601  0.2128
 8377TIP3    H146546   0.154   3.740   0.636  0.0421 -0.0859  0.5001
 8377TIP3    H246547   0.061   3.853   0.675 -1.5081 -1.1803  0.0680
 8378TIP3   OH246548   5.105   2.044  15.201  0.1801  0.0087  0.0931
 8378TIP3    H146549   5.180   2.034  15.260  0.5437  0.3836 -0.2977
 8378TIP3    H246550   5.090   1.956  15.166  0.7545  0.0234 -0.2044
 8379TIP3   OH246551   4.898   2.503   0.595 -0.1087 -0.0825 -1.0995
 8379TIP3    H146552   4.950   2.448   0.653 -3.3067 -3.0796 -0.7439
 8379TIP3    H246553   4.856   2.567   0.654  1.2720  0.8483 -1.0789
 8380TIP3   OH246554   2.598   5.283  14.376 -0.2012 -0.1085 -0.2857
 8380TIP3    H146555   2.667   5.338  14.338  0.0864 -1.0116 -1.0983
 8380TIP3    H246556   2.628   5.267  14.466  1.8861 -2.3776 -1.2629
 8381TIP3   OH246557   2.488   1.744   1.513  0.1569  0.0258 -0.0018
 8381TIP3    H146558   2.413   1.786   1.471  0.7401 -0.0073 -1.1267
 8381TIP3    H246559   2.516   1.677   1.450  0.1321 -1.0816  1.1237
 8382TIP3   OH246560   5.884   1.648  13.176 -0.2568  0.0419  0.1163
 8382TIP3    H146561   5.868   1.570  13.229  0.4492 -0.5063 -0.4551
 8382TIP3    H246562   5.952   1.622  13.115 -1.8637  0.2631 -1.8916
 8383TIP3   OH246563   2.010   4.658  13.563  0.0885  0.1144  0.1315
 8383TIP3    H146564   1.934   4.702  13.524 -1.8692 -2.4270  0.7902
 8383TIP3    H246565   2.032   4.711  13.639  0.4630  2.1215 -1.2861
 8384TIP3   OH246566   1.653   4.281  15.866  0.1276  0.0453 -0.2014
 8384TIP3    H146567   1.708   4.339  15.813 -1.1116  0.5452 -0.9877
 8384TIP3    H246568   1.715   4.225  15.913  1.2983 -0.2001 -1.9518
 8385TIP3   OH246569   3.330   1.071   0.824  0.0941  0.1801 -0.1532
 8385TIP3    H146570   3.335   1.144   0.885  0.6017  1.5477 -1.7499
 8385TIP3    H246571   3.421   1.045   0.809 -0.1008 -1.2228  0.8427
 8386TIP3   OH246572   2.098   5.501   4.594  0.4266 -0.4300 -0.0387
 8386TIP3    H146573   2.033   5.434   4.576  0.0958 -0.3271  0.7244
 8386TIP3    H246574   2.171   5.453   4.635  0.6956 -0.4984 -0.5976
 8387TIP3   OH246575   0.660   3.033  15.552  0.3624  0.5356 -0.4286
 8387TIP3    H146576   0.617   3.029  15.638  1.2184  0.6536  0.0176
 8387TIP3    H246577   0.648   3.124  15.524 -1.6799  0.0413 -1.3941
 8388TIP3   OH246578   1.190   4.033  10.626  0.3571 -0.6235 -0.1457
 8388TIP3    H146579   1.144   3.949  10.616 -0.0721 -0.4071 -0.0288
 8388TIP3    H246580   1.280   4.015  10.600 -0.1004 -0.7246 -1.7206
 8389TIP3   OH246581   1.114   0.330  11.253  0.3503 -0.7051  0.0095
 8389TIP3    H146582   1.089   0.254  11.200 -1.1472 -1.6945  1.9829
 8389TIP3    H246583   1.209   0.333  11.247  0.4809 -2.9117  0.0219
 8390TIP3   OH246584   2.577   0.008   3.184 -0.6545  0.3518 -0.5167
 8390TIP3    H146585   2.622   0.077   3.234 -0.5660  1.4310 -2.0074
 8390TIP3    H246586   2.550   0.052   3.103 -0.7162 -1.3469 -1.4559
 8391TIP3   OH246587   0.346   4.353   0.301 -0.2519  0.2414 -0.0577
 8391TIP3    H146588   0.312   4.264   0.299 -1.1648  0.5874 -0.2181
 8391TIP3    H246589   0.430   4.345   0.346 -0.6518 -0.5854  0.5730
 8392TIP3   OH246590   4.145   0.918  13.823  0.1227 -0.3416  0.3169
 8392TIP3    H146591   4.146   0.972  13.744  0.9370 -0.6796  0.0888
 8392TIP3    H246592   4.077   0.852  13.807 -0.0763 -0.0899  0.1224
 8393TIP3   OH246593   0.793   5.866   4.274  0.3485 -0.4289  0.1122
 8393TIP3    H146594   0.781   5.914   4.192 -1.5922  2.4116  1.9216
 8393TIP3    H246595   0.727   5.797   4.271 -0.1649  0.0759 -0.4288
 8394TIP3   OH246596   0.885   0.850   2.792 -0.3880  0.4321 -0.1663
 8394TIP3    H146597   0.895   0.867   2.698  1.3764  0.7223  0.0345
 8394TIP3    H246598   0.863   0.757   2.798 -0.0101  0.2945 -0.8361
 8395TIP3   OH246599   3.349   4.238   3.351 -0.5272 -0.2262 -0.1650
 8395TIP3    H146600   3.439   4.264   3.373 -1.2261  1.3958  0.8976
 8395TIP3    H246601   3.296   4.269   3.424 -2.3827  1.5785 -2.1491
 8396TIP3   OH246602   2.046   6.214  13.291  0.3371 -0.3736 -0.0805
 8396TIP3    H146603   2.091   6.282  13.341 -1.9139  0.5881  0.7871
 8396TIP3    H246604   2.109   6.141  13.287  1.1123 -0.0112  3.0620
 8397TIP3   OH246605   3.960   0.064  15.193 -0.1558  0.2940 -0.4339
 8397TIP3    H146606   4.055   0.053  15.191 -0.1164  0.4139  0.4887
 8397TIP3    H246607   3.928  -0.007  15.248 -0.8112 -0.9545 -2.3249
 8398TIP3   OH246608   2.708   6.021  16.391  0.4966  0.4061 -0.1841
 8398TIP3    H146609   2.757   6.058  16.465  0.7971 -2.8133  1.4067
 8398TIP3    H246610   2.775   5.979  16.337  0.1629  1.9141 -1.8819
 8399TIP3   OH246611   2.982   0.820   5.770  0.4436  0.6279  0.5000
 8399TIP3    H146612   2.917   0.762   5.730  0.9324  0.7312 -0.4709
 8399TIP3    H246613   2.998   0.782   5.856  1.3228 -1.1371 -0.4077
 8400TIP3   OH246614   0.638   5.968   0.474  0.4273  0.4408 -0.5617
 8400TIP3    H146615   0.627   6.054   0.434  1.4870  0.3878 -1.0102
 8400TIP3    H246616   0.549   5.936   0.488  0.0199  1.8066  0.0685
 8401TIP3   OH246617   5.857   6.419   2.072  0.1611 -0.1721  0.0346
 8401TIP3    H146618   5.894   6.340   2.032 -2.2950 -0.4525 -1.9175
 8401TIP3    H246619   5.789   6.385   2.131 -0.2295  0.4204 -0.0674
 8402TIP3   OH246620   2.550   3.586   2.379  0.6561  0.5674 -0.2959
 8402TIP3    H146621   2.503   3.605   2.297  0.4082  1.1827 -0.0225
 8402TIP3    H246622   2.572   3.493   2.373 -0.8860  0.1683 -0.3008
 8403TIP3   OH246623   4.566   0.483  13.495 -0.3250  0.6168 -0.1521
 8403TIP3    H146624   4.484   0.524  13.468  0.6211  2.4610 -0.3827
 8403TIP3    H246625   4.609   0.458  13.413  0.3204  1.7066 -0.1692
 8404TIP3   OH246626   0.455   4.484   3.847  0.0323 -0.1102 -0.1741
 8404TIP3    H146627   0.547   4.511   3.839 -0.3134  0.7580 -1.6714
 8404TIP3    H246628   0.406   4.565   3.834 -0.9617 -0.6947 -0.1364
 8405TIP3   OH246629   4.548   4.259  13.624  0.2403 -0.2410  0.0330
 8405TIP3    H146630   4.517   4.298  13.706 -1.3893 -3.2185  0.9694
 8405TIP3    H246631   4.638   4.291  13.615 -0.6233  2.8641  1.1094
 8406TIP3   OH246632   4.136   3.239  13.309  0.9776  0.0662  0.5823
 8406TIP3    H146633   4.196   3.172  13.342  1.3101  0.7262  1.3779
 8406TIP3    H246634   4.061   3.191  13.275 -0.0767 -0.6688  3.6465
 8407TIP3   OH246635   2.481   5.309   2.507  0.0589 -0.3502  0.2818
 8407TIP3    H146636   2.391   5.333   2.527 -0.1272 -1.5822  0.9604
 8407TIP3    H246637   2.498   5.230   2.558  2.0879  0.8105  1.5363
 8408TIP3   OH246638   3.101   5.603   0.752  0.1456 -0.3530  0.2522
 8408TIP3    H146639   3.078   5.696   0.742  2.5994  0.4673  1.3865
 8408TIP3    H246640   3.076   5.582   0.842  1.5683 -0.0842  0.7483
 8409TIP3   OH246641   6.207   4.152  10.675  0.1800 -0.3633  0.0293
 8409TIP3    H146642   6.143   4.162  10.746  0.9086 -0.4328  0.7135
 8409TIP3    H246643   6.250   4.237  10.668 -0.1322 -0.2524 -0.5756
 8410TIP3   OH246644   0.359   1.788  16.812  0.0433  0.3025  0.5574
 8410TIP3    H146645   0.267   1.802  16.788  0.2722  2.3468  0.7278
 8410TIP3    H246646   0.367   1.824  16.900  1.2761  1.3932  0.0408
 8411TIP3   OH246647   3.837   0.668  17.226  0.0243  0.4691 -0.3567
 8411TIP3    H146648   3.840   0.597  17.291 -1.5739 -1.4531 -2.2667
 8411TIP3    H246649   3.920   0.660  17.178 -0.0730  0.0062 -0.4496
 8412TIP3   OH246650   3.558   2.178   2.645 -0.4304  0.2521 -0.5322
 8412TIP3    H146651   3.607   2.260   2.651  0.6909 -0.4482 -0.0518
 8412TIP3    H246652   3.510   2.186   2.562  2.2335  0.0324 -2.2286
 8413TIP3   OH246653   1.354   6.737  14.618 -0.2014  0.5282  0.5527
 8413TIP3    H146654   1.404   6.728  14.700  0.1317  0.2439  0.3224
 8413TIP3    H246655   1.384   6.664  14.564  2.5234  2.8446 -1.3588
 8414TIP3   OH246656   3.509   5.594  13.196  0.2325 -0.2376  0.1296
 8414TIP3    H146657   3.427   5.555  13.228 -0.4343  1.0309  0.0331
 8414TIP3    H246658   3.577   5.537  13.231 -0.5246  0.3091  2.7627
 8415TIP3   OH246659   0.745   1.051   5.985  0.2288 -0.6585 -0.3379
 8415TIP3    H146660   0.810   1.033   6.052  2.2136  0.2546 -1.9202
 8415TIP3    H246661   0.717   0.964   5.956  0.2516 -1.0612  0.7884
 8416TIP3   OH246662   5.179   3.336  10.465 -0.2663  0.2811  0.0435
 8416TIP3    H146663   5.108   3.331  10.530  1.0616 -0.1573  1.5263
 8416TIP3    H246664   5.194   3.245  10.439  0.7450  0.1968  0.8798
 8417TIP3   OH246665   2.811   2.467  13.098  0.1271  0.5492 -0.0299
 8417TIP3    H146666   2.723   2.430  13.110  0.0315  0.0758 -1.8316
 8417TIP3    H246667   2.798   2.542  13.041  0.9207  0.2065 -0.6899
 8418TIP3   OH246668   5.947   4.458   2.572 -0.4518  0.2883 -0.2484
 8418TIP3    H146669   5.861   4.443   2.534 -0.7801  0.0922  0.5480
 8418TIP3    H246670   5.931   4.466   2.666  0.0362  2.9775 -0.3190
 8419TIP3   OH246671   3.372   0.424  12.108 -1.0422  0.0489  0.4254
 8419TIP3    H146672   3.357   0.368  12.032  0.2926  1.4676 -0.9327
 8419TIP3    H246673   3.337   0.373  12.182 -0.1749 -2.4497 -0.7779
 8420TIP3   OH246674   2.123   2.715   0.399 -0.3360  0.1510 -0.0960
 8420TIP3    H146675   2.091   2.770   0.470 -1.1915  0.6552 -0.8442
 8420TIP3    H246676   2.184   2.655   0.441 -1.3357 -0.0192  1.1820
 8421TIP3   OH246677   0.537   1.743  13.795 -0.7934  0.0650 -0.5254
 8421TIP3    H146678   0.495   1.660  13.771  0.4602 -0.5014 -0.8931
 8421TIP3    H246679   0.629   1.731  13.769 -0.8535  2.0885 -1.8526
 8422TIP3   OH246680   4.977   3.481   0.140  0.1537 -0.1525  0.2989
 8422TIP3    H146681   4.962   3.540   0.066 -0.5098 -1.1679 -0.4062
 8422TIP3    H246682   4.896   3.485   0.191  0.9823  1.3431  1.6006
 8423TIP3   OH246683   2.067   5.030   5.461  0.0915  0.4070  0.1277
 8423TIP3    H146684   2.115   5.010   5.381  0.0301  0.4283  0.0856
 8423TIP3    H246685   2.106   5.112   5.492 -0.3327  0.7503 -0.2359
 8424TIP3   OH246686   4.339   5.077  12.753  0.0071 -0.1864  0.7587
 8424TIP3    H146687   4.382   5.025  12.686  2.2732  0.0726  1.9199
 8424TIP3    H246688   4.348   5.026  12.833 -0.2327  0.7213  1.3846
 8425TIP3   OH246689   3.297   5.046  15.110  0.1719 -0.5973 -0.7185
 8425TIP3    H146690   3.263   5.075  15.195 -0.4934  0.2926 -1.2686
 8425TIP3    H246691   3.219   5.037  15.055  0.6164 -0.9384 -1.2944
 8426TIP3   OH246692   6.528   2.384   4.649  0.0319 -0.3204 -0.1162
 8426TIP3    H146693   6.561   2.378   4.739  0.0208  1.2509  0.0170
 8426TIP3    H246694   6.542   2.475   4.625 -1.2602 -0.3975 -1.2155
 8427TIP3   OH246695   0.432   0.048   2.951  0.4814 -0.1073  0.2061
 8427TIP3    H146696   0.488  -0.027   2.928  1.1048  0.7878 -1.3078
 8427TIP3    H246697   0.488   0.103   3.006  0.7115  0.2058 -0.3304
 8428TIP3   OH246698   2.105   0.427  17.037  0.6333  0.2454 -0.7551
 8428TIP3    H146699   2.113   0.360  16.969  0.0959  0.5441 -1.1285
 8428TIP3    H246700   2.178   0.410  17.097  1.0578 -0.0921 -1.3512
 8429TIP3   OH246701   4.106   6.409  14.352 -0.0759  0.1252 -0.6196
 8429TIP3    H146702   4.061   6.338  14.398  0.7397  0.3277  0.5313
 8429TIP3    H246703   4.036   6.467  14.323 -0.6088  0.0765  0.5149
 8430TIP3   OH246704   6.637   5.429   4.657 -0.6191  0.0014  1.0358
 8430TIP3    H146705   6.706   5.363   4.650  0.9103  1.5358  1.0361
 8430TIP3    H246706   6.561   5.389   4.615  0.8528 -0.9691 -0.8503
 8431TIP3   OH246707   1.061   4.960  15.952 -0.2138  0.1613 -0.1034
 8431TIP3    H146708   1.011   4.970  15.871 -0.7393 -0.8970  0.0671
 8431TIP3    H246709   1.086   4.867  15.953  0.5268  0.3580  0.5223
 8432TIP3   OH246710   6.740   0.756   0.144 -0.0260  0.0729 -0.5300
 8432TIP3    H146711   6.728   0.725   0.234 -2.2429  1.0929 -0.4140
 8432TIP3    H246712   6.787   0.685   0.100 -3.3086 -2.7664  0.1377
 8433TIP3   OH246713   4.275   5.186  15.623  0.3150  0.6754  0.1482
 8433TIP3    H146714   4.253   5.142  15.541  1.1509  1.0592 -0.3046
 8433TIP3    H246715   4.326   5.263  15.595  1.3875  0.3215  1.0692
 8434TIP3   OH246716   5.690   6.538   5.009  0.0702  0.7296  0.6767
 8434TIP3    H146717   5.702   6.463   4.951 -0.3931  0.9359  0.3013
 8434TIP3    H246718   5.605   6.523   5.050 -0.2804  1.3157  0.1820
 8435TIP3   OH246719   4.665   5.719  14.806 -0.5881  0.5987  0.0976
 8435TIP3    H146720   4.731   5.787  14.797 -0.4717  0.3523 -1.0678
 8435TIP3    H246721   4.714   5.642  14.835 -0.6443  0.8746  0.9403
 8436TIP3   OH246722   5.431   3.026   0.054 -0.5253  0.6775 -0.0628
 8436TIP3    H146723   5.339   3.004   0.042 -0.4970  0.2445  0.4763
 8436TIP3    H246724   5.447   3.016   0.148 -0.0273  1.1411 -0.0867
 8437TIP3   OH246725   5.166   2.327   0.404  0.6876 -0.0672  0.4614
 8437TIP3    H146726   5.141   2.277   0.481 -0.6394  2.4341  1.7724
 8437TIP3    H246727   5.090   2.325   0.347  0.7556  0.1563  0.3596
 8438TIP3   OH246728   2.215   2.638   2.358 -0.5483 -0.4575  0.1583
 8438TIP3    H146729   2.258   2.572   2.412  1.5182 -0.2422 -1.0844
 8438TIP3    H246730   2.194   2.709   2.418 -1.8319 -1.7649  1.3167
 8439TIP3   OH246731   4.903   2.056  16.009  0.5652  0.1077 -0.3214
 8439TIP3    H146732   4.956   2.042  15.930  0.2481 -1.3688 -0.2995
 8439TIP3    H246733   4.839   1.985  16.007 -1.0777  1.5401 -0.0582
 8440TIP3   OH246734   5.269   5.148   6.052  0.1953  0.1759 -0.4005
 8440TIP3    H146735   5.351   5.139   6.100  0.3234 -2.4438 -0.9460
 8440TIP3    H246736   5.272   5.079   5.986 -2.6811 -0.4095 -0.0578
 8441TIP3   OH246737   5.885   5.618   0.504 -1.1294  0.2101 -0.1624
 8441TIP3    H146738   5.930   5.703   0.508  1.1597 -0.8896 -0.4667
 8441TIP3    H246739   5.881   5.590   0.596 -1.0212  0.2546 -0.1429
 8442TIP3   OH246740   6.686   6.522   4.940 -0.2235  0.6618 -0.4730
 8442TIP3    H146741   6.633   6.548   5.016 -0.7016  0.2408 -0.6611
 8442TIP3    H246742   6.696   6.427   4.948 -0.7346  0.5419 -1.2321
 8443TIP3   OH246743   6.161   1.885  11.741 -0.3698  0.1004  0.2061
 8443TIP3    H146744   6.070   1.912  11.730 -0.1197  0.2022 -2.0111
 8443TIP3    H246745   6.181   1.835  11.662  1.4854  0.0074  0.6834
 8444TIP3   OH246746   6.191   0.176   0.792 -0.0247  0.3255  0.1627
 8444TIP3    H146747   6.217   0.118   0.720 -0.9246 -0.9558  0.8485
 8444TIP3    H246748   6.190   0.263   0.752 -2.8251 -0.5832 -2.0560
 8445TIP3   OH246749   1.184   5.882   2.885 -0.3446  0.1190  0.0444
 8445TIP3    H146750   1.099   5.848   2.915  0.2194 -2.2331 -0.8651
 8445TIP3    H246751   1.162   5.963   2.839 -2.1576 -0.5704 -0.4004
 8446TIP3   OH246752   3.898   0.466  14.154 -0.1450 -0.3060  0.8130
 8446TIP3    H146753   3.992   0.462  14.139 -0.2467 -1.7106  0.4034
 8446TIP3    H246754   3.859   0.435  14.072 -1.0865  2.5407  0.0460
 8447TIP3   OH246755   6.344   2.120  16.852 -0.0152 -0.0570  0.2628
 8447TIP3    H146756   6.341   2.210  16.883 -2.3478 -0.4110  1.2344
 8447TIP3    H246757   6.372   2.127  16.760 -2.5263  1.9242 -0.4610
 8448TIP3   OH246758   3.771   4.356   0.265 -0.3661 -0.9135  0.6438
 8448TIP3    H146759   3.796   4.273   0.225 -0.0736  0.1408 -1.4932
 8448TIP3    H246760   3.764   4.417   0.192  0.8325  1.3050  2.2412
 8449TIP3   OH246761   2.883   0.778   1.271  0.1958 -1.0162 -0.1116
 8449TIP3    H146762   2.802   0.828   1.267  0.5979 -0.3566 -0.0161
 8449TIP3    H246763   2.867   0.702   1.214  0.5998  0.6582 -2.5963
 8450TIP3   OH246764   1.925   4.127  11.139 -0.7164  0.2447 -0.0544
 8450TIP3    H146765   2.009   4.156  11.104 -0.3220  0.0847  0.7415
 8450TIP3    H246766   1.864   4.137  11.066 -0.3512  1.9093 -0.1557
 8451TIP3   OH246767   2.121   2.153  11.154 -0.6095 -0.1780 -0.7616
 8451TIP3    H146768   2.205   2.198  11.152  0.4777 -1.9411  0.9869
 8451TIP3    H246769   2.128   2.085  11.087  0.4959 -2.0157  1.0952
 8452TIP3   OH246770   5.633   2.680  10.439  0.1808  0.6327 -0.0246
 8452TIP3    H146771   5.620   2.585  10.431 -1.4145  0.9569 -2.6161
 8452TIP3    H246772   5.608   2.714  10.353  1.2340  3.3722  0.6735
 8453TIP3   OH246773   0.202   3.950  13.147  0.4801  0.0204  0.4395
 8453TIP3    H146774   0.265   3.939  13.075  1.8148 -1.1273  1.7204
 8453TIP3    H246775   0.143   3.875  13.138 -1.9231  2.0084 -1.8132
 8454TIP3   OH246776   5.231   2.527  16.544 -0.4227 -0.0443  0.0968
 8454TIP3    H146777   5.175   2.464  16.588 -0.2357  0.9616  1.8618
 8454TIP3    H246778   5.300   2.474  16.505  0.0108 -0.9426  1.9694
 8455TIP3   OH246779   5.960   3.451   3.386  0.2922 -0.3705 -0.5930
 8455TIP3    H146780   5.992   3.390   3.453 -0.6213  1.0043  1.1934
 8455TIP3    H246781   6.039   3.481   3.341  1.0349 -0.6846  0.4633
 8456TIP3   OH246782   5.921   2.261  11.159  0.2336  0.7666 -0.0229
 8456TIP3    H146783   5.883   2.175  11.139  2.0499  0.2235 -1.4210
 8456TIP3    H246784   6.015   2.248  11.149  0.7527  2.3461  2.1480
 8457TIP3   OH246785   6.372   1.643   0.105 -0.5602 -0.0934 -0.1938
 8457TIP3    H146786   6.401   1.694   0.030  0.3121 -1.0794 -0.5445
 8457TIP3    H246787   6.448   1.638   0.162 -0.6890 -0.8242 -0.0731
 8458TIP3   OH246788   1.315   1.364  16.676  0.1932 -0.1939 -0.0446
 8458TIP3    H146789   1.332   1.433  16.740 -3.4840  1.1332 -0.2631
 8458TIP3    H246790   1.283   1.291  16.728 -1.1290  0.2652 -0.1842
 8459TIP3   OH246791   0.645   3.284  12.234  0.3815  0.2987 -0.1232
 8459TIP3    H146792   0.554   3.312  12.232  0.0958 -0.3655  1.6326
 8459TIP3    H246793   0.695   3.362  12.210 -0.6369  0.6739 -1.0721
 8460TIP3   OH246794   2.996   3.236  11.080 -0.1351  0.7348 -0.2162
 8460TIP3    H146795   2.914   3.194  11.106  0.4122 -0.1025  0.1862
 8460TIP3    H246796   2.968   3.311  11.027 -1.1751  0.7390  0.3027
 8461TIP3   OH246797   0.897   4.469  12.624 -0.2151 -0.0880  0.0371
 8461TIP3    H146798   0.905   4.495  12.716 -0.5485 -0.4272  0.1652
 8461TIP3    H246799   0.873   4.376  12.628 -3.9179  0.7314 -0.3063
 8462TIP3   OH246800   5.435   3.084   3.899 -0.2057 -0.1442  0.1598
 8462TIP3    H146801   5.439   3.013   3.835 -1.4355  1.6989 -2.1693
 8462TIP3    H246802   5.525   3.117   3.904  0.0597 -0.8330 -0.0310
 8463TIP3   OH246803   0.552   5.868   1.467  0.3081  0.0968  0.1337
 8463TIP3    H146804   0.560   5.947   1.520 -1.7327 -0.6363  1.6768
 8463TIP3    H246805   0.503   5.807   1.523  0.6207 -1.7596 -1.5274
 8464TIP3   OH246806   6.317   5.090  16.344 -0.0786 -0.3605 -0.2927
 8464TIP3    H146807   6.316   5.144  16.265  0.1538 -0.3656 -0.2978
 8464TIP3    H246808   6.240   5.119  16.393 -1.2454 -1.5323 -1.3232
 8465TIP3   OH246809   5.244   3.453   3.565 -0.1197 -0.2232  0.1327
 8465TIP3    H146810   5.208   3.500   3.490  2.6124 -0.8519 -1.7282
 8465TIP3    H246811   5.184   3.379   3.578 -0.7982  0.0458 -1.2794
 8466TIP3   OH246812   4.681   4.714  14.453  0.2320  0.4709  0.3219
 8466TIP3    H146813   4.758   4.760  14.487 -1.4281  2.3947  1.7285
 8466TIP3    H246814   4.665   4.753  14.367  1.3186 -0.5889 -0.3840
 8467TIP3   OH246815   5.132   5.901   0.819 -0.5002  0.2746 -0.1245
 8467TIP3    H146816   5.206   5.916   0.878  0.3960  3.8316 -1.9020
 8467TIP3    H246817   5.056   5.931   0.869 -0.4526 -1.0298  0.7905
 8468TIP3   OH246818   4.114   2.521  13.934  0.0059  0.2626  0.4238
 8468TIP3    H146819   4.180   2.515  13.865  0.0975  2.8674  0.1982
 8468TIP3    H246820   4.155   2.478  14.010  0.8267 -0.5844 -0.4702
 8469TIP3   OH246821   5.373   0.110  13.458  0.7414  0.4166  0.1926
 8469TIP3    H146822   5.416   0.103  13.543 -0.6402  1.1241  0.9862
 8469TIP3    H246823   5.283   0.136  13.479 -0.0771 -0.9750 -1.3950
 8470TIP3   OH246824   1.558   5.678  16.337  0.0612  0.1633  0.6009
 8470TIP3    H146825   1.467   5.687  16.310  0.3121  0.2523 -0.2600
 8470TIP3    H246826   1.597   5.764  16.322  0.3092  0.0999  0.8690
 8471TIP3   OH246827   0.499   1.381  11.222 -0.5017  0.0414 -0.5252
 8471TIP3    H146828   0.461   1.340  11.144  0.6277  1.0231 -1.6352
 8471TIP3    H246829   0.522   1.469  11.194  0.0181  0.3921  0.9115
 8472TIP3   OH246830   5.090   2.816  14.899 -0.8976 -0.1241 -0.2033
 8472TIP3    H146831   5.044   2.761  14.961  0.2746  0.7110  1.4952
 8472TIP3    H246832   5.119   2.892  14.951 -2.0502  1.8979 -2.3144
 8473TIP3   OH246833   6.396   0.939   5.509 -0.3576  0.5288 -0.4858
 8473TIP3    H146834   6.478   0.948   5.557 -0.3756 -0.3064 -0.2860
 8473TIP3    H246835   6.335   0.997   5.556  0.4627  2.2729 -1.5017
 8474TIP3   OH246836   3.599   0.970   0.854  0.0156 -0.4717 -0.0074
 8474TIP3    H146837   3.666   0.949   0.790 -0.0740 -0.2174 -0.1846
 8474TIP3    H246838   3.614   0.909   0.926  0.7469 -0.0860  0.1708
 8475TIP3   OH246839   1.373   4.107  11.884  0.2008  0.3523  0.8175
 8475TIP3    H146840   1.353   4.171  11.816 -2.1910  0.0665  1.1685
 8475TIP3    H246841   1.431   4.044  11.842 -0.1204  0.9346 -0.5316
 8476TIP3   OH246842   6.624   1.068  14.094 -0.1806  0.4638 -0.1154
 8476TIP3    H146843   6.577   1.096  14.015  0.6390 -0.3036 -0.9043
 8476TIP3    H246844   6.647   0.977  14.076  0.7519  0.5422  0.6615
 8477TIP3   OH246845   6.725   5.926   5.100  0.0234  0.1575  0.7757
 8477TIP3    H146846   6.790   5.954   5.035 -1.0993  0.3277 -0.3148
 8477TIP3    H246847   6.691   6.007   5.136 -0.0369  0.0793  0.8955
 8478TIP3   OH246848   5.372   5.042   6.716 -0.2674 -0.4791 -0.0398
 8478TIP3    H146849   5.436   5.005   6.655 -0.9845 -0.5254 -0.7875
 8478TIP3    H246850   5.384   4.993   6.797  1.1751  0.0464  0.0897
 8479TIP3   OH246851   4.440   2.926   6.239 -0.1531  0.1589  0.2761
 8479TIP3    H146852   4.502   2.937   6.311  0.4427 -0.9018 -0.0455
 8479TIP3    H246853   4.355   2.920   6.282  0.2770 -1.3371  0.9925
 8480TIP3   OH246854   0.336   0.836  17.104  0.5460  0.1186  0.8179
 8480TIP3    H146855   0.351   0.876  17.018 -0.6333  1.2709  1.1269
 8480TIP3    H246856   0.355   0.743  17.090 -0.4191  0.1432 -0.9158
 8481TIP3   OH246857   2.164   3.108  16.098  0.0183  0.1075  0.2144
 8481TIP3    H146858   2.069   3.123  16.091 -0.2895 -1.5393  0.2701
 8481TIP3    H246859   2.174   3.015  16.079  1.5570  0.0887  0.9821
 8482TIP3   OH246860   3.396   3.911  12.428  0.0877  0.2945  0.7140
 8482TIP3    H146861   3.368   4.000  12.411 -0.0952 -0.1724 -1.6938
 8482TIP3    H246862   3.473   3.899  12.373  0.2174 -0.9895  1.1334
 8483TIP3   OH246863   5.189   2.884   0.124 -0.2517 -0.3008 -0.3045
 8483TIP3    H146864   5.167   2.953   0.186 -1.1101  0.7160 -1.6913
 8483TIP3    H246865   5.177   2.803   0.173  1.5697  0.4971  1.6103
 8484TIP3   OH246866   0.712   4.680   2.511 -0.0085  0.1112  0.1751
 8484TIP3    H146867   0.658   4.751   2.476 -0.5485 -0.1839  0.3959
 8484TIP3    H246868   0.754   4.719   2.587 -0.7969  0.0200  0.6718
 8485TIP3   OH246869   0.477   5.939  15.051  0.0391  0.4382  0.5451
 8485TIP3    H146870   0.556   5.892  15.077 -0.3426 -0.3426  0.3418
 8485TIP3    H246871   0.469   5.922  14.957 -0.4293  0.4054  0.5870
 8486TIP3   OH246872   1.289   1.778  14.677 -0.4651 -0.2482  0.0222
 8486TIP3    H146873   1.318   1.823  14.756 -0.0772  0.1224 -0.3203
 8486TIP3    H246874   1.338   1.820  14.606 -0.8740 -0.5063 -0.4263
 8487TIP3   OH246875   3.429   4.646   0.034 -0.2353  0.5907 -0.1520
 8487TIP3    H146876   3.519   4.679   0.037 -0.9378  2.8418 -1.2000
 8487TIP3    H246877   3.398   4.669  -0.054 -1.6958 -0.5609  0.0224
 8488TIP3   OH246878   6.662   1.038   4.372  0.3237 -0.2437  0.4137
 8488TIP3    H146879   6.578   1.077   4.348  0.2141 -0.0448  1.1105
 8488TIP3    H246880   6.643   0.986   4.450  0.6013 -1.1944 -0.1398
 8489TIP3   OH246881   6.486   2.318  13.152 -0.6183 -0.0443  0.2490
 8489TIP3    H146882   6.441   2.322  13.236 -0.8299  0.4609  0.1107
 8489TIP3    H246883   6.565   2.265  13.170 -1.1090 -0.6888  0.5524
 8490TIP3   OH246884   6.743   2.754   3.945  0.2367 -0.5685  0.6339
 8490TIP3    H146885   6.690   2.780   4.020  2.6020  5.1082  0.8152
 8490TIP3    H246886   6.834   2.764   3.975  1.3050  2.6346 -2.8998
 8491TIP3   OH246887   2.221   2.517  16.411  0.7528  0.3477  0.4097
 8491TIP3    H146888   2.205   2.532  16.504  1.8722 -0.2971  0.7298
 8491TIP3    H246889   2.203   2.601  16.370  0.5444  0.7272  1.2435
 8492TIP3   OH246890   6.494   4.048   0.196 -0.0947  0.2923  0.2001
 8492TIP3    H146891   6.522   4.133   0.164  0.2336 -0.9429 -3.1527
 8492TIP3    H246892   6.400   4.058   0.210  0.0335  1.3464  0.3791
 8493TIP3   OH246893   3.630   2.223   3.493 -0.5855 -0.3518  0.1807
 8493TIP3    H146894   3.550   2.179   3.522 -1.0227 -0.1329 -0.6591
 8493TIP3    H246895   3.601   2.283   3.425  0.5398 -1.8807 -1.7727
 8494TIP3   OH246896   0.023   2.929  14.925  0.0235 -0.0597 -0.1553
 8494TIP3    H146897   0.101   2.876  14.904  0.5728  0.7386 -0.1735
 8494TIP3    H246898   0.056   3.019  14.928 -0.2421  0.0242  2.9537
 8495TIP3   OH246899   1.367   4.948   0.360 -0.7173 -0.4038  0.0776
 8495TIP3    H146900   1.450   4.909   0.385 -0.8916 -0.9228 -0.1316
 8495TIP3    H246901   1.301   4.886   0.392 -1.1248  0.9315  1.9745
 8496TIP3   OH246902   5.679   4.002   3.727  0.4446 -0.0350  0.7687
 8496TIP3    H146903   5.675   4.018   3.821 -0.7156 -0.3984  0.8008
 8496TIP3    H246904   5.614   3.933   3.712 -0.2819  0.8761 -0.4534
 8497TIP3   OH246905   3.574   2.963  15.041  0.6081 -0.0123  0.1978
 8497TIP3    H146906   3.520   2.938  15.116  0.6853 -1.1856 -0.1157
 8497TIP3    H246907   3.648   3.010  15.079  1.2287 -1.5669  0.9957
 8498TIP3   OH246908   6.093   0.442   4.137 -0.5116 -0.5330  0.0798
 8498TIP3    H146909   6.102   0.429   4.232 -0.4322  0.7380  0.2602
 8498TIP3    H246910   6.140   0.368   4.098  1.5325  0.1942  1.0296
 8499TIP3   OH246911   6.642   1.911   2.023  0.1267  0.2055  0.3465
 8499TIP3    H146912   6.591   1.975   1.974 -0.0035 -0.6832 -0.7280
 8499TIP3    H246913   6.702   1.874   1.958  0.4712 -0.4697  1.0369
 8500TIP3   OH246914   3.906   3.456  16.710 -0.2719 -0.2682 -0.0987
 8500TIP3    H146915   3.898   3.424  16.620  1.6220 -1.6598  0.1556
 8500TIP3    H246916   3.901   3.376  16.763  1.7871  0.1410  0.7818
 8501TIP3   OH246917   0.662   6.394  12.504 -0.1010 -0.4233 -0.3393
 8501TIP3    H146918   0.613   6.448  12.441 -0.2379  0.5149  0.5430
 8501TIP3    H246919   0.747   6.379  12.462 -0.2346  0.0764 -0.8060
 8502TIP3   OH246920   2.294   0.532   2.282 -0.3742 -0.2989 -0.0975
 8502TIP3    H146921   2.211   0.508   2.323  0.6174 -0.9716  1.5999
 8502TIP3    H246922   2.298   0.480   2.202 -1.4906 -0.3847 -0.1111
 8503TIP3   OH246923   2.268   2.983  14.960  0.3467  0.4387  0.2957
 8503TIP3    H146924   2.212   2.931  15.017 -0.5411  1.6769  0.6076
 8503TIP3    H246925   2.351   2.936  14.958  0.2643  0.1309  2.2684
 8504TIP3   OH246926   0.510   4.062   2.960  0.4620  0.1382  0.1322
 8504TIP3    H146927   0.437   4.109   3.001  0.4621  0.1600  0.1073
 8504TIP3    H246928   0.576   4.055   3.029  0.3679 -0.0300  0.2051
 8505TIP3   OH246929   6.043   1.763   1.611  0.0344 -0.6299 -0.0205
 8505TIP3    H146930   5.980   1.756   1.539  0.1102 -0.0409 -0.1494
 8505TIP3    H246931   5.990   1.783   1.688  0.0378 -0.3590 -0.0868
 8506TIP3   OH246932   0.127   1.806   1.515 -0.5771  0.5118 -0.3527
 8506TIP3    H146933   0.114   1.761   1.432 -1.6629 -0.6334  0.3957
 8506TIP3    H246934   0.043   1.851   1.531  0.2172  2.1922 -0.6990
 8507TIP3   OH246935   5.840   5.336   4.198  0.4823  0.0052 -0.5315
 8507TIP3    H146936   5.933   5.331   4.175  0.2681  1.9112 -2.1107
 8507TIP3    H246937   5.821   5.430   4.200 -1.6324 -0.3519 -1.2421
 8508TIP3   OH246938   6.324   1.738   1.349  0.2884  0.6034  0.0264
 8508TIP3    H146939   6.301   1.821   1.391 -1.2856 -0.1353  0.7190
 8508TIP3    H246940   6.324   1.674   1.421 -1.5188 -0.5179 -0.9063
 8509TIP3   OH246941   2.507   2.104  16.381 -0.4419 -0.2107  0.0408
 8509TIP3    H146942   2.523   2.011  16.365 -0.8500 -0.3590  0.4798
 8509TIP3    H246943   2.429   2.106  16.436 -0.1375  0.3724  0.4633
 8510TIP3   OH246944   4.218   1.508   3.281 -0.0611  0.3343  0.3224
 8510TIP3    H146945   4.173   1.580   3.324  0.8823  0.8197  0.5335
 8510TIP3    H246946   4.311   1.530   3.288  0.2631 -1.0061  0.5837
 8511TIP3   OH246947   0.293   2.695   1.537  0.2717  0.7856  0.2678
 8511TIP3    H146948   0.239   2.735   1.469  0.2584  3.3174  1.6287
 8511TIP3    H246949   0.241   2.704   1.617  1.2467  0.0337  1.0077
 8512TIP3   OH246950   1.196   3.713   0.189 -0.2288 -0.6547  0.0254
 8512TIP3    H146951   1.121   3.658   0.210 -0.7346  0.0442  0.1207
 8512TIP3    H246952   1.269   3.673   0.236 -0.8184 -0.5901  1.0398
 8513TIP3   OH246953   2.745   2.157  16.550  0.1237  0.0954 -0.0820
 8513TIP3    H146954   2.762   2.236  16.498  0.0638  0.7857  0.9124
 8513TIP3    H246955   2.653   2.137  16.534  0.2226  0.0360 -0.5881
 8514TIP3   OH246956   0.042   6.238  16.059 -0.2240  0.3755 -0.0856
 8514TIP3    H146957  -0.006   6.156  16.053 -0.8406  0.7532 -0.4481
 8514TIP3    H246958   0.133   6.212  16.072 -0.0663 -0.4128 -2.3416
 8515TIP3   OH246959   4.624   0.177   5.421  0.0679 -0.0464 -0.7558
 8515TIP3    H146960   4.596   0.117   5.490 -0.8934 -0.4532 -1.4671
 8515TIP3    H246961   4.695   0.131   5.376  0.6364  0.1827 -0.1058
 8516TIP3   OH246962   0.057   0.589   3.719 -0.3454  0.3483 -0.0478
 8516TIP3    H146963   0.009   0.597   3.636 -0.5015  1.0241  0.0999
 8516TIP3    H246964   0.126   0.526   3.700 -1.1471 -0.4596 -0.3324
 8517TIP3   OH246965   1.479   0.798   2.799  0.2745 -0.7586  0.4473
 8517TIP3    H146966   1.478   0.882   2.845 -0.3398 -0.5818  0.1182
 8517TIP3    H246967   1.472   0.822   2.706  2.8378 -1.0185  0.0917
 8518TIP3   OH246968   6.073   0.168  12.127  0.0743 -0.2276  0.6471
 8518TIP3    H146969   6.147   0.108  12.119  0.2129 -0.0188  0.3865
 8518TIP3    H246970   6.021   0.153  12.048 -0.2881 -0.5380  0.9330
 8519TIP3   OH246971   2.424   5.916   5.814 -0.3372  0.1448 -0.1315
 8519TIP3    H146972   2.481   5.946   5.743  0.1426 -0.6749 -0.1057
 8519TIP3    H246973   2.476   5.925   5.893 -0.1744 -0.7270 -0.1228
 8520TIP3   OH246974   0.669   5.287   4.300 -0.1460  0.0039 -0.7296
 8520TIP3    H146975   0.584   5.248   4.323 -0.1960  0.1060 -0.7412
 8520TIP3    H246976   0.703   5.320   4.383  0.7362 -1.6837 -0.3751
 8521TIP3   OH246977   1.630   4.505   0.110  0.2232  0.8632 -0.1414
 8521TIP3    H146978   1.700   4.516   0.045  0.9313 -1.1163  0.2061
 8521TIP3    H246979   1.613   4.593   0.142  1.7526  1.5439 -1.0816
 8522TIP3   OH246980   5.577   3.165   2.770 -0.1942 -0.5748 -0.3185
 8522TIP3    H146981   5.563   3.211   2.687 -2.3528  2.0266  1.3207
 8522TIP3    H246982   5.663   3.197   2.801  1.5529 -3.0126 -2.2785
 8523TIP3   OH246983   3.358   6.635   3.130  0.6891  0.0669  0.1108
 8523TIP3    H146984   3.400   6.656   3.047 -0.2653  1.1726 -0.1191
 8523TIP3    H246985   3.284   6.579   3.105  0.5281  0.2214  0.2451
 8524TIP3   OH246986   5.097   1.313   4.149 -0.5211  0.0508  0.3399
 8524TIP3    H146987   5.141   1.391   4.182  1.5129 -0.4360 -1.0175
 8524TIP3    H246988   5.047   1.343   4.074 -1.0204  0.2955  0.7651
 8525TIP3   OH246989   0.404   5.342  13.166  0.4771  0.3703  0.2123
 8525TIP3    H146990   0.335   5.404  13.143  1.7197  1.5362 -0.5985
 8525TIP3    H246991   0.485   5.391  13.150  1.5286 -1.6653 -1.0161
 8526TIP3   OH246992   0.338   1.470   4.536  0.1092 -0.0446  0.5069
 8526TIP3    H146993   0.418   1.466   4.484  0.1684  0.2942  0.5714
 8526TIP3    H246994   0.366   1.453   4.626 -0.2340 -2.5706  0.2309
 8527TIP3   OH246995   0.607   6.605  14.418  0.2139  0.7104  0.1569
 8527TIP3    H146996   0.590   6.608  14.324 -0.8519 -1.9471  0.1581
 8527TIP3    H246997   0.591   6.694  14.449 -1.7556  1.1289 -1.8337
 8528TIP3   OH246998   1.361   3.210  13.373  0.0519  0.0998 -0.6790
 8528TIP3    H146999   1.416   3.245  13.302  1.0736  0.5875  0.3180
 8528TIP3    H247000   1.363   3.278  13.441 -0.1563 -0.7355  0.1863
 8529TIP3   OH247001   5.170   3.538  13.003 -0.5752  0.4756 -0.2567
 8529TIP3    H147002   5.098   3.493  13.048  0.0257 -1.3789 -1.0533
 8529TIP3    H247003   5.177   3.623  13.048 -1.9088 -0.1180  1.1715
 8530TIP3   OH247004   1.932   6.266  11.267  0.3131  0.4437 -0.5682
 8530TIP3    H147005   1.996   6.233  11.331  0.5708  0.4194 -0.8382
 8530TIP3    H247006   1.985   6.295  11.193  0.0330  0.7659 -0.6422
 8531TIP3   OH247007   2.938   4.965  12.199 -0.1080 -0.1747 -0.1228
 8531TIP3    H147008   2.975   4.967  12.110 -1.4893 -0.7029 -0.7382
 8531TIP3    H247009   2.855   5.013  12.192 -0.2035 -0.1635  0.9044
 8532TIP3   OH247010   1.341   2.254  16.398 -0.1206 -0.7025 -0.2750
 8532TIP3    H147011   1.279   2.250  16.471  0.2997 -1.5757  0.0495
 8532TIP3    H247012   1.286   2.265  16.321 -0.6268 -0.5887  0.0939
 8533TIP3   OH247013   1.845   3.130  11.151 -0.1963 -0.2040  0.1657
 8533TIP3    H147014   1.809   3.187  11.219 -0.5673 -0.4451  0.1760
 8533TIP3    H247015   1.939   3.129  11.168 -0.3246 -0.5861  0.9392
 8534TIP3   OH247016   2.336   2.826   2.640 -0.2855 -0.0354 -0.4268
 8534TIP3    H147017   2.428   2.824   2.666  0.3774 -1.3967 -2.5642
 8534TIP3    H247018   2.335   2.882   2.562 -1.6628  1.5559  0.6575
 8535TIP3   OH247019   5.321   5.224   4.813 -0.9079  0.2415 -0.0335
 8535TIP3    H147020   5.348   5.316   4.813 -1.4970  0.4224 -0.8592
 8535TIP3    H247021   5.360   5.188   4.734 -1.9740  0.1786 -0.5463
 8536TIP3   OH247022   0.925   6.711   2.776  0.1274  0.7296  0.3469
 8536TIP3    H147023   0.915   6.734   2.869 -2.0336 -1.1795  0.6823
 8536TIP3    H247024   0.988   6.774   2.743  1.0180  1.4510  3.1213
 8537TIP3   OH247025   4.824   3.796  16.283  0.6704  0.5568  0.0006
 8537TIP3    H147026   4.900   3.852  16.268  0.0984  0.7291 -3.0086
 8537TIP3    H247027   4.749   3.854  16.274  0.1084  0.1120  1.4616
 8538TIP3   OH247028   5.603   2.517  13.441 -0.3673  0.3008 -0.6109
 8538TIP3    H147029   5.693   2.540  13.420 -0.2759  1.4993  0.8716
 8538TIP3    H247030   5.559   2.507  13.356  1.0200  0.2207 -1.3388
 8539TIP3   OH247031   0.403   5.779   4.252  0.3079 -1.1323  0.0974
 8539TIP3    H147032   0.478   5.780   4.312  1.3086 -0.9375 -1.1049
 8539TIP3    H247033   0.431   5.721   4.181  0.1631  0.5683 -1.4034
 8540TIP3   OH247034   2.072   2.017   4.105  0.5582  0.1280  0.1148
 8540TIP3    H147035   2.111   1.961   4.037  0.1126  1.4667 -1.3062
 8540TIP3    H247036   1.978   1.998   4.099  0.4165  0.9165 -0.3051
 8541TIP3   OH247037   1.983   4.948   5.709 -0.5960 -0.2896  0.2838
 8541TIP3    H147038   2.068   4.929   5.749 -0.7931 -0.7782  0.4743
 8541TIP3    H247039   2.004   4.978   5.621 -0.1932  0.1536  0.5234
 8542TIP3   OH247040   1.402   5.679   1.471 -0.8499 -0.2354  0.0932
 8542TIP3    H147041   1.348   5.756   1.458 -1.9664 -1.2468 -1.6621
 8542TIP3    H247042   1.472   5.686   1.406  1.8218  1.5006  2.9053
 8543TIP3   OH247043   1.103   2.998   1.787 -0.0176 -0.5201 -0.1223
 8543TIP3    H147044   1.019   3.040   1.769  0.4513  0.2630 -0.5209
 8543TIP3    H247045   1.149   2.998   1.703  0.4099 -0.8703  0.1066
 8544TIP3   OH247046   2.076   1.181  16.036  0.0339  0.6977 -0.5511
 8544TIP3    H147047   2.031   1.259  16.066 -0.3167  0.1837  0.2952
 8544TIP3    H247048   2.141   1.213  15.973  0.6800  1.7908  0.6338
 8545TIP3   OH247049   4.513   4.342   2.899  0.1837 -0.4115  0.0774
 8545TIP3    H147050   4.418   4.326   2.894  0.2554 -0.4590 -3.1536
 8545TIP3    H247051   4.521   4.435   2.921 -0.5556 -0.6113  1.2888
 8546TIP3   OH247052   0.251   5.750  13.043  0.0795  0.2425  0.1899
 8546TIP3    H147053   0.304   5.752  12.964  1.3068 -2.1924  0.8927
 8546TIP3    H247054   0.281   5.826  13.094  1.7088 -0.1370 -0.1657
 8547TIP3   OH247055   3.969   5.268   4.151 -0.6101  0.3226  0.1393
 8547TIP3    H147056   4.029   5.325   4.104 -1.4188 -0.1973 -1.6102
 8547TIP3    H247057   3.988   5.283   4.244  2.2139  0.1715 -0.3359
 8548TIP3   OH247058   5.013   1.075   0.195 -0.3075  0.3879  0.0877
 8548TIP3    H147059   5.027   1.032   0.279 -0.9557 -0.8611 -0.4155
 8548TIP3    H247060   4.933   1.036   0.161  0.4086  0.2261 -1.4992
 8549TIP3   OH247061   4.925   5.194  14.978 -0.1824  0.0715  0.3021
 8549TIP3    H147062   4.869   5.146  14.917 -0.7140  1.2048 -0.1427
 8549TIP3    H247063   4.896   5.165  15.065  1.2011 -2.2333  0.0562
 8550TIP3   OH247064   4.950   5.072  15.930  0.8329 -0.0299  0.4272
 8550TIP3    H147065   4.922   5.027  16.010  0.3447  0.4146  0.5131
 8550TIP3    H247066   5.045   5.062  15.929  0.8294 -0.1716  0.9858
 8551TIP3   OH247067   2.583   5.502  11.844 -0.4566  0.0518 -0.0711
 8551TIP3    H147068   2.631   5.459  11.914 -1.0694 -0.0994  0.2686
 8551TIP3    H247069   2.640   5.574  11.816  0.2117 -0.4754 -0.0850
 8552TIP3   OH247070   3.466   5.457   1.736  0.1292  0.5995 -0.2806
 8552TIP3    H147071   3.509   5.538   1.706  0.7104  0.5823  0.4673
 8552TIP3    H247072   3.461   5.402   1.658  1.2693  0.7049 -0.4481
 8553TIP3   OH247073   5.943   3.599  13.170 -0.0651 -0.2369  0.3626
 8553TIP3    H147074   5.847   3.592  13.166 -0.0878  0.5050 -0.7047
 8553TIP3    H247075   5.960   3.645  13.252 -0.5934 -0.7491  0.7740
 8554TIP3   OH247076   1.819   4.067  12.764  0.2669 -0.7528 -0.2944
 8554TIP3    H147077   1.819   4.106  12.676  0.1268 -1.9070 -0.8213
 8554TIP3    H247078   1.853   3.978  12.751  0.0209 -1.0145  0.7854
 8555TIP3   OH247079   0.528   1.646  12.804 -0.4391 -0.4788 -0.2505
 8555TIP3    H147080   0.582   1.581  12.849 -1.4344 -2.0127 -1.1813
 8555TIP3    H247081   0.514   1.715  12.869  1.5307 -0.6546  0.4189
 8556TIP3   OH247082   5.621   6.521   3.174 -0.9555 -0.1316 -0.4467
 8556TIP3    H147083   5.596   6.462   3.103  2.1081 -0.6551 -1.2605
 8556TIP3    H247084   5.578   6.486   3.251 -0.2379 -2.7795 -1.1475
 8557TIP3   OH247085   4.083   6.737  15.879  0.1435  0.3678  0.3463
 8557TIP3    H147086   3.998   6.714  15.841  0.8665 -0.4430 -0.8487
 8557TIP3    H247087   4.118   6.804  15.821  0.5577  0.2977  0.5133
 8558TIP3   OH247088   4.447   5.217   1.129  0.0813 -1.0543 -0.5868
 8558TIP3    H147089   4.425   5.303   1.093 -0.2672 -0.5048  0.8866
 8558TIP3    H247090   4.520   5.187   1.074 -0.5499 -0.3557 -1.8624
 8559TIP3   OH247091   0.864   5.208   0.725 -0.6307 -0.4289  0.2023
 8559TIP3    H147092   0.909   5.267   0.664 -0.5988 -0.0021  0.6275
 8559TIP3    H247093   0.791   5.260   0.758 -0.7443 -0.7153  0.3999
 8560TIP3   OH247094   1.633   5.986   2.727 -0.2463  0.1029  0.3661
 8560TIP3    H147095   1.633   6.022   2.816 -0.2547  1.2535 -0.0835
 8560TIP3    H247096   1.552   5.935   2.722  0.7870 -1.7878  1.6966
 8561TIP3   OH247097   3.791   6.315   3.701  0.2893 -0.4675 -0.6226
 8561TIP3    H147098   3.734   6.343   3.629  2.8534  0.0626 -2.6241
 8561TIP3    H247099   3.842   6.243   3.664  0.8313 -1.0064  1.0941
 8562TIP3   OH247100   5.253   4.639   2.666  0.3530  0.1785 -0.3115
 8562TIP3    H147101   5.344   4.611   2.661  0.9991  2.1932 -0.9209
 8562TIP3    H247102   5.204   4.571   2.619  1.6484 -0.4860 -0.7348
 8563TIP3   OH247103   3.258   4.409  14.033  0.6579 -0.2570  0.2790
 8563TIP3    H147104   3.314   4.482  14.060  0.5514  0.5621 -1.5470
 8563TIP3    H247105   3.169   4.444  14.038  0.5948 -0.2948 -0.4452
 8564TIP3   OH247106   3.451   0.006   0.319  0.1707 -0.2497  0.5156
 8564TIP3    H147107   3.513   0.077   0.304 -0.0622 -0.1132  0.1896
 8564TIP3    H247108   3.460  -0.014   0.412  1.1180 -0.6258  0.3466
 8565TIP3   OH247109   0.079   5.596  13.564  0.5386 -0.0837 -0.0889
 8565TIP3    H147110   0.174   5.588  13.562  0.6434  1.0930 -0.5463
 8565TIP3    H247111   0.063   5.688  13.586 -0.4634  0.4905 -2.8497
 8566TIP3   OH247112   4.786   6.115  11.770  0.2323  0.0947 -1.0470
 8566TIP3    H147113   4.806   6.159  11.688 -1.4400  0.4408 -1.3080
 8566TIP3    H247114   4.784   6.185  11.835  0.7043 -0.0518 -0.8763
 8567TIP3   OH247115   1.408   1.487  11.424 -0.2097  0.0847  0.0363
 8567TIP3    H147116   1.371   1.410  11.467 -1.8236  0.4054 -0.6914
 8567TIP3    H247117   1.340   1.516  11.363  0.8405  1.3733 -0.5899
 8568TIP3   OH247118   0.758   2.605  11.959 -0.0130 -0.5088  0.2403
 8568TIP3    H147119   0.779   2.697  11.947  0.5910 -0.5365  0.9842
 8568TIP3    H247120   0.678   2.591  11.910 -0.3436  0.5187  0.4808
 8569TIP3   OH247121   1.745   5.247   2.377  0.1846  0.7090  0.0203
 8569TIP3    H147122   1.822   5.243   2.434  0.0258  4.7543  0.7747
 8569TIP3    H247123   1.677   5.287   2.432 -1.3850  0.5610 -1.7281
 8570TIP3   OH247124   3.634   6.428   5.322  0.5485 -0.1170  0.2820
 8570TIP3    H147125   3.577   6.462   5.253  0.7060 -0.5315 -0.0525
 8570TIP3    H247126   3.697   6.499   5.338  1.1514 -0.4099 -0.7288
 8571TIP3   OH247127   4.346   2.779   1.634  0.1303  0.1811 -0.3921
 8571TIP3    H147128   4.402   2.701   1.633 -0.4826 -0.2673 -0.9378
 8571TIP3    H247129   4.323   2.794   1.543  0.1737  0.9625 -0.2823
 8572TIP3   OH247130   6.521   6.648   0.135  0.0370 -0.1891  0.4569
 8572TIP3    H147131   6.544   6.558   0.161  1.1799  0.3186  1.2791
 8572TIP3    H247132   6.457   6.636   0.065 -0.4472 -1.6413  1.0980
 8573TIP3   OH247133   5.691   2.829   0.275 -0.2984 -0.7283  0.1412
 8573TIP3    H147134   5.606   2.868   0.252  0.1363 -1.1381 -2.4508
 8573TIP3    H247135   5.668   2.756   0.333 -1.7401 -0.8445 -0.5209
 8574TIP3   OH247136   6.675   2.061   2.998  0.0477 -0.4563  0.5814
 8574TIP3    H147137   6.650   2.074   2.907 -2.2965 -1.9728  0.9249
 8574TIP3    H247138   6.714   1.974   3.000  0.6463 -0.1831  0.9292
 8575TIP3   OH247139   6.580   1.318  17.171 -0.6270  0.2721 -0.5309
 8575TIP3    H147140   6.490   1.317  17.203 -0.3859 -0.1725  0.1280
 8575TIP3    H247141   6.623   1.244  17.214  0.1690  0.7283 -0.5106
 8576TIP3   OH247142   4.633   1.040  14.921 -0.3921  0.0105 -0.2192
 8576TIP3    H147143   4.670   0.997  14.844 -1.0343  0.9779 -1.0973
 8576TIP3    H247144   4.561   0.983  14.948 -0.2198 -0.2907 -0.3907
 8577TIP3   OH247145   3.895   0.309   1.186  0.5349  0.2380 -0.1383
 8577TIP3    H147146   3.935   0.377   1.241 -1.0556  3.1883 -2.3349
 8577TIP3    H247147   3.802   0.312   1.207  0.2981 -0.5693 -0.9952
 8578TIP3   OH247148   5.827   1.096   6.482 -0.2689 -0.4903  0.7945
 8578TIP3    H147149   5.858   1.186   6.479 -0.4418 -0.4448 -1.3801
 8578TIP3    H247150   5.734   1.104   6.506 -0.1202 -0.1427  1.2638
 8579TIP3   OH247151   1.278   3.871   1.207 -0.4664 -0.3084  1.0988
 8579TIP3    H147152   1.241   3.958   1.221  0.2532  0.3029 -0.5615
 8579TIP3    H247153   1.211   3.824   1.159  0.0631  0.1537 -0.1464
 8580TIP3   OH247154   3.887   0.094   4.890  0.0039  0.2313  0.1257
 8580TIP3    H147155   3.824   0.134   4.830  0.8228 -0.6156 -1.3619
 8580TIP3    H247156   3.833   0.060   4.961 -0.9461  1.7327  0.1670
 8581TIP3   OH247157   6.700   3.994  12.841 -0.1443 -0.5388 -0.3980
 8581TIP3    H147158   6.732   3.918  12.889  0.7904 -0.2060 -0.4708
 8581TIP3    H247159   6.779   4.036  12.808 -0.5738  1.0795  0.5546
 8582TIP3   OH247160   0.324   0.740  13.637 -0.6200 -0.2248  0.3913
 8582TIP3    H147161   0.375   0.666  13.671 -1.6672 -1.5015 -0.6950
 8582TIP3    H247162   0.343   0.741  13.543 -0.8688  0.7129  0.3361
 8583TIP3   OH247163   4.717   5.476   2.836 -0.6546  0.1356 -0.3378
 8583TIP3    H147164   4.654   5.475   2.764 -0.0034  0.0907 -0.9147
 8583TIP3    H247165   4.803   5.470   2.793 -0.3008 -1.1249  0.4962
 8584TIP3   OH247166   4.321   4.159   0.115 -0.2598  0.2577 -0.3194
 8584TIP3    H147167   4.343   4.240   0.069 -0.6533  0.0956 -0.8027
 8584TIP3    H247168   4.227   4.168   0.135 -0.1020  0.3208  0.4432
 8585TIP3   OH247169   3.685   5.445   2.343  0.3243 -0.1022 -0.4961
 8585TIP3    H147170   3.738   5.488   2.410 -1.8145  1.3321  0.4145
 8585TIP3    H247171   3.649   5.517   2.290 -1.4737 -0.8635 -0.4062
 8586TIP3   OH247172   6.377   6.624   4.378 -0.3316 -0.4596 -0.0563
 8586TIP3    H147173   6.366   6.686   4.305 -0.9276  0.2070  0.5851
 8586TIP3    H247174   6.387   6.679   4.455  1.3752 -1.1430  0.2513
 8587TIP3   OH247175   3.491   2.364   3.265  0.5120 -0.2716 -0.3060
 8587TIP3    H147176   3.395   2.357   3.271  0.5226  0.0453  0.2686
 8587TIP3    H247177   3.507   2.456   3.248  0.6530 -0.5774 -2.0180
 8588TIP3   OH247178   0.193   1.779   0.988  0.3095  0.6601 -0.0141
 8588TIP3    H147179   0.162   1.712   0.926  1.5366  1.2887 -1.3808
 8588TIP3    H247180   0.118   1.837   0.999 -0.2715 -0.0686 -0.0490
 8589TIP3   OH247181   0.472   3.305  11.890  0.0365  0.7696  0.7085
 8589TIP3    H147182   0.489   3.390  11.931 -0.0098  1.6123 -0.9391
 8589TIP3    H247183   0.381   3.286  11.914 -1.2162  2.9689 -1.7678
 8590TIP3   OH247184   0.916   4.736  12.027  0.2037 -0.0814  0.5150
 8590TIP3    H147185   0.956   4.776  11.950 -2.3934 -0.8133 -1.3584
 8590TIP3    H247186   0.876   4.809  12.075 -1.4829  0.0640 -0.9945
 8591TIP3   OH247187   2.251   5.471  15.574  0.2559 -0.4957 -0.2285
 8591TIP3    H147188   2.278   5.520  15.651  0.8336 -2.5658  0.9528
 8591TIP3    H247189   2.158   5.493  15.564 -0.0311 -0.7264  1.5163
 8592TIP3   OH247190   1.999   2.194  15.889  0.2290 -0.2027 -0.2839
 8592TIP3    H147191   2.052   2.259  15.935 -0.1890  0.0861 -0.1974
 8592TIP3    H247192   2.046   2.176  15.808  1.9033 -2.0247  0.9900
 8593TIP3   OH247193   1.217   6.285   2.364 -0.3073 -0.1182 -0.6371
 8593TIP3    H147194   1.219   6.291   2.459 -3.4506  2.8503 -0.5798
 8593TIP3    H247195   1.274   6.356   2.334  1.9500 -1.9936 -1.1712
 8594TIP3   OH247196   4.801   1.689  14.581 -0.6464 -0.1273  0.4819
 8594TIP3    H147197   4.715   1.697  14.540 -0.1499  3.2032 -0.2012
 8594TIP3    H247198   4.857   1.653  14.513 -1.0288 -0.0939  0.1482
 8595TIP3   OH247199   5.929   0.050   5.597  0.2735 -0.4029 -0.5915
 8595TIP3    H147200   5.860   0.028   5.534  1.5300  0.0184 -2.1614
 8595TIP3    H247201   5.925   0.145   5.604  0.4945 -0.4040 -0.4571
 8596TIP3   OH247202   0.782   5.538   0.402 -0.2805  0.7777 -0.4925
 8596TIP3    H147203   0.704   5.483   0.390 -0.1254 -0.0050  1.5278
 8596TIP3    H247204   0.748   5.627   0.405 -0.5935  0.8426 -3.4080
 8597TIP3   OH247205   5.755   2.768  16.842  0.1164 -0.0384  0.2178
 8597TIP3    H147206   5.678   2.772  16.900 -0.8922 -1.9300 -0.8798
 8597TIP3    H247207   5.760   2.676  16.815  2.7340  0.0461  0.1472
 8598TIP3   OH247208   1.645   3.641  12.001  0.0257  0.4212 -0.4263
 8598TIP3    H147209   1.611   3.578  11.938 -1.5040 -0.9266  1.5939
 8598TIP3    H247210   1.737   3.653  11.976 -0.2800 -0.7297 -2.3089
 8599TIP3   OH247211   5.129   1.561  14.898 -0.2845  0.8367  0.2975
 8599TIP3    H147212   5.099   1.651  14.913 -0.7955  0.9625 -1.3609
 8599TIP3    H247213   5.052   1.514  14.866  0.1517 -0.0387  0.4936
 8600TIP3   OH247214   3.600   1.523  15.242  0.1642 -0.4413 -0.1826
 8600TIP3    H147215   3.624   1.432  15.225  0.8015 -0.6234  1.5292
 8600TIP3    H247216   3.661   1.551  15.310  0.3711  1.4615 -1.0887
 8601TIP3   OH247217   6.176   6.184  15.111 -0.8954 -0.4234 -0.1303
 8601TIP3    H147218   6.153   6.108  15.057 -0.1264 -0.1912 -0.7959
 8601TIP3    H247219   6.241   6.232  15.059 -0.5164  0.0706  0.7812
 8602TIP3   OH247220   2.609   0.251  11.938  0.1047  0.1889  0.1829
 8602TIP3    H147221   2.544   0.311  11.974 -0.7114 -1.7574  2.1467
 8602TIP3    H247222   2.680   0.251  12.001  1.0410  0.6154 -0.8426
 8603TIP3   OH247223   1.646   3.788  13.113  0.0013 -0.8153  0.4786
 8603TIP3    H147224   1.622   3.868  13.067  2.4744 -1.7414 -2.9203
 8603TIP3    H247225   1.573   3.728  13.095  0.1292 -0.6097 -0.9032
 8604TIP3   OH247226   2.915   3.481  16.642 -0.5212  1.0970  0.1216
 8604TIP3    H147227   2.946   3.569  16.620 -0.0579  0.6040 -1.2905
 8604TIP3    H247228   2.984   3.445  16.698  0.8741  0.5163 -1.8664
 8605TIP3   OH247229   5.946   4.468   2.860  0.5894  0.5997 -0.2958
 8605TIP3    H147230   5.909   4.554   2.880 -0.9580 -0.4576  1.8998
 8605TIP3    H247231   6.041   4.481   2.862  0.4809  2.8972 -3.5066
 8606TIP3   OH247232   5.127   1.081  14.534  0.3150 -0.0684  0.3536
 8606TIP3    H147233   5.205   1.048  14.578  0.1963 -0.1950  0.4688
 8606TIP3    H247234   5.126   1.035  14.450  1.4137  1.3228 -0.4700
 8607TIP3   OH247235   3.866   1.934  15.306  0.5000 -0.0071  0.1286
 8607TIP3    H147236   3.850   1.864  15.243 -1.7831 -0.9498  1.6560
 8607TIP3    H247237   3.957   1.960  15.290  0.7170 -1.7700 -1.9650
 8608TIP3   OH247238   2.365   5.148  13.348 -0.5529  0.4174  0.3171
 8608TIP3    H147239   2.448   5.187  13.378 -0.9241 -0.7242  3.1904
 8608TIP3    H247240   2.301   5.174  13.414 -2.2871  0.3843 -1.2740
 8609TIP3   OH247241   1.491   4.978  17.003  0.0183 -0.1535 -0.1498
 8609TIP3    H147242   1.564   4.924  16.972  2.6721  1.6050  2.4849
 8609TIP3    H247243   1.487   5.050  16.940  3.3137  1.7630  1.5297
 8610TIP3   OH247244   4.029   4.123  13.483  0.3242  0.1908 -0.8506
 8610TIP3    H147245   4.061   4.186  13.549  0.4551  0.1654 -0.8906
 8610TIP3    H247246   3.936   4.115  13.502  0.4535 -0.1855 -0.3609
 8611TIP3   OH247247   3.499   3.844   0.203 -0.2865  0.1802  0.3667
 8611TIP3    H147248   3.467   3.827   0.292  0.3869 -0.1155  0.5557
 8611TIP3    H247249   3.536   3.931   0.207  2.5052 -0.9366  1.1974
 8612TIP3   OH247250   5.640   2.707   4.466 -0.1508  0.6153  0.6718
 8612TIP3    H147251   5.600   2.685   4.551 -0.3497  0.0876  0.4421
 8612TIP3    H247252   5.697   2.633   4.446 -1.5594 -0.1837 -0.5633
 8613TIP3   OH247253   0.591   4.447   0.666  0.0413 -0.4416 -0.3500
 8613TIP3    H147254   0.615   4.411   0.581  0.4354  1.3300 -1.0375
 8613TIP3    H247255   0.590   4.542   0.653  0.2335 -0.1068  1.6488
 8614TIP3   OH247256   0.774   2.747   0.255  0.2096 -0.4609  0.1022
 8614TIP3    H147257   0.854   2.801   0.259 -0.9021  1.2575  0.1043
 8614TIP3    H247258   0.771   2.702   0.339  0.5924  0.3663  0.5776
 8615TIP3   OH247259   4.132   5.126   0.694 -0.0983 -0.2704 -0.1501
 8615TIP3    H147260   4.170   5.193   0.751 -1.6701  1.2912 -0.8465
 8615TIP3    H247261   4.045   5.109   0.731 -0.9041  0.3154 -1.6620
 8616TIP3   OH247262   0.799   3.318   4.647  0.3639 -0.6201 -0.1422
 8616TIP3    H147263   0.796   3.413   4.635  0.1820 -0.7377 -1.1641
 8616TIP3    H247264   0.722   3.286   4.600  0.5248 -1.2831  0.0390
 8617TIP3   OH247265   2.912   3.152  13.033 -0.4600  0.3840 -0.2392
 8617TIP3    H147266   2.998   3.133  12.997  0.1257  1.0443  0.7522
 8617TIP3    H247267   2.853   3.153  12.957  0.3200 -0.4811 -0.8743
 8618TIP3   OH247268   2.402   1.121   4.832 -0.0572  0.4021  0.4063
 8618TIP3    H147269   2.322   1.173   4.836  0.7180  1.5655  1.5126
 8618TIP3    H247270   2.457   1.167   4.769 -0.1625 -0.2891 -0.2062
 8619TIP3   OH247271   5.512   3.489  16.878 -0.3505 -0.2061  0.0516
 8619TIP3    H147272   5.449   3.417  16.870 -1.5615  0.8636 -0.3654
 8619TIP3    H247273   5.490   3.532  16.961  0.7540 -0.6493  0.5987
 8620TIP3   OH247274   3.789   3.215  16.789 -0.2592  0.4445  0.5708
 8620TIP3    H147275   3.838   3.150  16.738  0.2525  0.7916  0.6089
 8620TIP3    H247276   3.731   3.163  16.845  1.0501 -0.0452  1.5356
 8621TIP3   OH247277   1.131   6.685   5.467  0.0771 -0.2977  0.4374
 8621TIP3    H147278   1.064   6.662   5.402 -0.2358 -0.9395  0.9704
 8621TIP3    H247279   1.214   6.673   5.422 -0.1103 -1.5624  0.4052
 8622TIP3   OH247280   1.787   4.259  13.688 -0.3121  0.6032  0.8364
 8622TIP3    H147281   1.772   4.342  13.731  1.3273  1.4498 -0.1312
 8622TIP3    H247282   1.699   4.226  13.667 -1.0944  0.7437  3.6117
 8623TIP3   OH247283   5.421   5.439   6.747  0.1124 -0.5387 -0.6791
 8623TIP3    H147284   5.516   5.439   6.741  0.0872  0.5809 -1.1999
 8623TIP3    H247285   5.403   5.475   6.834  0.1582 -0.8719 -0.5285
 8624TIP3   OH247286   0.731   4.718  15.026 -0.0062  0.0689 -0.5570
 8624TIP3    H147287   0.690   4.655  15.085  0.5596  0.3379  0.1316
 8624TIP3    H247288   0.687   4.704  14.942 -1.3348  0.1840  0.0930
 8625TIP3   OH247289   1.840   0.839  11.802  0.2152  0.0456  1.0847
 8625TIP3    H147290   1.843   0.748  11.771  0.5387 -0.0023  1.2595
 8625TIP3    H247291   1.748   0.865  11.790  0.3552  0.0820 -0.0845
 8626TIP3   OH247292   1.453   2.693  11.624  0.2717 -0.1968 -0.1421
 8626TIP3    H147293   1.395   2.619  11.608 -0.0186  0.0168 -0.0943
 8626TIP3    H247294   1.515   2.692  11.550 -0.4851  0.2366 -0.7998
 8627TIP3   OH247295   2.198   4.866  13.256  0.0780 -0.0769 -0.2126
 8627TIP3    H147296   2.162   4.909  13.333 -0.0835 -1.4450  0.5176
 8627TIP3    H247297   2.249   4.792  13.291  0.8413 -0.1353 -1.3734
 8628TIP3   OH247298   6.540   3.648  12.355 -0.2735 -0.6030 -0.0143
 8628TIP3    H147299   6.498   3.675  12.436 -2.2770 -2.4555 -0.3609
 8628TIP3    H247300   6.507   3.709  12.289 -0.2785 -0.3908  0.1857
 8629TIP3   OH247301   2.323   4.563   0.007 -0.2512  0.3120  0.6784
 8629TIP3    H147302   2.282   4.584  -0.077 -1.7984  0.6833  1.4892
 8629TIP3    H247303   2.261   4.504   0.050  1.2686 -1.1570  0.9217
 8630TIP3   OH247304   5.878   1.839  16.467 -0.3312 -0.1269  0.6569
 8630TIP3    H147305   5.953   1.898  16.464 -0.4238 -0.0469 -1.4494
 8630TIP3    H247306   5.913   1.753  16.443 -0.7849 -0.2346  0.3659
 8631TIP3   OH247307   2.724   0.640  12.260  0.6070 -0.2069 -0.2182
 8631TIP3    H147308   2.680   0.707  12.208  0.9304 -0.9495 -1.4976
 8631TIP3    H247309   2.818   0.657  12.248  0.7789  1.3973  2.5316
 8632TIP3   OH247310   6.549   1.609  11.238  0.5181  0.1601  0.3607
 8632TIP3    H147311   6.496   1.647  11.168 -0.8908 -0.0297  1.2899
 8632TIP3    H247312   6.602   1.682  11.270  1.7050  0.0952 -1.3290
 8633TIP3   OH247313   6.584   3.182  11.414 -0.4168  0.7246  0.9102
 8633TIP3    H147314   6.678   3.176  11.394 -0.5553 -0.7424  0.5801
 8633TIP3    H247315   6.579   3.241  11.489  0.8753  0.0557  1.5603
 8634TIP3   OH247316   5.451   1.531  16.481 -0.1828 -0.5904  0.1056
 8634TIP3    H147317   5.418   1.620  16.492 -1.2937 -0.7617 -1.4081
 8634TIP3    H247318   5.537   1.532  16.522  0.1220  1.3776 -0.4414
 8635TIP3   OH247319   5.672   0.512   5.550  0.3582 -0.6034 -0.1251
 8635TIP3    H147320   5.689   0.545   5.461 -0.5372 -0.8702 -0.4051
 8635TIP3    H247321   5.752   0.530   5.598  0.1085  1.5118 -0.4160
 8636TIP3   OH247322   1.582   6.339   2.252  0.1436  0.0292  0.4221
 8636TIP3    H147323   1.530   6.409   2.212 -1.2649 -0.6107  1.0481
 8636TIP3    H247324   1.545   6.259   2.216 -0.3292 -0.5052  2.0041
 8637TIP3   OH247325   1.082   3.548  13.714 -0.8562  0.2606 -0.1819
 8637TIP3    H147326   1.130   3.621  13.755 -0.9713  0.3805 -0.2605
 8637TIP3    H247327   1.017   3.522  13.779  0.6003 -1.2284  0.7689
 8638TIP3   OH247328   2.393   0.072   1.017 -0.2471 -0.3208  0.6270
 8638TIP3    H147329   2.479   0.114   1.021 -0.7002  0.5930  0.9794
 8638TIP3    H247330   2.341   0.117   1.084 -1.4769  0.2316 -0.6555
 8639TIP3   OH247331   3.061   4.753   1.594 -0.0486 -0.3522  0.3241
 8639TIP3    H147332   3.036   4.674   1.546 -0.8700 -0.2418  0.5549
 8639TIP3    H247333   3.157   4.751   1.596 -0.0745 -1.8984  1.2519
 8640TIP3   OH247334   0.517   0.950  15.851  0.1744  0.3848  0.3538
 8640TIP3    H147335   0.587   0.886  15.867  0.3982  0.7353  0.8173
 8640TIP3    H247336   0.487   0.932  15.762 -1.2127 -1.7502  1.1794
 8641TIP3   OH247337   1.201   6.012   4.602  0.1800  0.1269  0.2095
 8641TIP3    H147338   1.117   5.982   4.635  0.8095 -1.3302  0.5830
 8641TIP3    H247339   1.221   5.953   4.529  1.1258  0.0964  0.4757
 8642TIP3   OH247340   4.913   5.807  16.106 -0.2489 -0.0525  0.0867
 8642TIP3    H147341   4.981   5.839  16.047 -0.0911 -2.2223 -0.9965
 8642TIP3    H247342   4.853   5.757  16.050 -1.0363 -0.7512  1.4839
 8643TIP3   OH247343   2.229   3.751   5.054  0.3795  0.0077  0.6365
 8643TIP3    H147344   2.171   3.785   5.122  0.2789  0.4662  0.3291
 8643TIP3    H247345   2.258   3.666   5.087 -2.1769 -1.2701 -0.1509
 8644TIP3   OH247346   5.111   0.152  11.666  0.1227 -0.1628  0.2547
 8644TIP3    H147347   5.164   0.088  11.620  1.0812  0.8814 -0.1510
 8644TIP3    H247348   5.052   0.100  11.721  0.1956 -1.3823 -0.7874
 8645TIP3   OH247349   5.323   3.166  17.223  0.3503  0.2723  0.2329
 8645TIP3    H147350   5.276   3.239  17.264 -0.5282  0.2544 -0.6939
 8645TIP3    H247351   5.385   3.136  17.289 -0.3197  0.9000  1.1579
 8646TIP3   OH247352   1.492   4.618  12.965 -0.9513  0.6671 -0.0627
 8646TIP3    H147353   1.544   4.641  13.042 -0.9989 -1.6124  0.7272
 8646TIP3    H247354   1.409   4.586  13.001 -1.4090  0.5915 -1.1294
 8647TIP3   OH247355   0.610   5.965  13.195  0.4810  0.1036 -0.6733
 8647TIP3    H147356   0.530   5.925  13.162 -1.0496  2.2182  0.2818
 8647TIP3    H247357   0.624   6.042  13.140  1.9226 -0.2691 -0.8677
 8648TIP3   OH247358   2.568   6.060   4.062  0.2060 -0.1719  0.1993
 8648TIP3    H147359   2.482   6.020   4.054  1.2972 -2.3312 -2.0620
 8648TIP3    H247360   2.595   6.076   3.972  2.0454  0.7864  0.8681
 8649TIP3   OH247361   2.379   5.265   5.210 -0.9153 -0.1339  0.3688
 8649TIP3    H147362   2.457   5.215   5.187 -1.0480 -0.5998  0.8880
 8649TIP3    H247363   2.306   5.203   5.198 -0.9907 -0.4175  1.9860
 8650TIP3   OH247364   1.809   6.484   1.609  0.5665 -0.0429 -0.2035
 8650TIP3    H147365   1.735   6.496   1.669  0.0125 -1.3886 -0.5714
 8650TIP3    H247366   1.881   6.530   1.651 -0.4608  1.2989  0.1755
 8651TIP3   OH247367   6.311   1.181   5.617 -0.2412 -0.9571 -0.0411
 8651TIP3    H147368   6.263   1.238   5.557  0.2624 -0.4914 -0.0035
 8651TIP3    H247369   6.382   1.235   5.650 -0.3094 -1.3185  0.7205
 8652TIP3   OH247370   6.705   1.461   2.300 -0.1559  0.4466 -0.3188
 8652TIP3    H147371   6.696   1.538   2.357  0.2372 -0.0873  0.4768
 8652TIP3    H247372   6.647   1.480   2.226 -0.8040  1.0896  0.3280
 8653TIP3   OH247373   3.834   3.874   2.346 -0.2797 -0.4229 -0.0391
 8653TIP3    H147374   3.782   3.796   2.363  0.2333 -0.8326 -0.3262
 8653TIP3    H247375   3.920   3.855   2.385  0.3622 -0.6682 -1.5033
 8654TIP3   OH247376   2.930   0.847  16.289 -0.0179  0.4851 -0.4130
 8654TIP3    H147377   2.965   0.814  16.372 -0.8094  1.1029  0.1813
 8654TIP3    H247378   2.964   0.787  16.223 -0.5178 -0.8409  0.5110
 8655TIP3   OH247379   4.348   6.536  15.676 -0.1639  0.7946  0.0855
 8655TIP3    H147380   4.328   6.619  15.632  0.2790  1.4382  1.0541
 8655TIP3    H247381   4.435   6.550  15.714  0.1979 -0.3561 -0.2864
 8656TIP3   OH247382   0.017   4.648   1.133  0.3308  0.4727 -0.5158
 8656TIP3    H147383  -0.003   4.617   1.045  0.2865 -0.5544 -0.1586
 8656TIP3    H247384   0.086   4.713   1.121  1.5536 -0.8963 -1.1771
 8657TIP3   OH247385   4.642   5.721  12.126  0.1408 -0.5178  0.4823
 8657TIP3    H147386   4.626   5.723  12.221 -0.1491 -1.2154  0.4500
 8657TIP3    H247387   4.565   5.764  12.088 -0.1244 -0.9610  0.5177
 8658TIP3   OH247388   0.660   2.976  14.976  0.4816 -0.6799  0.4525
 8658TIP3    H147389   0.737   2.993  15.031 -1.6727  1.6169  3.0991
 8658TIP3    H247390   0.611   3.058  14.979  0.3041 -0.1693 -5.5216
 8659TIP3   OH247391   6.126   5.732   4.057 -0.0638 -0.0601  0.3152
 8659TIP3    H147392   6.156   5.654   4.012 -0.4976 -0.0012 -0.0908
 8659TIP3    H247393   6.206   5.778   4.084  0.2531  0.6290 -1.6466
 8660TIP3   OH247394   1.213   0.081  15.860  0.2809  0.4239 -0.3722
 8660TIP3    H147395   1.166   0.059  15.941  0.3238  0.8958 -0.2181
 8660TIP3    H247396   1.157   0.046  15.790  0.2620 -0.0206 -0.1418
 8661TIP3   OH247397   6.207   5.900   5.010  0.2264  0.0109 -0.4515
 8661TIP3    H147398   6.173   5.923   4.924  0.3440  1.4056 -0.1503
 8661TIP3    H247399   6.302   5.911   5.002  0.2228  0.3223 -0.0992
 8662TIP3   OH247400   3.076   1.474  15.700 -0.4692 -0.9411  0.3207
 8662TIP3    H147401   3.125   1.451  15.778  0.6570 -0.2023 -0.1396
 8662TIP3    H247402   3.084   1.569  15.694 -0.5009 -0.9883 -0.7024
 8663TIP3   OH247403   2.211   0.234   2.180 -0.5193 -0.7286  0.4646
 8663TIP3    H147404   2.209   0.293   2.105  0.8789  0.9609  1.6455
 8663TIP3    H247405   2.254   0.155   2.149  1.6004  0.5990 -0.1304
 8664TIP3   OH247406   6.303   1.394  13.123 -0.0521  0.4995  0.8669
 8664TIP3    H147407   6.304   1.483  13.158 -1.4662  0.2643  1.5627
 8664TIP3    H247408   6.282   1.339  13.199 -0.7641 -0.2629  0.1297
 8665TIP3   OH247409   5.372   5.565   0.301  0.3117  0.3529  0.4071
 8665TIP3    H147410   5.410   5.607   0.224 -0.3133 -0.0800 -0.1529
 8665TIP3    H247411   5.300   5.623   0.327  0.5044  0.4841  0.6518
 8666TIP3   OH247412   3.598   6.704  10.802  0.9004 -0.1623 -0.2069
 8666TIP3    H147413   3.671   6.682  10.743  1.1239 -1.0223  0.3682
 8666TIP3    H247414   3.627   6.783  10.848  1.5285 -0.5748  0.1126
 8667TIP3   OH247415   1.710   5.827   1.702  0.2841  0.5659 -0.1270
 8667TIP3    H147416   1.664   5.743   1.693 -0.1788  0.7791  0.2457
 8667TIP3    H247417   1.691   5.874   1.621  3.5424 -1.1116 -2.0881
 8668TIP3   OH247418   2.999   3.320  11.568  0.2922  0.1659  0.5237
 8668TIP3    H147419   3.035   3.249  11.621  2.0949 -1.9550 -3.1413
 8668TIP3    H247420   2.940   3.277  11.506  1.1103  1.8550 -1.5577
 8669TIP3   OH247421   6.395   6.350  15.026  0.5181  0.1059  0.1415
 8669TIP3    H147422   6.374   6.438  14.994 -2.3228 -0.6588 -0.3854
 8669TIP3    H247423   6.458   6.365  15.097  1.7021  2.3634 -1.2628
 8670TIP3   OH247424   6.620   2.728   6.037 -0.4119  0.2761  0.5716
 8670TIP3    H147425   6.679   2.724   6.113  0.5584 -0.3841 -0.2050
 8670TIP3    H247426   6.622   2.640   6.000 -1.7258  0.3092  0.3976
 8671TIP3   OH247427   3.151   4.769  16.966 -0.7820 -0.4724  0.6278
 8671TIP3    H147428   3.152   4.780  17.061 -0.8832 -1.9226  0.8241
 8671TIP3    H247429   3.147   4.674  16.953 -4.2581 -0.3141 -0.7482
 8672TIP3   OH247430   1.848   2.288   4.288 -0.0434 -0.5467 -0.3125
 8672TIP3    H147431   1.941   2.269   4.302  0.1588  1.6264  2.0028
 8672TIP3    H247432   1.842   2.307   4.195  2.1945  0.7148 -0.2941
 8673TIP3   OH247433   5.463   5.286   2.997 -0.0736 -0.1821 -0.1443
 8673TIP3    H147434   5.467   5.349   2.924  1.1631 -0.4283 -0.3118
 8673TIP3    H247435   5.470   5.341   3.076  1.1630 -0.0963 -0.2938
 8674TIP3   OH247436   6.607   2.506  14.934  0.1370 -0.3394 -0.0591
 8674TIP3    H147437   6.585   2.436  14.995 -2.7818  0.9342  0.5470
 8674TIP3    H247438   6.575   2.476  14.849 -0.6421  0.0082  0.1018
 8675TIP3   OH247439   0.475   1.867   0.964  0.1812  0.1585 -0.2492
 8675TIP3    H147440   0.489   1.933   1.032 -1.5336  1.2484 -0.8998
 8675TIP3    H247441   0.387   1.833   0.981 -0.1552  0.2318 -1.7176
 8676TIP3   OH247442   5.071   5.713  12.319  0.0426  0.3479 -0.2835
 8676TIP3    H147443   5.012   5.648  12.357  0.5994  0.2608  0.4439
 8676TIP3    H247444   5.041   5.722  12.228  0.3116 -1.3477 -0.5792
 8677TIP3   OH247445   3.093   1.468   3.670  0.1181 -0.3062  0.2353
 8677TIP3    H147446   3.173   1.500   3.628 -0.0776 -1.7001 -1.3279
 8677TIP3    H247447   3.115   1.378   3.697 -1.3095 -1.2542 -1.5464
 8678TIP3   OH247448   1.697   4.055  13.921  0.3533 -0.1212 -0.0001
 8678TIP3    H147449   1.655   4.064  13.835 -0.1034  0.3618  0.2653
 8678TIP3    H247450   1.789   4.038  13.902  0.1671 -0.4680 -0.5907
 8679TIP3   OH247451   5.291   0.822   4.546 -0.2301  0.2288  0.0348
 8679TIP3    H147452   5.306   0.797   4.638  0.3171 -0.6986 -0.2922
 8679TIP3    H247453   5.229   0.895   4.551 -0.1708  0.2260  1.1447
 8680TIP3   OH247454   3.855   4.905  13.196 -0.1732  0.2813 -0.4342
 8680TIP3    H147455   3.824   4.986  13.236 -0.4719 -0.2876  0.5300
 8680TIP3    H247456   3.787   4.882  13.133 -0.2770  0.5792 -0.4305
 8681TIP3   OH247457   4.468   1.131   0.719 -0.3363 -0.0897  0.0457
 8681TIP3    H147458   4.379   1.110   0.748  0.6968  0.9311  4.7854
 8681TIP3    H247459   4.471   1.227   0.718  0.5365 -0.0975 -1.0426
 8682TIP3   OH247460   2.585   2.754   4.576  0.2615  0.0286 -1.0467
 8682TIP3    H147461   2.584   2.694   4.651 -0.0458  0.1429 -0.9578
 8682TIP3    H247462   2.658   2.724   4.522  2.6489  1.8919  0.9146
 8683TIP3   OH247463   1.867   5.907   6.611  0.6354 -0.1366 -0.1823
 8683TIP3    H147464   1.866   5.973   6.680  1.5797  1.4155 -1.5632
 8683TIP3    H247465   1.777   5.902   6.581  0.6492  0.9706 -0.4373
 8684TIP3   OH247466   6.105   1.738  11.972  0.2347 -0.2315 -0.0968
 8684TIP3    H147467   6.140   1.793  11.902  0.2718  0.9759  0.8542
 8684TIP3    H247468   6.181   1.713  12.023  0.1470 -0.7292 -0.2017
 8685TIP3   OH247469   4.400   2.386   4.947  0.2345  0.4074 -0.1299
 8685TIP3    H147470   4.475   2.368   5.004 -0.4536  0.5180  0.8303
 8685TIP3    H247471   4.434   2.373   4.858  0.7893 -1.8623  0.3389
 8686TIP3   OH247472   1.162   2.418  15.466  0.0384 -0.0605 -0.0001
 8686TIP3    H147473   1.085   2.432  15.412 -0.8005 -1.8427  0.6767
 8686TIP3    H247474   1.227   2.480  15.432 -1.7959  1.7931 -0.2872
 8687TIP3   OH247475   3.917   1.028  15.710  0.0784 -0.0383  0.0533
 8687TIP3    H147476   3.978   0.956  15.722  0.7363  0.4830 -0.0812
 8687TIP3    H247477   3.831   0.990  15.724  0.5429 -0.0119  4.3133
 8688TIP3   OH247478   6.409   0.508   1.360 -0.5719  0.1143  0.4924
 8688TIP3    H147479   6.470   0.565   1.314 -0.5074 -0.1239  0.2753
 8688TIP3    H247480   6.439   0.419   1.339  1.1396 -0.0589  3.1867
 8689TIP3   OH247481   6.483   6.717  15.246 -0.2635  0.5737 -0.0625
 8689TIP3    H147482   6.560   6.673  15.211 -0.0921 -0.9882  2.0362
 8689TIP3    H247483   6.517   6.771  15.318 -0.9916  0.8348  0.0927
 8690TIP3   OH247484   2.199   2.002  15.385  0.4763  0.3114  0.1633
 8690TIP3    H147485   2.115   1.982  15.343 -0.3955 -1.1411  2.4115
 8690TIP3    H247486   2.255   2.030  15.313 -2.0670  1.9230 -1.3566
 8691TIP3   OH247487   0.822   6.057  13.891 -0.2319  0.4934 -0.0806
 8691TIP3    H147488   0.874   5.979  13.908 -1.0588 -0.0697 -0.0356
 8691TIP3    H247489   0.877   6.112  13.836  0.3056 -0.1942 -0.2383
 8692TIP3   OH247490   5.192   3.737  15.562 -0.3805  0.5950  0.0091
 8692TIP3    H147491   5.116   3.766  15.512 -1.2594 -0.6549  0.5682
 8692TIP3    H247492   5.155   3.691  15.638  0.9265  0.8776  0.8482
 8693TIP3   OH247493   1.687   5.792  13.467  0.3081  0.0710 -0.3537
 8693TIP3    H147494   1.740   5.765  13.543 -0.2710 -0.2176 -0.0511
 8693TIP3    H247495   1.619   5.726  13.460  2.9288 -2.6147 -3.9168
 8694TIP3   OH247496   5.664   4.743   2.633  0.7235  0.4393 -0.0915
 8694TIP3    H147497   5.756   4.736   2.661  0.5417 -0.1680  0.3993
 8694TIP3    H247498   5.667   4.726   2.539  0.8536 -2.2390  0.3198
 8695TIP3   OH247499   2.541   2.493  11.009 -0.1600 -0.5223  0.8174
 8695TIP3    H147500   2.636   2.486  11.018 -0.1925  0.9660  3.2007
 8695TIP3    H247501   2.525   2.585  10.988 -1.0703 -0.8652 -0.0671
 8696TIP3   OH247502   4.583   6.388  16.620  0.0953  0.0281 -0.4122
 8696TIP3    H147503   4.667   6.386  16.575  0.8733 -0.6817  0.9983
 8696TIP3    H247504   4.523   6.429  16.558  1.2990 -0.1568 -1.7404
 8697TIP3   OH247505   0.034   6.643  16.953 -0.0758  0.2903  0.0748
 8697TIP3    H147506   0.078   6.562  16.978 -0.5771  0.1195  0.4363
 8697TIP3    H247507  -0.059   6.619  16.949 -0.0757  0.4472 -1.4374
 8698TIP3   OH247508   3.498   1.829   2.104  0.0731  0.3402 -0.2083
 8698TIP3    H147509   3.435   1.871   2.163  0.2603  0.3522 -0.0151
 8698TIP3    H247510   3.464   1.740   2.092  0.1758  0.2554  0.1287
 8699TIP3   OH247511   1.671   2.696  15.168  0.1681 -0.1029  0.2415
 8699TIP3    H147512   1.659   2.734  15.081 -1.0713  1.5931  1.0854
 8699TIP3    H247513   1.717   2.614  15.152  3.1755  1.7820 -1.6987
 8700TIP3   OH247514   4.262   2.541  12.071 -0.0941 -0.2446  0.4234
 8700TIP3    H147515   4.233   2.540  12.162  0.3357  0.6884  0.5729
 8700TIP3    H247516   4.183   2.519  12.021 -0.2410 -1.1504  1.0298
 8701TIP3   OH247517   3.560   1.660   5.242 -0.0783 -0.6082 -0.3629
 8701TIP3    H147518   3.643   1.613   5.242  0.3489  0.1238 -0.2265
 8701TIP3    H247519   3.519   1.635   5.159  0.0591 -1.3478 -0.2116
 8702TIP3   OH247520   0.202   5.484  15.101  0.6482 -0.2765 -0.3052
 8702TIP3    H147521   0.119   5.507  15.059 -0.2844 -0.7871  1.1613
 8702TIP3    H247522   0.264   5.551  15.072 -0.8118  1.3701  0.2014
 8703TIP3   OH247523   3.966   3.785   5.586 -0.4291 -0.3478 -0.2904
 8703TIP3    H147524   3.901   3.822   5.645  0.0579  0.9454 -0.5358
 8703TIP3    H247525   3.915   3.746   5.515 -0.9513  0.5869 -0.4425
 8704TIP3   OH247526   2.597   6.685  12.438 -0.1263 -0.3324 -0.2565
 8704TIP3    H147527   2.531   6.751  12.460 -0.3575  0.1303 -2.1224
 8704TIP3    H247528   2.660   6.732  12.382  1.2700 -1.0084  0.6945
 8705TIP3   OH247529   5.369   6.096   1.336 -0.1642  0.1782 -0.3361
 8705TIP3    H147530   5.449   6.142   1.311 -0.1821  0.4909  0.1495
 8705TIP3    H247531   5.362   6.023   1.275  1.2459 -0.6888  0.4855
 8706TIP3   OH247532   5.715   3.929   2.563 -1.0946  0.1363  0.8863
 8706TIP3    H147533   5.761   3.995   2.615 -1.3359 -0.9574  2.5468
 8706TIP3    H247534   5.663   3.880   2.626 -0.6003 -1.9340 -0.2273
 8707TIP3   OH247535   5.392   3.384   1.684 -0.9620  0.1487 -0.2452
 8707TIP3    H147536   5.397   3.476   1.709 -0.0288  0.2233 -0.6713
 8707TIP3    H247537   5.305   3.357   1.712 -1.1495  1.0860  0.1303
 8708TIP3   OH247538   5.053   5.453  17.122  0.1610 -0.2317 -0.0100
 8708TIP3    H147539   5.072   5.385  17.187 -0.4303  0.0749  0.4919
 8708TIP3    H247540   5.010   5.522  17.172 -1.8866 -0.7173 -1.0329
 8709TIP3   OH247541   4.010   2.089   6.344  1.0532 -0.1033  0.0606
 8709TIP3    H147542   3.940   2.043   6.390  0.6392  0.9135  0.4682
 8709TIP3    H247543   4.013   2.048   6.258  0.5578 -0.7490  0.3427
 8710TIP3   OH247544   5.146   3.673   1.616  0.3322 -0.2346  0.3123
 8710TIP3    H147545   5.111   3.584   1.629  2.5158 -1.3742 -0.9297
 8710TIP3    H247546   5.235   3.669   1.651  0.1949  1.7461  0.9737
 8711TIP3   OH247547   1.367   1.640  11.058 -0.6177  0.3156  0.6880
 8711TIP3    H147548   1.433   1.707  11.076 -1.6211  0.9338  2.2994
 8711TIP3    H247549   1.417   1.562  11.034  0.6997  0.7904  1.7789
 8712TIP3   OH247550   5.581   4.201  16.567  0.1412 -0.0350  0.8755
 8712TIP3    H147551   5.583   4.276  16.508 -1.4177  0.5680  1.5143
 8712TIP3    H247552   5.666   4.201  16.611  0.9141  0.1298 -0.5716
 8713TIP3   OH247553   0.922   5.353  14.680  0.0937  0.3338 -0.3644
 8713TIP3    H147554   0.852   5.317  14.625 -0.0044 -0.4823  0.2834
 8713TIP3    H247555   0.938   5.440  14.643 -1.5719  0.7224 -0.2588
 8714TIP3   OH247556   5.261   5.630  11.937  0.2698  0.0531 -0.1771
 8714TIP3    H147557   5.325   5.570  11.977 -0.0412  0.2000  0.5584
 8714TIP3    H247558   5.264   5.708  11.992  0.8890  0.8529 -1.3034
 8715TIP3   OH247559   4.995   5.330   3.385 -0.2799  0.0296 -0.8640
 8715TIP3    H147560   5.041   5.315   3.303  0.0359 -3.0504 -0.2533
 8715TIP3    H247561   4.904   5.307   3.366 -0.5738  1.1099 -0.7949
 8716TIP3   OH247562   2.984   3.412  12.190 -0.2066 -0.4069 -0.2463
 8716TIP3    H147563   3.010   3.361  12.266  2.8547  2.0774  0.5824
 8716TIP3    H247564   3.005   3.356  12.115  0.8453 -1.2406  0.6388
 8717TIP3   OH247565   5.930   3.730  10.645  0.4657 -0.3857  0.4746
 8717TIP3    H147566   5.923   3.655  10.705  1.4909 -1.0746 -0.2433
 8717TIP3    H247567   5.840   3.748  10.619  0.1352 -0.9168  1.2098
 8718TIP3   OH247568   1.878   1.462   5.089  0.6032 -0.1292 -0.0308
 8718TIP3    H147569   1.798   1.508   5.115  1.5334  0.8690  1.1782
 8718TIP3    H247570   1.896   1.494   5.001 -0.0392  0.0561 -0.1007
 8719TIP3   OH247571   1.289   0.886   4.461  0.0099  0.3306 -0.5405
 8719TIP3    H147572   1.266   0.794   4.448 -0.2700  0.2657  0.3067
 8719TIP3    H247573   1.364   0.902   4.404  0.4872 -0.6113 -0.1856
 8720TIP3   OH247574   5.447   3.509   2.513 -0.0459 -0.3530  0.0189
 8720TIP3    H147575   5.485   3.461   2.439 -0.4592 -1.1622  0.3187
 8720TIP3    H247576   5.354   3.514   2.493 -0.4023 -1.8151  1.1195
 8721TIP3   OH247577   1.862   4.381  16.630  0.1484 -0.2752 -0.0904
 8721TIP3    H147578   1.865   4.391  16.726  0.2390 -1.1397  0.0073
 8721TIP3    H247579   1.781   4.334  16.613  0.9885 -1.7474 -0.2563
 8722TIP3   OH247580   6.142   3.972  15.441  0.4716  0.0676 -0.3520
 8722TIP3    H147581   6.131   4.052  15.390  1.2555 -1.8367 -3.8428
 8722TIP3    H247582   6.226   3.937  15.414  0.7040 -1.4067  1.9675
 8723TIP3   OH247583   2.856   4.794   0.276  0.5509 -0.2691 -0.6226
 8723TIP3    H147584   2.888   4.704   0.270  2.9037  0.5138 -0.6065
 8723TIP3    H247585   2.842   4.821   0.186  1.5511 -0.0871 -0.7282
 8724TIP3   OH247586   0.688   4.901   4.377  0.5923 -0.5031  0.6174
 8724TIP3    H147587   0.736   4.978   4.408  0.4237 -0.2083  0.1551
 8724TIP3    H247588   0.606   4.937   4.341 -0.9789 -1.1685  3.3140
 8725TIP3   OH247589   2.667   0.207  16.537 -0.1485  0.3813  0.5987
 8725TIP3    H147590   2.582   0.248  16.521  0.1028  0.7901  0.2836
 8725TIP3    H247591   2.691   0.238  16.625 -0.2698  0.3659  0.6390
 8726TIP3   OH247592   3.625   0.777  14.746 -0.2211  0.5368  0.4140
 8726TIP3    H147593   3.642   0.867  14.719  1.0508  0.3788  0.6269
 8726TIP3    H247594   3.703   0.728  14.719  0.2479 -0.0111  2.5188
 8727TIP3   OH247595   4.323   4.289   0.983 -0.2132 -0.0497 -0.0613
 8727TIP3    H147596   4.396   4.346   0.960  1.0045 -0.7294  1.8406
 8727TIP3    H247597   4.296   4.319   1.070 -0.4574 -1.4875  0.3844
 8728TIP3   OH247598   5.750   3.832  16.579  0.2494  0.8719  0.5773
 8728TIP3    H147599   5.783   3.921  16.594  1.7741  0.8618 -2.1272
 8728TIP3    H247600   5.827   3.783  16.551 -0.7145 -1.1593  1.3407
 8729TIP3   OH247601   0.764   4.308  15.315  0.1076  0.1621  0.8318
 8729TIP3    H147602   0.711   4.292  15.393 -2.6840 -0.7590 -1.1069
 8729TIP3    H247603   0.751   4.231  15.260  2.1619  0.6694 -0.5189
 8730TIP3   OH247604   5.942   6.377   5.057  0.5629 -0.3254 -0.0089
 8730TIP3    H147605   5.888   6.452   5.080 -1.6067 -1.9092  0.3150
 8730TIP3    H247606   5.959   6.388   4.963 -1.0050 -0.1643 -0.3004
 8731TIP3   OH247607   5.038   6.662   3.001 -0.3000  0.2916 -0.1715
 8731TIP3    H147608   5.122   6.651   3.045 -0.6544  2.3480  1.1842
 8731TIP3    H247609   4.976   6.680   3.073 -1.5183  0.6659 -1.2825
 8732TIP3   OH247610   5.777   0.472  12.383  0.4816  0.3257  0.4235
 8732TIP3    H147611   5.719   0.502  12.312  0.5352  2.2720  1.1399
 8732TIP3    H247612   5.862   0.458  12.340 -0.2483 -1.7973 -0.4807
 8733TIP3   OH247613   5.736   1.549   4.190  0.0595 -0.1210  0.2016
 8733TIP3    H147614   5.701   1.599   4.264 -0.5393 -0.3394  0.0653
 8733TIP3    H247615   5.716   1.602   4.113 -1.4166 -0.9892 -0.0457
 8734TIP3   OH247616   4.426   5.174   2.534  0.0828  0.2747 -0.0507
 8734TIP3    H147617   4.502   5.193   2.588 -1.4255 -0.4472  2.5044
 8734TIP3    H247618   4.363   5.244   2.554 -0.5226 -0.0055 -0.8897
 8735TIP3   OH247619   5.262   2.819  12.134 -0.7689  0.5450 -0.7886
 8735TIP3    H147620   5.242   2.903  12.175 -0.1117  0.1770  0.3455
 8735TIP3    H247621   5.183   2.767  12.147 -0.4190  0.2895  0.4393
 8736TIP3   OH247622   4.168   5.576  14.491 -0.3449  0.5552  0.2974
 8736TIP3    H147623   4.208   5.538  14.570 -0.4422 -0.6859 -0.2220
 8736TIP3    H247624   4.150   5.667  14.515 -0.7494  0.1054  1.8543
 8737TIP3   OH247625   2.366   5.518   3.881  0.1715  0.2833  0.1005
 8737TIP3    H147626   2.284   5.521   3.831  0.5984 -0.0263 -0.6234
 8737TIP3    H247627   2.414   5.444   3.844  0.8892  0.6108  0.3640
 8738TIP3   OH247628   1.752   1.308   0.190 -0.1530  0.4939 -0.2839
 8738TIP3    H147629   1.756   1.391   0.143 -0.4237 -0.3506 -1.8694
 8738TIP3    H247630   1.831   1.306   0.243  0.1346  1.5050 -0.6558
 8739TIP3   OH247631   0.455   0.719  12.933 -0.1824 -0.3138  0.2841
 8739TIP3    H147632   0.378   0.750  12.981 -0.3281 -0.5600  0.2083
 8739TIP3    H247633   0.440   0.626  12.919 -0.0710 -0.2782 -0.1059
 8740TIP3   OH247634   0.891   3.805  13.680  0.5839 -0.2584  0.1937
 8740TIP3    H147635   0.801   3.795  13.711  0.1150  0.5864 -0.8326
 8740TIP3    H247636   0.936   3.726  13.710 -1.0713 -1.8306 -1.2270
 8741TIP3   OH247637   2.545   1.972   2.542 -0.8309  0.4131 -0.7354
 8741TIP3    H147638   2.515   1.990   2.631  0.7976 -3.3324  0.7574
 8741TIP3    H247639   2.472   1.924   2.502 -0.4260 -0.5657 -0.3242
 8742TIP3   OH247640   2.686   3.688  12.439  0.1268 -0.3690  0.3970
 8742TIP3    H147641   2.722   3.661  12.355  0.0662 -0.2389  0.3291
 8742TIP3    H247642   2.597   3.652  12.439 -0.5418  1.1921 -0.3878
 8743TIP3   OH247643   4.132   0.819  16.489 -0.5278  0.2197 -0.3165
 8743TIP3    H147644   4.194   0.859  16.549 -0.5428  1.5859 -1.1597
 8743TIP3    H247645   4.049   0.862  16.508 -0.8844 -0.4821 -0.2427
 8744TIP3   OH247646   3.876   3.886   3.996  0.8903  0.1589 -0.1870
 8744TIP3    H147647   3.867   3.790   3.993 -1.5344  0.3518 -1.4191
 8744TIP3    H247648   3.959   3.903   3.951  1.3371 -1.3441  0.0119
 8745TIP3   OH247649   3.720   3.532   6.440 -0.2435 -0.4147  0.0680
 8745TIP3    H147650   3.728   3.442   6.471  1.9149  0.1977  1.5587
 8745TIP3    H247651   3.804   3.551   6.398 -0.7926  0.7838 -0.5555
 8746TIP3   OH247652   4.364   0.794  13.936 -0.9015  0.3605 -0.7139
 8746TIP3    H147653   4.317   0.809  14.018 -2.6958  0.1291 -1.6469
 8746TIP3    H247654   4.328   0.858  13.875 -0.8388 -0.5896 -1.7834
 8747TIP3   OH247655   3.089   0.478   6.553 -0.3813  0.2593 -0.1982
 8747TIP3    H147656   3.173   0.523   6.554 -0.4130  0.3284 -0.5138
 8747TIP3    H247657   3.057   0.485   6.643 -0.5045  1.1011 -0.2965
 8748TIP3   OH247658   0.018   4.604   3.409 -0.5264  0.6466  0.1382
 8748TIP3    H147659  -0.061   4.622   3.460 -0.9616  0.3704 -0.4275
 8748TIP3    H247660   0.003   4.518   3.370  0.0768  0.5703  0.0612
 8749TIP3   OH247661   3.916   5.924  11.239  0.5359 -0.3140 -0.6034
 8749TIP3    H147662   3.992   5.961  11.195  0.5155  0.2953 -0.1330
 8749TIP3    H247663   3.842   5.977  11.208  0.5509  0.2725  0.3311
 8750TIP3   OH247664   0.386   3.316   0.677  0.2553  0.3281 -0.8602
 8750TIP3    H147665   0.306   3.329   0.627 -0.2943 -0.1759 -0.1302
 8750TIP3    H247666   0.356   3.291   0.764  1.1843 -2.0693 -1.1396
 8751TIP3   OH247667   4.243   5.029   0.486  0.1723 -0.4545 -0.2961
 8751TIP3    H147668   4.169   5.042   0.427 -0.7089 -0.8070  0.6955
 8751TIP3    H247669   4.216   5.068   0.569  1.2424 -0.2790 -0.0062
 8752TIP3   OH247670   2.926   1.099   5.728 -0.1352 -0.2844  0.6068
 8752TIP3    H147671   2.963   1.012   5.712  1.0624  0.3755 -0.4089
 8752TIP3    H247672   2.837   1.094   5.695  0.2432 -0.8630 -0.3722
 8753TIP3   OH247673   5.983   3.719  16.503 -0.3354 -0.4578 -0.2567
 8753TIP3    H147674   6.024   3.756  16.425  0.7231  0.8263  0.8547
 8753TIP3    H247675   5.979   3.625  16.486  1.6132 -0.4408 -1.0958
 8754TIP3   OH247676   0.833   1.785  11.851 -0.1163 -1.1074  0.1200
 8754TIP3    H147677   0.920   1.802  11.815  0.0890  0.5531  1.3013
 8754TIP3    H247678   0.773   1.806  11.780  0.3655 -0.1298 -0.0133
 8755TIP3   OH247679   1.411   4.164   2.779  0.0581 -0.1460 -0.2073
 8755TIP3    H147680   1.316   4.174   2.784 -0.1290 -2.0952  1.0829
 8755TIP3    H247681   1.433   4.106   2.852  2.1983 -0.0683 -0.7251
 8756TIP3   OH247682   3.786   1.742   5.513  0.1238 -0.3846 -0.0390
 8756TIP3    H147683   3.720   1.769   5.576 -0.8995 -2.0676 -0.3310
 8756TIP3    H247684   3.843   1.682   5.563  1.4269  0.9795  0.1890
 8757TIP3   OH247685   3.303   5.036  15.645  0.1631  0.7391 -0.4454
 8757TIP3    H147686   3.208   5.025  15.638  0.2770 -0.4175 -0.5082
 8757TIP3    H247687   3.324   5.108  15.586 -0.5062 -0.0705 -1.7185
 8758TIP3   OH247688   3.368   2.397  16.550 -0.2314  0.3196 -0.4055
 8758TIP3    H147689   3.296   2.434  16.601  0.8005  2.5249 -0.4212
 8758TIP3    H247690   3.359   2.436  16.463  0.6567  0.2189 -0.5570
 8759TIP3   OH247691   2.997   0.886  15.564  0.3044 -0.2595  0.1971
 8759TIP3    H147692   2.978   0.879  15.470 -0.1162 -0.3540  0.2894
 8759TIP3    H247693   3.061   0.957  15.570  0.6213 -0.5070 -0.1996
 8760TIP3   OH247694   1.538   0.383   0.898 -0.6377 -0.2076 -0.2756
 8760TIP3    H147695   1.625   0.406   0.933 -0.1788 -0.7527 -1.0193
 8760TIP3    H247696   1.482   0.456   0.924  0.0992  0.2660  0.0243
 8761TIP3   OH247697   5.081   2.690  11.300  0.1227  0.5607 -0.5675
 8761TIP3    H147698   5.093   2.761  11.236 -0.3303  0.4822 -0.7432
 8761TIP3    H247699   5.052   2.616  11.248  1.0181  0.1092 -0.4422
 8762TIP3   OH247700   1.884   4.289   3.809  0.5299  0.1876  0.2330
 8762TIP3    H147701   1.920   4.242   3.884  1.2171  2.4322  1.4033
 8762TIP3    H247702   1.960   4.310   3.755  0.2959  0.3828 -0.0226
 8763TIP3   OH247703   0.957   6.638  13.279 -0.0947 -0.4036  0.3800
 8763TIP3    H147704   0.900   6.572  13.318 -1.7707  0.3842 -0.6019
 8763TIP3    H247705   0.916   6.722  13.301  1.2577  0.2553  0.4977
 8764TIP3   OH247706   6.341   1.859  14.953  0.1904  0.4434  0.5650
 8764TIP3    H147707   6.406   1.844  14.883 -1.2087 -2.8704 -0.1761
 8764TIP3    H247708   6.393   1.867  15.032  1.6224 -1.6757 -0.0719
 8765TIP3   OH247709   0.349   4.940   3.296 -0.0077  1.1882  0.3570
 8765TIP3    H147710   0.372   4.987   3.215 -1.2661  0.9969 -0.1325
 8765TIP3    H247711   0.433   4.928   3.340  1.0808 -0.6951 -1.9821
 8766TIP3   OH247712   2.099   5.880   5.022 -0.1841 -0.4455 -0.0791
 8766TIP3    H147713   2.004   5.891   5.024 -0.1408 -0.0997  0.1289
 8766TIP3    H247714   2.114   5.794   5.063 -0.3231  0.0979  1.1735
 8767TIP3   OH247715   1.757   2.035  15.948 -0.4911  0.6802 -0.6683
 8767TIP3    H147716   1.695   2.106  15.964 -0.4234  0.3561  1.3730
 8767TIP3    H247717   1.843   2.074  15.967 -0.4327  0.1456  0.2136
 8768TIP3   OH247718   4.744   5.727  11.516 -0.0830  0.0583  0.0775
 8768TIP3    H147719   4.677   5.794  11.530  0.2009  0.4103 -0.2154
 8768TIP3    H247720   4.803   5.735  11.591 -1.0637 -1.1303  1.0383
 8769TIP3   OH247721   2.758   4.951  15.783  0.0302 -0.3323 -0.0721
 8769TIP3    H147722   2.686   4.951  15.719  0.2618  1.8099 -0.4029
 8769TIP3    H247723   2.772   4.858  15.803 -0.6248 -1.0290 -2.4697
 8770TIP3   OH247724   5.377   2.314  16.466  0.1825 -0.2455 -0.1068
 8770TIP3    H147725   5.325   2.235  16.478  0.4529 -0.5401 -0.8675
 8770TIP3    H247726   5.453   2.286  16.415  0.6823  0.3447  0.2967
 8771TIP3   OH247727   2.643   3.935  11.692  0.3968  0.3179  0.2079
 8771TIP3    H147728   2.639   3.933  11.787  0.5092  4.4956  0.4837
 8771TIP3    H247729   2.730   3.970  11.672  0.3689 -0.4548 -1.4746
 8772TIP3   OH247730   6.480   3.028  16.802 -0.0493  0.7189  0.0947
 8772TIP3    H147731   6.570   3.008  16.826  0.1244  0.7050 -0.5715
 8772TIP3    H247732   6.452   3.094  16.866 -0.3503 -0.9862  1.7984
 8773TIP3   OH247733   1.432   5.251   3.681  0.5133  0.6275  0.3562
 8773TIP3    H147734   1.355   5.211   3.642  0.9461 -0.0548  0.1848
 8773TIP3    H247735   1.450   5.327   3.626 -0.3525  1.1037  0.7212
 8774TIP3   OH247736   0.263   1.593  17.143 -0.0523  0.4570  0.0242
 8774TIP3    H147737   0.326   1.521  17.152  1.1545  0.9491 -3.0537
 8774TIP3    H247738   0.240   1.593  17.050 -1.6846  2.6951  0.3435
 8775TIP3   OH247739   5.772   2.883   6.659 -0.9523 -0.0185 -0.2583
 8775TIP3    H147740   5.698   2.938   6.633 -1.1118  0.0389  0.3051
 8775TIP3    H247741   5.824   2.874   6.580 -2.3408 -1.3232 -1.0830
 8776TIP3   OH247742   3.190   0.090  15.502  0.4293 -0.2914  0.1403
 8776TIP3    H147743   3.207   0.102  15.596 -0.4653  0.4659  0.2156
 8776TIP3    H247744   3.123   0.155  15.481  0.7563 -0.3195 -1.0714
 8777TIP3   OH247745   0.169   5.692   1.390  0.6925 -0.6264 -0.0770
 8777TIP3    H147746   0.115   5.768   1.371  1.1077 -0.5062 -0.8125
 8777TIP3    H247747   0.139   5.625   1.328 -0.2733 -1.3731  1.1390
 8778TIP3   OH247748   6.636   1.809  12.839 -0.1444 -0.1578 -0.0048
 8778TIP3    H147749   6.610   1.887  12.889 -0.4326 -0.7741  0.8433
 8778TIP3    H247750   6.724   1.829  12.806 -0.5868  0.8841 -0.5929
 8779TIP3   OH247751   1.418   6.462  11.974  0.0311 -0.1445  0.3838
 8779TIP3    H147752   1.338   6.445  12.023 -0.0292  0.0944  0.3703
 8779TIP3    H247753   1.422   6.392  11.909  0.3081 -0.6760  0.9676
 8780TIP3   OH247754   3.132   4.732  15.844 -0.3547  0.0044 -0.0621
 8780TIP3    H147755   3.172   4.675  15.779 -0.1915 -0.0317  0.0716
 8780TIP3    H247756   3.050   4.689  15.867 -2.1844  1.6875 -2.8187
 8781TIP3   OH247757   3.039   1.126  12.630  0.2256 -0.4282 -0.3634
 8781TIP3    H147758   3.066   1.189  12.564  0.5750  1.4069  1.4391
 8781TIP3    H247759   3.109   1.126  12.695 -0.4964 -1.4907  0.4716
 8782TIP3   OH247760   4.434   4.946   1.440  0.4382 -0.5089  0.0284
 8782TIP3    H147761   4.385   5.027   1.428  2.3488  0.9793  1.5260
 8782TIP3    H247762   4.415   4.920   1.530  0.6933 -1.1253 -0.0900
 8783TIP3   OH247763   0.893   0.554   5.500 -0.3555  0.1458 -0.1596
 8783TIP3    H147764   0.980   0.514   5.508 -0.5652  0.1116  3.6092
 8783TIP3    H247765   0.898   0.632   5.556 -2.8166  0.0075  0.3395
 8784TIP3   OH247766   2.837   5.880  10.910  0.2147  0.3727 -0.4362
 8784TIP3    H147767   2.921   5.846  10.878 -0.3179 -0.8599 -0.5856
 8784TIP3    H247768   2.773   5.814  10.884 -0.7073  0.9585  0.2795
 8785TIP3   OH247769   4.774   4.486  16.080 -0.4749 -0.2959  0.3970
 8785TIP3    H147770   4.764   4.553  16.147  1.3674 -0.3664  0.8089
 8785TIP3    H247771   4.706   4.421  16.100 -2.3258  1.4065 -0.0451
 8786TIP3   OH247772   0.422   3.428  12.261  0.3955  0.3780 -0.4270
 8786TIP3    H147773   0.337   3.450  12.223  0.1137  0.3429  0.1835
 8786TIP3    H247774   0.412   3.444  12.354  0.5558 -1.1624 -0.1232
 8787TIP3   OH247775   0.910   6.168   4.387  0.3120 -0.0516 -0.6639
 8787TIP3    H147776   0.849   6.095   4.396 -1.4581  1.4422  0.0589
 8787TIP3    H247777   0.940   6.162   4.296  1.0411 -2.2520 -0.3435
 8788TIP3   OH247778   4.699   3.339  11.616 -0.1024 -0.5891 -0.0780
 8788TIP3    H147779   4.697   3.330  11.711  1.3875  0.9210  0.1449
 8788TIP3    H247780   4.747   3.261  11.587 -1.6119 -1.6908  0.2505
 8789TIP3   OH247781   0.849   6.237   1.851 -0.5147 -0.2108 -0.3092
 8789TIP3    H147782   0.852   6.303   1.921 -1.3068  1.0167 -1.3684
 8789TIP3    H247783   0.940   6.224   1.826 -0.1062 -1.4505  1.6002
 8790TIP3   OH247784   1.111   0.550   3.763  0.0638 -0.1293  0.4133
 8790TIP3    H147785   1.206   0.555   3.748  0.4433 -1.0354  2.1958
 8790TIP3    H247786   1.086   0.639   3.786  0.5228  0.0839  0.1128
 8791TIP3   OH247787   5.311   1.147   3.955 -0.7124  0.4829 -0.0557
 8791TIP3    H147788   5.330   1.054   3.968  1.0229  0.7966 -0.0108
 8791TIP3    H247789   5.262   1.150   3.873 -2.3645 -0.5971  0.8518
 8792TIP3   OH247790   1.164   2.003   3.000 -0.4324 -0.2423 -0.4775
 8792TIP3    H147791   1.219   1.936   2.958 -1.3673 -0.6647 -1.0664
 8792TIP3    H247792   1.177   2.081   2.947 -0.5516 -0.3979 -0.7391
 8793TIP3   OH247793   2.262   5.842   5.591 -0.1356  0.1129  0.2168
 8793TIP3    H147794   2.328   5.849   5.661  1.1573 -1.3647 -0.7719
 8793TIP3    H247795   2.263   5.928   5.549  1.7489 -0.0662 -0.2250
 8794TIP3   OH247796   0.486   0.008  11.710  0.0437 -0.4638 -0.4991
 8794TIP3    H147797   0.411  -0.027  11.759 -0.1363  0.7101  0.1128
 8794TIP3    H247798   0.507   0.090  11.755  2.5918 -1.4246  0.2323
 8795TIP3   OH247799   0.092   5.051   3.424 -0.8741  0.0829  0.0295
 8795TIP3    H147800   0.036   5.083   3.354 -0.7901  1.1145  0.4021
 8795TIP3    H247801   0.177   5.037   3.383 -1.0870 -0.2851 -0.2817
 8796TIP3   OH247802   6.745   5.738   5.697  0.2906 -0.0996 -0.4786
 8796TIP3    H147803   6.667   5.689   5.724  0.2781  0.9166  1.5373
 8796TIP3    H247804   6.818   5.679   5.718  0.2560  0.5103  1.6406
 8797TIP3   OH247805   0.176   1.845   6.669 -0.3067  0.7884  0.5146
 8797TIP3    H147806   0.241   1.910   6.643 -0.4160  0.5037 -0.5520
 8797TIP3    H247807   0.225   1.763   6.673 -0.3795  0.7592  0.7768
 8798TIP3   OH247808   5.817   2.905  11.076  0.6797 -0.0546 -0.1755
 8798TIP3    H147809   5.729   2.934  11.054 -0.3330 -1.2823  1.9609
 8798TIP3    H247810   5.857   2.980  11.120  0.3059  0.1354 -0.1558
 8799TIP3   OH247811   3.065   6.430  14.835  0.2383 -0.0306 -0.5044
 8799TIP3    H147812   2.981   6.460  14.871  0.3591  1.4568 -1.3929
 8799TIP3    H247813   3.098   6.505  14.786  1.9745 -0.6856 -0.3970
 8800TIP3   OH247814   5.074   1.423  10.580  0.5792 -0.2380 -0.5296
 8800TIP3    H147815   5.098   1.338  10.617 -0.5393 -0.0380  0.7170
 8800TIP3    H247816   5.023   1.466  10.648  1.9951  1.8896 -0.7257
 8801TIP3   OH247817   5.072   0.223   0.958 -0.6547 -0.7303  0.3647
 8801TIP3    H147818   4.991   0.180   0.984  0.1745 -2.0494  0.8402
 8801TIP3    H247819   5.136   0.197   1.024  0.2907 -0.1379 -0.2874
 8802TIP3   OH247820   3.795   5.696   6.115 -0.0205 -0.1780  1.0120
 8802TIP3    H147821   3.766   5.736   6.197  1.3120 -0.5864  1.7163
 8802TIP3    H247822   3.853   5.624   6.142  0.5592 -0.2323 -0.2803
 8803TIP3   OH247823   6.216   2.687   2.951  0.6874  0.2950  0.3194
 8803TIP3    H147824   6.297   2.643   2.927 -0.3418 -1.2132 -0.5885
 8803TIP3    H247825   6.227   2.709   3.043  2.7848  1.7341 -0.1884
 8804TIP3   OH247826   0.181   0.776  12.130 -0.0580  0.4292 -0.8968
 8804TIP3    H147827   0.115   0.759  12.063  1.6542  0.0916 -2.5729
 8804TIP3    H247828   0.141   0.843  12.186 -2.1196 -0.3454 -1.3544
 8805TIP3   OH247829   2.334   5.707  14.934 -0.3175  0.8936  0.3202
 8805TIP3    H147830   2.310   5.768  14.864 -2.0512 -0.2990 -0.2084
 8805TIP3    H247831   2.286   5.627  14.912  1.7078 -0.6024  1.1043
 8806TIP3   OH247832   1.830   2.963   2.988  0.1951  0.1390  0.1745
 8806TIP3    H147833   1.845   2.912   2.909  0.4422 -0.5604  0.6617
 8806TIP3    H247834   1.883   3.042   2.976 -0.0274  0.1944 -0.4947
 8807TIP3   OH247835   6.542   4.973   4.312  0.5271 -0.5917 -0.6464
 8807TIP3    H147836   6.477   4.906   4.289  0.1592  0.2930 -2.4443
 8807TIP3    H247837   6.536   5.037   4.240  1.1999  1.1161  0.7389
 8808TIP3   OH247838   4.387   5.341  10.638  0.2249 -0.3498 -0.2616
 8808TIP3    H147839   4.344   5.427  10.643 -0.4548 -0.6161 -1.2213
 8808TIP3    H247840   4.431   5.342  10.553  3.1382  0.3479  1.1565
 8809TIP3   OH247841   0.997   2.392  11.991  0.0187  0.0129  0.0040
 8809TIP3    H147842   1.019   2.375  11.900 -0.6807  0.4554 -0.2560
 8809TIP3    H247843   0.944   2.472  11.989 -0.5590 -0.3358  0.7204
 8810TIP3   OH247844   6.226   4.008   5.093 -0.3844  0.4394  0.3173
 8810TIP3    H147845   6.247   4.068   5.022 -0.5197  0.9852  0.7299
 8810TIP3    H247846   6.210   4.064   5.169 -1.0830 -0.0838  0.5752
 8811TIP3   OH247847   4.512   6.547   3.737 -0.0207  0.1321 -0.1839
 8811TIP3    H147848   4.597   6.504   3.729 -0.0192  0.3090 -1.2901
 8811TIP3    H247849   4.448   6.475   3.730  0.0289 -0.0331  0.9075
 8812TIP3   OH247850   0.891   0.922  16.980 -0.0503  0.4095 -0.7852
 8812TIP3    H147851   0.908   0.999  17.034 -1.7435  0.4848 -0.3272
 8812TIP3    H247852   0.961   0.861  17.004 -0.1145  0.8657  0.6880
 8813TIP3   OH247853   1.622   6.238   5.031  0.2868  0.2437  0.1919
 8813TIP3    H147854   1.577   6.160   4.998  0.1393  0.2868  0.2958
 8813TIP3    H247855   1.607   6.304   4.963 -0.8036  0.6132  0.7722
 8814TIP3   OH247856   4.099   4.773  14.471  0.3034 -0.4963 -0.3681
 8814TIP3    H147857   4.195   4.772  14.467  0.3293  0.5796 -0.3190
 8814TIP3    H247858   4.073   4.690  14.429  1.2277 -0.3707 -1.2516
 8815TIP3   OH247859   2.982   2.265  14.506  0.1055 -0.0673 -0.2077
 8815TIP3    H147860   2.944   2.318  14.437  1.6241  1.3814  0.0124
 8815TIP3    H247861   2.982   2.321  14.583  1.0000 -0.6622  0.2469
 8816TIP3   OH247862   0.778   5.513   4.173  1.1881  0.3520  0.3348
 8816TIP3    H147863   0.871   5.501   4.192  0.9369  0.1246  1.5049
 8816TIP3    H247864   0.740   5.426   4.187  0.8337  0.3793 -0.4094
 8817TIP3   OH247865   5.305   0.403  15.544  0.0250 -0.0240  0.4834
 8817TIP3    H147866   5.347   0.438  15.623 -0.0670  0.0715  0.4904
 8817TIP3    H247867   5.237   0.344  15.577  0.3857 -0.4514  0.4686
 8818TIP3   OH247868   3.763   5.350  16.237  0.0172  0.2653  0.0413
 8818TIP3    H147869   3.855   5.371  16.218 -0.2324  0.9313 -0.4912
 8818TIP3    H247870   3.743   5.399  16.316 -0.0702  0.6915 -0.2374
 8819TIP3   OH247871   4.259   4.721   5.310 -0.0714  0.0782  0.5042
 8819TIP3    H147872   4.323   4.769   5.362 -0.7873  2.1474 -0.4443
 8819TIP3    H247873   4.288   4.733   5.220 -2.8937  3.0518 -0.2036
 8820TIP3   OH247874   4.730   4.577   2.897 -0.3076 -0.0178  0.4663
 8820TIP3    H147875   4.800   4.575   2.832 -0.4438  0.1338  0.3148
 8820TIP3    H247876   4.751   4.506   2.957 -1.5065 -1.8438 -1.1174
 8821TIP3   OH247877   3.971   0.808   0.132 -0.2591 -0.2181  0.6391
 8821TIP3    H147878   3.888   0.799   0.086 -0.1209 -0.3205  0.4076
 8821TIP3    H247879   3.976   0.900   0.157 -0.2633 -0.1278  0.3099
 8822TIP3   OH247880   4.182   0.648   5.143  0.0161 -0.2912  0.1876
 8822TIP3    H147881   4.205   0.669   5.053 -0.0049 -1.3138 -0.0747
 8822TIP3    H247882   4.201   0.728   5.192  0.1055  0.2521 -0.7030
 8823TIP3   OH247883   6.158   3.947  12.127 -0.3290 -0.1455 -0.3727
 8823TIP3    H147884   6.167   3.864  12.173  1.0213 -0.2719 -0.8132
 8823TIP3    H247885   6.102   3.927  12.052  0.4755 -0.8254 -0.8140
 8824TIP3   OH247886   3.889   3.060   2.610  0.2951 -0.1124 -1.2211
 8824TIP3    H147887   3.804   3.099   2.590 -0.7089 -0.5941  1.7274
 8824TIP3    H247888   3.897   2.987   2.549 -2.2364 -1.1218 -0.4448
 8825TIP3   OH247889   2.707   3.996  15.536 -0.8061 -0.1670  0.8454
 8825TIP3    H147890   2.728   4.040  15.618 -0.8095  1.2419  0.1223
 8825TIP3    H247891   2.772   3.926  15.529  0.0977  0.5992  1.3534
 8826TIP3   OH247892   6.698   3.690   1.335 -0.5487  0.2265  0.0006
 8826TIP3    H147893   6.635   3.748   1.376  0.3442  0.7581  0.6645
 8826TIP3    H247894   6.745   3.650   1.409  0.4517  0.4790 -0.4854
 8827TIP3   OH247895   4.561   3.299  15.938  0.5040 -0.2618 -0.1551
 8827TIP3    H147896   4.502   3.369  15.968  1.1147  0.8040 -1.3482
 8827TIP3    H247897   4.629   3.295  16.005  0.0847 -0.2221  0.2854
 8828TIP3   OH247898   6.059   6.328   5.306  0.4094 -0.6203 -0.2531
 8828TIP3    H147899   6.013   6.340   5.223 -2.4322 -1.6960  1.0433
 8828TIP3    H247900   5.995   6.353   5.373  1.4463 -2.8808  1.7142
 8829TIP3   OH247901   1.789   0.141  15.108  0.0453 -0.2128 -0.8143
 8829TIP3    H147902   1.694   0.145  15.098 -0.3025 -2.2532  0.8541
 8829TIP3    H247903   1.811   0.218  15.161 -0.4074  1.1362 -2.5208
 8830TIP3   OH247904   4.936   3.075   6.281 -0.5050  0.0496  0.6345
 8830TIP3    H147905   4.927   3.144   6.346 -1.9025 -0.9775  1.5809
 8830TIP3    H247906   4.915   2.994   6.328  0.8057 -1.0147 -0.5103
 8831TIP3   OH247907   0.533   3.521   3.490  0.1989  0.2841  0.1658
 8831TIP3    H147908   0.620   3.494   3.517  0.0315 -1.0570 -0.5361
 8831TIP3    H247909   0.474   3.466   3.541 -0.2789  1.5998  1.0790
 8832TIP3   OH247910   0.971   6.578   0.703 -0.1646 -0.0819  0.3698
 8832TIP3    H147911   1.066   6.590   0.701 -0.2037  0.2329  0.2412
 8832TIP3    H247912   0.949   6.539   0.618 -0.0821 -0.6994  0.6330
 8833TIP3   OH247913   5.254   2.219   5.333 -0.2747  0.5838  0.5125
 8833TIP3    H147914   5.230   2.126   5.331 -2.6168  1.0750 -2.8785
 8833TIP3    H247915   5.189   2.258   5.392 -0.5386  0.3144  0.4080
 8834TIP3   OH247916   2.451   1.285   1.812  0.2995  0.4494  0.0126
 8834TIP3    H147917   2.395   1.286   1.889  1.1014  0.5487  0.6083
 8834TIP3    H247918   2.537   1.258   1.845  0.6219  0.3697 -0.8656
 8835TIP3   OH247919   2.879   5.070   3.009  0.0334  0.3805  0.1317
 8835TIP3    H147920   2.810   5.132   2.988 -0.6654 -0.5644 -0.3933
 8835TIP3    H247921   2.960   5.117   2.988 -0.4577  1.2746  0.1858
 8836TIP3   OH247922   1.196   0.051  14.852  0.0974  0.1115 -0.3126
 8836TIP3    H147923   1.163   0.135  14.884 -1.1104  0.8065 -3.1075
 8836TIP3    H247924   1.231   0.070  14.765 -0.3984 -2.2952 -1.1307
 8837TIP3   OH247925   3.838   3.560  17.082 -0.1345  0.5505  0.2818
 8837TIP3    H147926   3.817   3.469  17.061 -1.0842  0.4443  1.5181
 8837TIP3    H247927   3.920   3.556  17.130  0.8732  0.5760 -1.3733
 8838TIP3   OH247928   5.246   0.757  12.958  0.1369 -0.6283  0.6076
 8838TIP3    H147929   5.166   0.801  12.928  0.4692 -0.6571 -0.3740
 8838TIP3    H247930   5.218   0.705  13.034 -0.6524 -0.1851  0.6321
 8839TIP3   OH247931   5.530   6.523  15.479  0.1979  0.2996  0.5524
 8839TIP3    H147932   5.566   6.612  15.479  1.4159 -0.1535  1.8282
 8839TIP3    H247933   5.588   6.474  15.420 -0.2362  0.2626  0.1541
 8840TIP3   OH247934   0.831   0.676  12.603 -0.3840  0.0940  0.3480
 8840TIP3    H147935   0.761   0.709  12.548 -1.0277  0.8762  1.5887
 8840TIP3    H247936   0.786   0.638  12.679  0.4111 -2.1067 -0.1894
 8841TIP3   OH247937   1.469   1.239  15.360 -0.4067 -0.4003 -0.2073
 8841TIP3    H147938   1.548   1.291  15.373  0.8326 -1.7496 -1.7915
 8841TIP3    H247939   1.469   1.219  15.266 -2.1702 -1.1515 -0.0781
 8842TIP3   OH247940   6.571   3.187  17.133 -0.5484 -0.1768 -0.0556
 8842TIP3    H147941   6.634   3.188  17.205 -0.9808 -0.7193  0.3425
 8842TIP3    H247942   6.562   3.278  17.107 -0.6177  0.0618  0.7928
 8843TIP3   OH247943   3.292   4.578   3.547 -0.2234 -0.0512 -0.0388
 8843TIP3    H147944   3.371   4.525   3.552  0.9994  1.7557  0.7607
 8843TIP3    H247945   3.259   4.565   3.458  2.0148  0.5631 -1.0274
 8844TIP3   OH247946   5.452   5.614   4.442  0.2127  0.7659 -0.0254
 8844TIP3    H147947   5.481   5.612   4.351 -2.6201  0.1728 -1.0468
 8844TIP3    H247948   5.379   5.676   4.442 -0.4110  0.0930  1.6315
 8845TIP3   OH247949   5.575   6.071   0.475 -0.2011  0.8538  0.2831
 8845TIP3    H147950   5.618   6.037   0.553 -1.5270 -1.0239  0.2598
 8845TIP3    H247951   5.497   6.016   0.465 -1.3418  2.6176 -0.9964
 8846TIP3   OH247952   0.004   4.497  11.557  0.4195 -0.1609  0.7099
 8846TIP3    H147953   0.050   4.423  11.517 -0.0838  0.0961 -0.3759
 8846TIP3    H247954  -0.082   4.497  11.516  0.7568  1.6560 -0.0997
 8847TIP3   OH247955   4.972   5.664  17.299  0.7832  0.0426  0.1925
 8847TIP3    H147956   4.915   5.738  17.279  1.4213  0.4891  0.0050
 8847TIP3    H247957   4.944   5.634  17.386 -1.6460 -1.5551 -1.0304
 8848TIP3   OH247958   1.818   0.938  16.763 -0.2157  0.0013  0.0099
 8848TIP3    H147959   1.885   0.875  16.739 -0.2837 -0.4700  1.0009
 8848TIP3    H247960   1.818   0.938  16.859  1.3041  3.0806  0.1525
 8849TIP3   OH247961   5.756   2.216   2.990  0.2683  0.4818  0.1078
 8849TIP3    H147962   5.715   2.222   3.076 -0.7209 -2.0911 -0.0966
 8849TIP3    H247963   5.842   2.179   3.007  0.5827  1.1879  0.0852
 8850TIP3   OH247964   4.750   2.600   3.180 -0.3960  0.5287  0.0658
 8850TIP3    H147965   4.809   2.538   3.137 -1.1748 -0.9552  1.0607
 8850TIP3    H247966   4.809   2.666   3.217  0.5693 -0.3743  0.1970
 8851TIP3   OH247967   1.311   0.709   4.220  0.2254 -0.0227  0.6162
 8851TIP3    H147968   1.221   0.738   4.206 -0.0984 -1.1138  0.4076
 8851TIP3    H247969   1.305   0.615   4.238  1.5236 -0.6764 -1.9231
 8852TIP3   OH247970   2.643   3.162  15.384 -0.0216 -0.6593  0.5052
 8852TIP3    H147971   2.594   3.238  15.352  0.5363 -1.0524 -1.4235
 8852TIP3    H247972   2.637   3.098  15.313  1.5933 -1.4794  1.0453
 8853TIP3   OH247973   5.138   5.080   2.830 -0.1621  0.1108  0.2188
 8853TIP3    H147974   5.048   5.052   2.811 -0.5105  0.4988  1.2115
 8853TIP3    H247975   5.156   5.149   2.766  0.4891 -1.8611 -1.8586
 8854TIP3   OH247976   0.031   1.437   2.978 -0.2304 -0.5757 -0.1821
 8854TIP3    H147977   0.044   1.418   3.071 -0.0460  1.0141  0.1450
 8854TIP3    H247978  -0.059   1.470   2.973  0.2817  0.8541 -0.2832
 8855TIP3   OH247979   4.977   6.651  12.511 -0.0412 -0.3513  0.2784
 8855TIP3    H147980   5.001   6.671  12.421  1.5834 -0.0794  0.7230
 8855TIP3    H247981   5.007   6.561  12.525 -0.8009 -0.5947  0.3864
 8856TIP3   OH247982   2.209   6.667   3.912 -0.5384  0.0289 -0.1965
 8856TIP3    H147983   2.269   6.624   3.973 -1.7160 -1.4627 -0.0278
 8856TIP3    H247984   2.248   6.753   3.897  0.3991  0.0045  1.7437
 8857TIP3   OH247985   3.628   4.179  10.894 -0.0617  1.3395 -0.1856
 8857TIP3    H147986   3.664   4.232  10.965  0.1785  0.2998  0.4975
 8857TIP3    H247987   3.705   4.143  10.850 -0.1510 -1.1130  1.4513
 8858TIP3   OH247988   3.664   0.538  16.554  0.2892 -0.3848 -0.3233
 8858TIP3    H147989   3.705   0.624  16.554 -0.6105  0.0923 -1.9480
 8858TIP3    H247990   3.577   0.553  16.590  1.2323 -1.2848  2.5723
 8859TIP3   OH247991   3.724   3.394  13.626 -0.2243 -0.6251  0.0651
 8859TIP3    H147992   3.657   3.425  13.687  0.2783 -0.9902  0.8127
 8859TIP3    H247993   3.753   3.310  13.661  1.8792  0.3159  0.7672
 8860TIP3   OH247994   5.294   5.288  15.740  0.1082 -0.2953 -0.1672
 8860TIP3    H147995   5.215   5.238  15.719 -2.3805  3.4289 -0.5055
 8860TIP3    H247996   5.282   5.317  15.830  1.5913 -0.4247  0.1059
 8861TIP3   OH247997   4.159   4.914  15.911 -0.3471  0.5931  0.1044
 8861TIP3    H147998   4.179   4.862  15.834  0.8579 -0.6232  1.2059
 8861TIP3    H247999   4.223   4.986  15.910 -0.2954  0.5442  0.0037
 8862TIP3   OH248000   4.197   3.703   5.165 -0.5394 -1.1526  0.0344
 8862TIP3    H148001   4.253   3.756   5.222 -0.0781 -0.6541 -0.8487
 8862TIP3    H248002   4.108   3.725   5.191 -0.3351 -0.9487  0.5745
 8863TIP3   OH248003   0.215   3.351   2.857  0.2985 -0.0566 -0.0368
 8863TIP3    H148004   0.295   3.403   2.851  0.9130 -0.9935 -0.0390
 8863TIP3    H248005   0.243   3.261   2.845 -0.4901 -0.5908  1.8346
 8864TIP3   OH248006   1.082   1.962   5.733  0.0244 -0.5263 -0.4217
 8864TIP3    H148007   1.097   1.927   5.821 -0.3999 -1.8329 -0.8451
 8864TIP3    H248008   1.002   1.918   5.704 -0.9276  1.3365 -0.7384
 8865TIP3   OH248009   5.647   0.206  14.187 -0.2196  0.2435 -0.0768
 8865TIP3    H148010   5.689   0.262  14.122 -0.1880  1.1299  0.6722
 8865TIP3    H248011   5.572   0.168  14.141  0.5463 -0.1952 -0.9947
 8866TIP3   OH248012   0.638   4.258   0.006 -0.0999 -0.4443  0.3818
 8866TIP3    H148013   0.646   4.349  -0.024  2.3882 -0.2144  1.5460
 8866TIP3    H248014   0.559   4.226  -0.038 -0.1588  1.7762 -1.3295
 8867TIP3   OH248015   5.072   6.423   5.413  0.3622  0.6703 -0.3156
 8867TIP3    H148016   5.052   6.364   5.486  1.6521  0.9072  0.2513
 8867TIP3    H248017   5.143   6.380   5.366  2.9704  2.7365  1.4371
 8868TIP3   OH248018   2.069   4.613  14.311 -0.0210 -0.2687 -0.2775
 8868TIP3    H148019   2.008   4.676  14.349  0.1467 -0.3076  0.0607
 8868TIP3    H248020   2.018   4.532  14.302 -0.2920 -0.0411 -0.8903
 8869TIP3   OH248021   4.541   6.689   0.289  0.1929  0.5851 -0.4915
 8869TIP3    H148022   4.455   6.712   0.256 -0.4357 -0.9350  0.0119
 8869TIP3    H248023   4.541   6.593   0.293  1.4773  0.5960  0.6149
 8870TIP3   OH248024   1.889   2.152  11.834 -0.4325 -0.2891 -0.3661
 8870TIP3    H148025   1.977   2.187  11.847 -0.8256  0.4927  0.2580
 8870TIP3    H248026   1.864   2.183  11.747 -0.6492  0.7319  0.0465
 8871TIP3   OH248027   5.243   0.437  13.326  0.6466 -0.0745  0.2383
 8871TIP3    H148028   5.192   0.441  13.244  2.9866 -0.5280 -1.3299
 8871TIP3    H248029   5.178   0.451  13.395 -1.3024  1.2173 -1.7210
 8872TIP3   OH248030   2.060   1.575  15.147  0.0200 -0.1423 -0.0733
 8872TIP3    H148031   2.066   1.482  15.128 -0.0528 -0.0735 -0.4379
 8872TIP3    H248032   2.118   1.617  15.083 -1.5086  0.2310 -1.2850
 8873TIP3   OH248033   4.055   5.553  12.096 -0.3976  0.3830 -0.5808
 8873TIP3    H148034   4.090   5.638  12.123 -0.3773  0.2179 -0.0690
 8873TIP3    H248035   4.085   5.542  12.006 -1.2548  1.3704 -1.0063
 8874TIP3   OH248036   3.326   5.625  14.478 -0.6372 -0.2784  0.5295
 8874TIP3    H148037   3.257   5.596  14.538 -1.9616 -0.3940 -1.0006
 8874TIP3    H248038   3.289   5.699  14.432  1.3750  1.5851  1.7294
 8875TIP3   OH248039   5.642   3.622  10.978  0.1404 -0.6145  0.1001
 8875TIP3    H148040   5.721   3.603  10.928  0.4933 -0.7363  0.6939
 8875TIP3    H248041   5.573   3.572  10.935 -0.2024  1.5604 -2.0866
 8876TIP3   OH248042   0.633   5.495  13.147  0.3243  0.3598  0.2866
 8876TIP3    H148043   0.689   5.558  13.191 -0.0110  1.1617 -0.3953
 8876TIP3    H248044   0.693   5.432  13.107  0.6736  0.3943  0.7567
 8877TIP3   OH248045   4.810   4.187   4.221  0.0197 -0.3388 -0.4428
 8877TIP3    H148046   4.864   4.109   4.206  2.1218  1.1471 -1.1709
 8877TIP3    H248047   4.829   4.243   4.145  0.6372  1.9425  1.3013
 8878TIP3   OH248048   0.267   6.575  17.357 -0.0906  0.6672 -0.4824
 8878TIP3    H148049   0.202   6.532  17.413  1.4337  0.3516  1.1599
 8878TIP3    H248050   0.336   6.509  17.347  1.5719  2.0927  0.7645
 8879TIP3   OH248051   2.353   1.257   2.078 -0.3510  0.1204 -0.3386
 8879TIP3    H148052   2.432   1.273   2.129 -0.7071  2.5119 -0.4195
 8879TIP3    H248053   2.290   1.322   2.110 -3.4322 -3.5015  1.8527
 8880TIP3   OH248054   3.410   4.076   1.463  0.2306 -0.5154 -0.1375
 8880TIP3    H148055   3.362   4.032   1.533  1.0545 -2.3258 -0.6690
 8880TIP3    H248056   3.357   4.061   1.384 -0.2884  0.8467 -0.0880
 8881TIP3   OH248057   1.151   1.084   0.125  0.6734 -0.5117 -0.1593
 8881TIP3    H148058   1.216   1.015   0.135  0.9195 -0.7096 -2.4997
 8881TIP3    H248059   1.199   1.156   0.085 -0.2899 -0.2324 -0.8458
 8882TIP3   OH248060   3.298   1.217  11.700 -0.0174 -0.0412 -0.3423
 8882TIP3    H148061   3.329   1.294  11.748 -3.9252  0.8654  1.1247
 8882TIP3    H248062   3.351   1.145  11.734  2.0366  1.5669  0.1206
 8883TIP3   OH248063   6.556   4.305  12.755 -0.3244 -1.1964 -0.1144
 8883TIP3    H148064   6.579   4.398  12.746  0.0180 -1.0364  1.9946
 8883TIP3    H248065   6.631   4.258  12.718 -0.2340 -0.6485 -0.6475
 8884TIP3   OH248066   0.122   1.422  13.042 -0.3270 -0.3585  0.4237
 8884TIP3    H148067   0.058   1.489  13.066 -0.2858  0.2035 -0.9389
 8884TIP3    H248068   0.156   1.450  12.957 -0.1595 -2.0113 -0.0923
 8885TIP3   OH248069   3.489   3.165   0.710 -0.4316  0.1897 -0.3798
 8885TIP3    H148070   3.479   3.259   0.696  0.7573  0.3475 -0.2931
 8885TIP3    H248071   3.435   3.124   0.643 -0.7188  0.9389 -0.6093
 8886TIP3   OH248072   2.400   0.942  14.154  0.5817 -0.0025 -0.0278
 8886TIP3    H148073   2.441   0.860  14.181  0.3563 -0.3588 -0.7371
 8886TIP3    H248074   2.350   0.971  14.231  2.3724  0.5972  0.9642
 8887TIP3   OH248075   4.892   6.039  14.308  0.0545 -0.0423  0.2734
 8887TIP3    H148076   4.849   6.014  14.226  0.3867 -0.1869  0.1407
 8887TIP3    H248077   4.890   5.960  14.362  0.2503 -0.0832  0.2234
 8888TIP3   OH248078   1.132   3.710   5.108  0.8658  0.1285  0.3755
 8888TIP3    H148079   1.047   3.673   5.086  0.4912  1.1768 -0.0445
 8888TIP3    H248080   1.191   3.635   5.115  0.0372 -0.5616  0.0897
 8889TIP3   OH248081   0.937   5.466  12.375  0.5094  0.1199  0.8607
 8889TIP3    H148082   0.936   5.511  12.459 -1.0024 -1.3489  1.7003
 8889TIP3    H248083   0.956   5.375  12.397  3.5242  0.2025 -0.7682
 8890TIP3   OH248084   2.332   6.560  12.288  0.4537  0.2018  0.3362
 8890TIP3    H148085   2.401   6.626  12.278  0.5624 -0.0162 -0.3794
 8890TIP3    H248086   2.341   6.531  12.379 -0.9986  2.7046  1.3837
 8891TIP3   OH248087   4.269   4.871   6.544 -0.3920 -0.0696 -1.0082
 8891TIP3    H148088   4.185   4.852   6.586  0.2503  1.9154  1.4491
 8891TIP3    H248089   4.329   4.806   6.579  0.1160  1.5126  1.2593
 8892TIP3   OH248090   5.548   2.843   0.720  0.0241  0.0844  0.3909
 8892TIP3    H148091   5.631   2.891   0.720  0.4836 -0.6166  2.3388
 8892TIP3    H248092   5.560   2.774   0.655  0.9860 -0.0191  0.6641
 8893TIP3   OH248093   0.631   0.528   1.645 -0.0458 -0.0744 -0.0750
 8893TIP3    H148094   0.624   0.480   1.728 -0.2452 -1.1112 -0.6762
 8893TIP3    H248095   0.598   0.615   1.666  2.4817  0.5923  1.6295
 8894TIP3   OH248096   1.000   2.031   0.970  0.2618  0.5309 -0.4058
 8894TIP3    H148097   1.008   1.996   1.058  1.1716 -0.2028 -0.7708
 8894TIP3    H248098   0.947   1.967   0.923  2.7175 -0.9465 -1.3369
 8895TIP3   OH248099   5.899   2.485  10.612  0.0548  0.0352  0.2567
 8895TIP3    H148100   5.944   2.533  10.681  0.8074  1.0738 -0.9139
 8895TIP3    H248101   5.968   2.440  10.565 -0.4277 -0.5005  0.0565
 8896TIP3   OH248102   4.381   3.873   1.266  0.0313  0.2205  0.3424
 8896TIP3    H148103   4.457   3.814   1.268 -0.5161 -0.6657 -1.9377
 8896TIP3    H248104   4.306   3.814   1.267 -0.5542  0.4375 -4.9579
 8897TIP3   OH248105   2.633   3.489   5.592 -0.4033  0.1027  0.3777
 8897TIP3    H148106   2.727   3.480   5.575 -0.3095  1.0275  0.3652
 8897TIP3    H248107   2.608   3.569   5.546 -0.6493  1.3486  2.5431
 8898TIP3   OH248108   0.683   3.755   5.193  0.4929 -0.5050  0.2418
 8898TIP3    H148109   0.628   3.832   5.188  1.5282  0.2675  0.4348
 8898TIP3    H248110   0.734   3.767   5.273  0.9740 -1.1688  0.0457
 8899TIP3   OH248111   4.691   2.295   4.462 -0.1031 -0.3584  0.3535
 8899TIP3    H148112   4.758   2.359   4.436 -0.4546 -0.1417 -0.0309
 8899TIP3    H248113   4.613   2.348   4.479 -0.9846 -0.8269 -1.8697
 8900TIP3   OH248114   5.333   6.694   4.135  0.2355 -0.1397 -0.3020
 8900TIP3    H148115   5.397   6.627   4.111  0.4996  1.1493 -3.8442
 8900TIP3    H248116   5.373   6.740   4.209  2.1002 -1.0988 -0.6463
 8901TIP3   OH248117   3.255   3.486  14.882  0.2824  0.0289 -0.6301
 8901TIP3    H148118   3.177   3.541  14.882  0.4111  0.2444  0.5190
 8901TIP3    H248119   3.316   3.530  14.823  0.0796  0.6832 -0.3634
 8902TIP3   OH248120   2.811   5.725  13.094  0.0723 -0.3034  0.1302
 8902TIP3    H148121   2.716   5.722  13.088  0.0737 -0.9510  0.3560
 8902TIP3    H248122   2.834   5.815  13.071 -0.5749 -0.2134 -0.1736
 8903TIP3   OH248123   3.212   4.777   5.070  0.1303  0.4060 -0.1825
 8903TIP3    H148124   3.299   4.764   5.031  1.0167  0.7954  1.5425
 8903TIP3    H248125   3.187   4.691   5.103  2.1142  1.0531  3.5735
 8904TIP3   OH248126   2.200   5.228   5.577 -0.2152 -0.4522 -0.0824
 8904TIP3    H148127   2.208   5.297   5.511  0.8579 -1.9692 -1.6160
 8904TIP3    H248128   2.133   5.260   5.637 -0.4449  1.4773 -1.2934
 8905TIP3   OH248129   3.164   6.096  16.198  0.3079  0.1483  0.4500
 8905TIP3    H148130   3.206   6.138  16.123 -1.9913  2.5582  0.3790
 8905TIP3    H248131   3.182   6.154  16.272 -2.3871  1.1025  0.4863
 8906TIP3   OH248132   4.224   3.826   2.001  1.0671 -0.1776 -0.0343
 8906TIP3    H148133   4.287   3.870   1.944  1.4528 -3.0953 -2.0672
 8906TIP3    H248134   4.277   3.775   2.061  0.6299 -0.3907  0.1735
 8907TIP3   OH248135   0.894   5.276   3.481  0.7796 -0.4017 -0.3158
 8907TIP3    H148136   0.904   5.371   3.482  1.0028 -0.3993 -1.4890
 8907TIP3    H248137   0.831   5.260   3.411 -0.7458 -1.0043  1.1375
 8908TIP3   OH248138   3.170   6.223  15.569  0.1378  0.4284  0.4168
 8908TIP3    H148139   3.239   6.158  15.579  0.0238  0.1192 -0.6590
 8908TIP3    H248140   3.188   6.265  15.485  0.4845  2.1435  1.3122
 8909TIP3   OH248141   3.972   4.457   1.132 -1.2478  0.1495 -0.0804
 8909TIP3    H148142   3.954   4.373   1.175  2.5501 -1.1503 -0.6825
 8909TIP3    H248143   3.993   4.516   1.204  1.2683 -0.9708  0.2111
 8910TIP3   OH248144   2.133   6.244  12.037  0.3981 -0.0946  0.1186
 8910TIP3    H148145   2.218   6.273  12.003 -0.0648  0.6283 -0.4641
 8910TIP3    H248146   2.081   6.227  11.959  0.4397 -1.9585  0.4434
 8911TIP3   OH248147   1.005   6.501   3.768 -0.6633  0.2934 -0.0289
 8911TIP3    H148148   1.090   6.506   3.724 -1.9559 -0.7902 -2.9741
 8911TIP3    H248149   0.974   6.591   3.769  1.0381  0.9370  2.4145
 8912TIP3   OH248150   2.931   5.353   1.775 -0.7628  0.1359 -0.1579
 8912TIP3    H148151   2.894   5.425   1.827 -0.3293 -1.3338  2.3634
 8912TIP3    H248152   2.895   5.274   1.814  1.7437 -1.1815 -0.3035
 8913TIP3   OH248153   4.128   3.398  15.298  0.0703  0.0822 -0.2313
 8913TIP3    H148154   4.117   3.341  15.375  1.8729  1.7341  1.3554
 8913TIP3    H248155   4.041   3.436  15.285  0.0841  1.1842  2.2399
 8914TIP3   OH248156   4.290   3.108  13.563  0.0086  0.2157  0.2385
 8914TIP3    H148157   4.357   3.152  13.614  0.3538 -1.0448  0.8974
 8914TIP3    H248158   4.330   3.026  13.534 -0.5980  0.3260 -1.0160
 8915TIP3   OH248159   1.889   0.605  17.093  0.1884 -0.2874  0.2225
 8915TIP3    H148160   1.905   0.574  17.182 -0.9684  0.1891  0.6100
 8915TIP3    H248161   1.962   0.570  17.042 -0.2424 -2.3441  0.9314
 8916TIP3   OH248162   1.668   5.140   5.983 -0.0204  0.2996 -0.0272
 8916TIP3    H148163   1.708   5.226   5.973  1.4326 -0.4673 -1.3018
 8916TIP3    H248164   1.697   5.110   6.069  0.7552  0.4649 -0.2227
 8917TIP3   OH248165   1.351   1.009   5.472  0.3234 -0.2860 -0.0612
 8917TIP3    H148166   1.304   0.927   5.462  2.5438 -1.8026  1.0426
 8917TIP3    H248167   1.310   1.051   5.548 -1.1884 -0.0623 -0.9703
 8918TIP3   OH248168   5.958   2.991   4.973 -0.2579 -0.9388  0.3412
 8918TIP3    H148169   5.924   2.945   4.896  0.0221 -0.7720  0.1140
 8918TIP3    H248170   5.883   3.000   5.031 -1.0009  0.7535 -0.7989
 8919TIP3   OH248171   1.360   0.840   1.955  0.3201 -0.5198 -0.2106
 8919TIP3    H148172   1.425   0.852   1.886 -1.8141  2.3355 -1.9392
 8919TIP3    H248173   1.294   0.783   1.916 -0.3032  0.1136 -0.1031
 8920TIP3   OH248174   6.726   0.828  16.585 -0.1971  0.4810 -0.5183
 8920TIP3    H148175   6.639   0.814  16.547 -0.2637 -0.1026 -0.1596
 8920TIP3    H248176   6.786   0.789  16.521 -0.3990 -1.8679  0.6197
 8921TIP3   OH248177   3.542   6.039   4.763  0.4331  0.3477  0.5258
 8921TIP3    H148178   3.455   6.030   4.801 -0.3232 -2.9426 -1.6206
 8921TIP3    H248179   3.534   6.114   4.704 -1.1188 -0.2482 -0.0668
 8922TIP3   OH248180   3.035   6.331  11.458 -0.6855 -0.9243 -0.8616
 8922TIP3    H148181   3.001   6.268  11.395 -2.8415 -1.1672  0.4282
 8922TIP3    H248182   2.971   6.402  11.457  0.6080  0.2844 -0.7794
 8923TIP3   OH248183   1.907   2.393   1.312 -0.0195  0.1129  0.7054
 8923TIP3    H148184   1.865   2.346   1.240 -0.5826 -0.1260  1.1753
 8923TIP3    H248185   1.997   2.407   1.282 -0.4402  0.6723 -0.3338
 8924TIP3   OH248186   5.069   2.167   1.521  0.6928  0.0679  0.0975
 8924TIP3    H148187   5.025   2.090   1.486  0.7901  0.7798 -1.7152
 8924TIP3    H248188   5.162   2.150   1.510  0.6931  0.8489 -1.3116
 8925TIP3   OH248189   0.458   1.062   0.865 -0.5355  0.1576 -0.1868
 8925TIP3    H148190   0.412   1.131   0.818  0.1776  0.4560 -0.4568
 8925TIP3    H248191   0.435   0.982   0.819 -1.3061  0.2137  0.0824
 8926TIP3   OH248192   1.599   3.201   0.459 -0.7495  0.4998  0.0165
 8926TIP3    H148193   1.692   3.180   0.456 -0.1139  3.1211 -1.8032
 8926TIP3    H248194   1.555   3.119   0.438  1.1819 -0.5851  0.0226
 8927TIP3   OH248195   2.502   1.748   3.349  0.2823 -0.1487  0.2616
 8927TIP3    H148196   2.498   1.756   3.444  0.6330 -0.3482  0.2935
 8927TIP3    H248197   2.432   1.805   3.318  0.8783  0.7853  0.5985
 8928TIP3   OH248198   3.329   5.066   1.017 -0.1747  0.6716  0.3292
 8928TIP3    H148199   3.390   5.139   1.029 -0.4783  0.6210  2.6831
 8928TIP3    H248200   3.319   5.059   0.922 -1.3094  4.6732 -0.0641
 8929TIP3   OH248201   2.362   4.142  17.299 -0.1928  0.0850  0.1994
 8929TIP3    H148202   2.305   4.078  17.256 -0.1411  0.5732 -0.6322
 8929TIP3    H248203   2.302   4.200  17.346 -0.5219  1.2239 -1.5167
 8930TIP3   OH248204   2.062   1.694   5.152  0.3618  0.0489  0.1554
 8930TIP3    H148205   2.025   1.631   5.091  1.8203  0.3540 -1.0996
 8930TIP3    H248206   2.028   1.779   5.122  0.7065  0.1514  0.0526
 8931TIP3   OH248207   6.366   1.527  13.529 -0.1594 -0.4087  0.4186
 8931TIP3    H148208   6.371   1.622  13.525 -0.8040 -0.3985 -0.2969
 8931TIP3    H248209   6.277   1.506  13.501  0.0618 -1.2359  0.3068
 8932TIP3   OH248210   6.496   1.172   1.254 -0.0224  0.6534  0.0106
 8932TIP3    H148211   6.411   1.138   1.284  0.0589  2.1265  2.1606
 8932TIP3    H248212   6.477   1.263   1.229  1.2696  1.7872  2.8135
 8933TIP3   OH248213   6.126   3.694   6.521  0.5786  0.0047 -0.1038
 8933TIP3    H148214   6.104   3.684   6.613 -1.6339 -1.9642 -0.7502
 8933TIP3    H248215   6.048   3.734   6.482  0.3861 -1.6383 -1.5140
 8934TIP3   OH248216   5.220   6.083   2.327 -0.6482  0.3471  0.0944
 8934TIP3    H148217   5.291   6.038   2.374 -0.1277 -0.0596 -1.0216
 8934TIP3    H248218   5.187   6.148   2.389 -0.4542 -0.6193  1.2505
 8935TIP3   OH248219   2.416   3.900   0.768  0.3282  0.3898  0.2813
 8935TIP3    H148220   2.359   3.907   0.692  0.2082 -0.3396  0.2980
 8935TIP3    H248221   2.370   3.841   0.827  1.1830 -0.3560  0.2151
 8936TIP3   OH248222   0.699   2.670   0.001 -0.6949 -0.6204  0.0829
 8936TIP3    H148223   0.729   2.715   0.080  0.9792  0.2250 -0.9758
 8936TIP3    H248224   0.661   2.588   0.032  0.4010 -0.5331  1.7125
 8937TIP3   OH248225   2.720   3.175  12.124 -0.3353 -0.5943 -0.4553
 8937TIP3    H148226   2.756   3.238  12.062  1.6813 -1.1101  0.1198
 8937TIP3    H248227   2.655   3.126  12.074  0.8926 -0.6700 -2.0324
 8938TIP3   OH248228   6.284   0.922   0.193  0.4607  0.0004  0.4120
 8938TIP3    H148229   6.314   0.864   0.123 -0.2756 -0.8365  0.7676
 8938TIP3    H248230   6.308   0.877   0.274  2.7391  1.7050  0.7686
 8939TIP3   OH248231   0.306   6.310   4.105 -0.5805 -0.1745  1.2241
 8939TIP3    H148232   0.298   6.215   4.114 -1.9676 -0.0615  1.3831
 8939TIP3    H248233   0.347   6.339   4.187  1.7122 -0.8079  0.3757
 8940TIP3   OH248234   2.419   4.408   1.467  0.2816  0.0090 -0.4732
 8940TIP3    H148235   2.393   4.460   1.543  1.7811  0.7188 -0.4104
 8940TIP3    H248236   2.446   4.473   1.402  3.7753 -0.6058  0.1823
 8941TIP3   OH248237   2.430   4.040   4.510  0.1669 -0.0969  0.1697
 8941TIP3    H148238   2.497   4.098   4.548  1.6600 -1.7304  0.1838
 8941TIP3    H248239   2.390   4.092   4.441 -0.7189  1.9947  2.1198
 8942TIP3   OH248240   3.069   2.642   2.274  0.0001 -0.6422 -0.1522
 8942TIP3    H148241   3.126   2.668   2.201 -0.4635 -1.4797 -0.8350
 8942TIP3    H248242   3.060   2.547   2.265 -1.0225 -0.6050  0.2967
 8943TIP3   OH248243   4.130   1.363  15.966 -0.1184  0.0838  0.2352
 8943TIP3    H148244   4.207   1.309  15.947 -0.5268 -0.1707 -0.7720
 8943TIP3    H248245   4.062   1.328  15.909 -1.0148  0.2590  1.1805
 8944TIP3   OH248246   3.285   3.229  12.626 -0.1746 -0.1267  0.5782
 8944TIP3    H148247   3.197   3.208  12.657 -1.6849 -0.6197 -3.4254
 8944TIP3    H248248   3.320   3.145  12.596  0.8410  0.3914  0.2792
 8945TIP3   OH248249   3.515   4.195   0.030  0.3088 -0.4050  0.2747
 8945TIP3    H148250   3.576   4.133  -0.009  0.8496 -0.0596  0.5544
 8945TIP3    H248251   3.534   4.190   0.124  0.6700  0.4947  0.2635
 8946TIP3   OH248252   3.693   6.437  17.193 -0.5466 -0.4028 -0.0025
 8946TIP3    H148253   3.660   6.469  17.277 -0.0246 -0.7305  0.3314
 8946TIP3    H248254   3.781   6.473  17.186  0.7736 -3.0727  1.2002
 8947TIP3   OH248255   6.120   3.817  11.462 -0.3478 -0.3033 -0.0771
 8947TIP3    H148256   6.178   3.753  11.422 -1.5290 -2.2087  1.1287
 8947TIP3    H248257   6.068   3.852  11.389 -1.9817 -3.1835 -0.4273
 8948TIP3   OH248258   5.722   0.230  16.094  0.4742  0.1646 -0.4817
 8948TIP3    H148259   5.679   0.302  16.140  0.3003 -0.4220  0.3068
 8948TIP3    H248260   5.704   0.246  16.002  1.1201  1.5648 -0.3916
 8949TIP3   OH248261   5.150   2.922  11.773  0.4737  0.1675  0.0981
 8949TIP3    H148262   5.097   2.977  11.830  0.0677  0.0856 -0.1901
 8949TIP3    H248263   5.130   2.954  11.684  0.8971  0.1275 -0.0118
 8950TIP3   OH248264   4.086   5.969  15.112  0.0123  0.2410  0.4769
 8950TIP3    H148265   4.033   5.998  15.186  1.1299 -0.9445  1.7968
 8950TIP3    H248266   4.162   5.927  15.152  0.7196 -0.3098 -1.3493
 8951TIP3   OH248267   2.524   5.694   6.558 -0.1321 -0.4498  0.5666
 8951TIP3    H148268   2.461   5.766   6.555  0.4005  0.0657  1.3697
 8951TIP3    H248269   2.576   5.711   6.636  1.6506 -0.3107 -0.5817
 8952TIP3   OH248270   2.392   1.582   3.128 -0.3284 -0.4583  0.4749
 8952TIP3    H148271   2.433   1.618   3.207  1.8060 -0.5116 -0.5218
 8952TIP3    H248272   2.393   1.487   3.141 -0.2673 -0.4507  0.5253
 8953TIP3   OH248273   1.217   2.679   5.263  0.2563 -0.4284 -0.0445
 8953TIP3    H148274   1.132   2.694   5.222  0.7413  0.9694 -0.6018
 8953TIP3    H248275   1.195   2.661   5.355 -0.6315  0.1057 -0.1342
 8954TIP3   OH248276   1.128   1.203   2.194 -0.3258 -0.2550  0.0211
 8954TIP3    H148277   1.046   1.199   2.144 -0.0308  0.0851 -0.4978
 8954TIP3    H248278   1.195   1.170   2.134  0.3572  1.9148 -0.5329
 8955TIP3   OH248279   0.588   0.595   1.961  0.0602  0.2813 -0.0036
 8955TIP3    H148280   0.511   0.607   2.016  0.9368  1.6309  1.0171
 8955TIP3    H248281   0.593   0.675   1.909  0.3267 -0.1546 -0.6647
 8956TIP3   OH248282   5.506   1.300  16.369  0.1619  0.8224 -0.0812
 8956TIP3    H148283   5.458   1.374  16.406  1.0339  0.8553  1.0558
 8956TIP3    H248284   5.510   1.236  16.440  0.7319  0.3321 -0.5447
 8957TIP3   OH248285   0.910   5.297   5.641  0.5115  0.0203  0.2729
 8957TIP3    H148286   0.864   5.378   5.663  1.1945  0.7147 -0.7250
 8957TIP3    H248287   0.977   5.288   5.709  0.5094  0.3653  0.3222
 8958TIP3   OH248288   4.208   5.781   0.132  0.0057 -0.7993  0.1905
 8958TIP3    H148289   4.184   5.764   0.224  1.4747  1.3621  1.0310
 8958TIP3    H248290   4.292   5.737   0.121  1.3834  1.4829  0.9026
 8959TIP3   OH248291   2.772   3.199   5.421  0.4137  0.3231  0.2565
 8959TIP3    H148292   2.678   3.191   5.411  0.4622  0.7276 -0.6056
 8959TIP3    H248293   2.797   3.123   5.474 -0.5348  0.8464  1.5013
 8960TIP3   OH248294   5.093   4.640  11.368 -0.1388 -0.1050  0.1694
 8960TIP3    H148295   5.036   4.716  11.375  2.1599  1.7437  0.1661
 8960TIP3    H248296   5.076   4.590  11.448 -2.5680 -0.3139 -0.4033
 8961TIP3   OH248297   4.959   5.956   2.503  0.1167  0.5237 -0.1011
 8961TIP3    H148298   4.987   5.970   2.413 -1.9585  1.0498 -0.7172
 8961TIP3    H248299   4.952   6.044   2.540 -0.1594  0.3799  0.1945
 8962TIP3   OH248300   5.280   2.465   4.531 -0.8142  0.0560 -0.4575
 8962TIP3    H148301   5.195   2.422   4.524 -1.1180  0.7075 -0.9168
 8962TIP3    H248302   5.293   2.506   4.445  1.1168 -2.1011 -1.3020
 8963TIP3   OH248303   1.648   4.731   1.901 -0.2403  0.2550  0.4692
 8963TIP3    H148304   1.725   4.690   1.939  0.3624  1.8534  1.0469
 8963TIP3    H248305   1.663   4.825   1.911 -1.8026  0.6267 -0.3263
 8964TIP3   OH248306   0.056   2.159   3.629  0.6182 -0.3176 -0.1552
 8964TIP3    H148307  -0.021   2.112   3.659 -0.5976  0.9834 -1.1322
 8964TIP3    H248308   0.112   2.091   3.591 -1.0280 -1.0398 -1.4283
 8965TIP3   OH248309   3.271   1.486  14.140  0.2341  0.3648 -0.6054
 8965TIP3    H148310   3.282   1.480  14.045 -1.8796 -0.7636 -0.8278
 8965TIP3    H248311   3.232   1.572  14.155 -1.0559 -0.1405 -0.9668
 8966TIP3   OH248312   5.323   6.596  12.489 -0.1155  0.2854 -0.5909
 8966TIP3    H148313   5.376   6.620  12.565  0.4324  1.9640 -1.4610
 8966TIP3    H248314   5.308   6.502  12.500  0.2512  0.4009  1.3912
 8967TIP3   OH248315   4.609   0.571   3.654  0.6522  0.2467 -0.2506
 8967TIP3    H148316   4.654   0.609   3.730  0.8008 -0.2940 -0.0675
 8967TIP3    H248317   4.521   0.608   3.658  0.4782 -0.2167  0.5180
 8968TIP3   OH248318   4.703   4.556   5.393  0.3196  0.4778 -0.0525
 8968TIP3    H148319   4.643   4.630   5.398 -0.9065 -0.3273 -1.9538
 8968TIP3    H248320   4.647   4.480   5.381  1.5802 -0.7495  1.3775
 8969TIP3   OH248321   3.520   5.907   6.947 -0.2310 -0.7260 -0.0763
 8969TIP3    H148322   3.521   5.854   6.867  1.1691 -1.6780  0.5337
 8969TIP3    H248323   3.597   5.963   6.940 -0.3931 -0.4450  0.3642
 8970TIP3   OH248324   5.118   2.766   5.922 -0.4074 -0.0053  0.6038
 8970TIP3    H148325   5.047   2.790   5.981 -1.5761  0.2619 -0.8700
 8970TIP3    H248326   5.079   2.766   5.835  1.2970 -0.2677 -0.2092
 8971TIP3   OH248327   2.381   3.795  11.979  0.0364 -0.0061  0.4423
 8971TIP3    H148328   2.391   3.724  12.043  0.7495 -0.9286 -0.6480
 8971TIP3    H248329   2.324   3.758  11.911 -0.2004  0.7386  0.2293
 8972TIP3   OH248330   5.733   4.786  16.671 -0.4641 -0.1616 -0.0627
 8972TIP3    H148331   5.663   4.810  16.611  1.1082  1.5943 -1.2956
 8972TIP3    H248332   5.775   4.710  16.631 -0.7701 -0.3412 -0.0448
 8973TIP3   OH248333   1.553   4.392  11.966 -0.2780  0.4441 -0.3827
 8973TIP3    H148334   1.512   4.329  12.025 -0.0500  1.5403  1.0088
 8973TIP3    H248335   1.483   4.417  11.906 -0.2818 -1.3390 -1.1702
 8974TIP3   OH248336   3.802   2.849  13.340 -0.3480  0.1631 -0.1345
 8974TIP3    H148337   3.724   2.834  13.288 -1.0199  0.1111  0.8575
 8974TIP3    H248338   3.811   2.769  13.393  0.2980  0.2241 -0.1411
 8975TIP3   OH248339   6.652   6.564   1.183 -0.1556 -0.2799 -0.4327
 8975TIP3    H148340   6.737   6.538   1.220  0.1059  0.0311 -0.7982
 8975TIP3    H248341   6.656   6.535   1.092 -0.7282 -0.8904 -0.2654
 8976TIP3   OH248342   5.813   4.609  13.703  0.0692  0.3018  0.3037
 8976TIP3    H148343   5.751   4.557  13.755  1.2732 -0.8275  0.6737
 8976TIP3    H248344   5.898   4.570  13.722  0.6706  0.4661 -1.8044
 8977TIP3   OH248345   0.271   3.702  14.337 -0.3474 -0.3167 -0.3583
 8977TIP3    H148346   0.365   3.691  14.354 -0.1448 -0.8350 -1.6755
 8977TIP3    H248347   0.234   3.728  14.421  0.9322 -0.3946  0.2507
 8978TIP3   OH248348   4.622   2.011   2.879 -0.3062  0.2040  0.1860
 8978TIP3    H148349   4.688   1.957   2.836 -1.8854  0.3928 -2.7410
 8978TIP3    H248350   4.672   2.079   2.924  1.5315 -0.0805 -1.3152
 8979TIP3   OH248351   2.619   0.572  10.842 -0.7038  0.1486 -0.8228
 8979TIP3    H148352   2.581   0.524  10.915  0.3263  0.7084  0.1176
 8979TIP3    H248353   2.544   0.599  10.789 -1.4094 -0.9229 -0.3913
 8980TIP3   OH248354   0.500   2.117  14.346 -0.0163  0.3822  0.2626
 8980TIP3    H148355   0.517   2.197  14.395 -2.9664 -0.3232  2.7390
 8980TIP3    H248356   0.493   2.049  14.413 -1.1452 -1.2681 -1.4160
 8981TIP3   OH248357   0.030   6.257  13.065  0.3488 -0.6797  0.0234
 8981TIP3    H148358  -0.040   6.270  13.130 -0.0121  0.7453 -0.6213
 8981TIP3    H248359  -0.004   6.188  13.008 -1.2906  1.0462 -1.2123
 8982TIP3   OH248360   4.957   5.639   0.787 -0.0989  0.5501 -0.4011
 8982TIP3    H148361   5.046   5.608   0.800  0.6356  1.7388 -2.2639
 8982TIP3    H248362   4.964   5.734   0.794 -1.1505  0.6773 -0.9389
 8983TIP3   OH248363   5.041   3.831  14.188 -0.4011 -0.5865 -0.3585
 8983TIP3    H148364   5.037   3.792  14.101 -1.0328 -0.2243 -0.4959
 8983TIP3    H248365   5.104   3.777  14.236  1.5001  0.3840 -1.6321
 8984TIP3   OH248366   4.351   2.700   4.118 -0.1671  0.1076  0.1759
 8984TIP3    H148367   4.404   2.778   4.100 -1.5577  1.0572  0.0713
 8984TIP3    H248368   4.399   2.654   4.187  0.5269  1.1953  0.4410
 8985TIP3   OH248369   1.297   2.403   5.565  0.1644  0.0266  0.0663
 8985TIP3    H148370   1.279   2.348   5.641  0.2243  0.4303  0.3750
 8985TIP3    H248371   1.290   2.492   5.598 -0.9213  0.2219 -0.6610
 8986TIP3   OH248372   2.609   3.137  13.245 -0.1705  0.1157 -0.8178
 8986TIP3    H148373   2.627   3.202  13.313  0.7170 -0.1819 -0.7486
 8986TIP3    H248374   2.601   3.188  13.164 -1.3465  0.4842 -0.4912
 8987TIP3   OH248375   3.895   4.244   1.916  0.3535  0.5957 -0.0711
 8987TIP3    H148376   3.851   4.189   1.980  0.7476  0.7018  0.3008
 8987TIP3    H248377   3.886   4.198   1.833 -0.8310  0.8322 -0.0826
 8988TIP3   OH248378   6.258   3.202   5.562 -0.1923  0.3375 -0.3057
 8988TIP3    H148379   6.197   3.128   5.562 -1.0465  1.0107 -0.9517
 8988TIP3    H248380   6.322   3.180   5.494 -0.2350  0.0321 -0.2492
 8989TIP3   OH248381   0.378   5.270  11.886  0.2229 -0.3877 -0.0566
 8989TIP3    H148382   0.360   5.325  11.962  1.2110  0.2102 -0.2332
 8989TIP3    H248383   0.371   5.329  11.811 -1.3140 -1.0970 -0.5125
 8990TIP3   OH248384   4.997   4.441   0.895  1.2200  0.5384  0.5832
 8990TIP3    H148385   4.994   4.348   0.918  0.3196  0.6753  1.0560
 8990TIP3    H248386   4.940   4.449   0.819  1.5440  0.6546  0.3513
 8991TIP3   OH248387   1.590   6.216   0.115  0.5422 -0.5557  0.1290
 8991TIP3    H148388   1.502   6.251   0.099  1.2850  1.3347 -0.0574
 8991TIP3    H248389   1.592   6.134   0.067 -1.6239 -1.4484  1.4099
 8992TIP3   OH248390   6.262   1.138   1.432  0.0034  0.2005  0.1355
 8992TIP3    H148391   6.294   1.091   1.509  0.6068  0.1528 -0.1439
 8992TIP3    H248392   6.201   1.203   1.467  1.0115  0.8356  0.7581
 8993TIP3   OH248393   0.586   5.156   5.578 -0.5340  0.3905 -0.3481
 8993TIP3    H148394   0.681   5.164   5.583 -0.6008  1.2580 -0.3333
 8993TIP3    H248395   0.562   5.109   5.658 -0.1752  0.7503 -0.0222
 8994TIP3   OH248396   0.081   5.225  11.061 -0.1787  0.1441  0.0930
 8994TIP3    H148397   0.100   5.270  10.979 -1.6971  1.4847  0.4245
 8994TIP3    H248398  -0.010   5.197  11.052  0.2884 -1.6531  0.4881
 8995TIP3   OH248399   4.951   1.749   4.351  0.3202 -0.0835 -0.0225
 8995TIP3    H148400   4.871   1.755   4.297  0.3703 -3.0530 -0.6256
 8995TIP3    H248401   5.022   1.770   4.290  0.1625  0.1132 -0.1431
 8996TIP3   OH248402   6.278   4.482   2.178 -0.1092 -0.1433  0.3735
 8996TIP3    H148403   6.257   4.494   2.271  0.7595 -0.8410  0.6721
 8996TIP3    H248404   6.336   4.555   2.157  3.5654 -2.4485  1.6693
 8997TIP3   OH248405   5.321   5.165  14.688 -1.0447  0.2526  1.0183
 8997TIP3    H148406   5.306   5.258  14.706  0.4756  0.5868  0.6780
 8997TIP3    H248407   5.327   5.159  14.593 -0.7190 -0.1286  1.0604
 8998TIP3   OH248408   1.005   2.771  11.843 -0.2826  0.1898 -0.0869
 8998TIP3    H148409   0.918   2.803  11.864 -1.5424 -1.4960 -2.3144
 8998TIP3    H248410   1.017   2.790  11.750  0.7650 -1.5603 -0.3719
 8999TIP3   OH248411   4.671   0.580  12.325 -0.0009 -0.5778 -0.1110
 8999TIP3    H148412   4.762   0.555  12.311 -0.0764 -0.2319 -1.3511
 8999TIP3    H248413   4.641   0.609  12.238 -0.9694  0.3160  0.5021
 9000TIP3   OH248414   1.654   0.526   6.134  0.6377 -0.1972 -0.2183
 9000TIP3    H148415   1.716   0.516   6.207  2.2776 -1.4631 -1.6896
 9000TIP3    H248416   1.587   0.459   6.151  1.7832 -1.4813 -0.5528
 9001TIP3   OH248417   1.093   3.080   4.262 -0.3658 -0.2335 -0.2509
 9001TIP3    H148418   1.117   3.157   4.211 -1.1845  0.0047 -0.2994
 9001TIP3    H248419   1.167   3.021   4.253  0.8570  1.0621  0.8675
 9002TIP3   OH248420   0.196   0.951  14.042 -0.0110  0.6699  0.0643
 9002TIP3    H148421   0.121   0.892  14.050 -0.6371  1.4589  0.1518
 9002TIP3    H248422   0.189   0.985  13.953  0.7152  0.1432 -0.2074
 9003TIP3   OH248423   2.779   2.854   4.087 -0.2285  0.0767 -0.2141
 9003TIP3    H148424   2.751   2.816   4.004  0.8636  0.5163 -0.8095
 9003TIP3    H248425   2.854   2.801   4.114 -1.0004 -0.5074  0.8722
 9004TIP3   OH248426   5.977   0.516  11.685  0.0149  0.9473 -0.4965
 9004TIP3    H148427   6.025   0.571  11.747  0.8395 -2.4987  2.2257
 9004TIP3    H248428   6.044   0.460  11.646 -1.0105  0.4125 -1.5408
 9005TIP3   OH248429   1.613   3.200   4.091 -0.2511  0.5140  0.2075
 9005TIP3    H148430   1.581   3.127   4.037 -0.8807  1.0980 -0.2200
 9005TIP3    H248431   1.617   3.274   4.030 -1.1995  1.2409  1.0101
 9006TIP3   OH248432   2.481   3.897   1.131  0.1191 -0.1508 -0.0562
 9006TIP3    H148433   2.523   3.982   1.137 -1.0361  0.4319  0.1621
 9006TIP3    H248434   2.544   3.836   1.169  1.2452  0.4918 -0.8562
 9007TIP3   OH248435   3.066   6.706  14.780 -0.4201  0.2747  0.4643
 9007TIP3    H148436   3.000   6.772  14.801  0.9352  2.1733 -0.9892
 9007TIP3    H248437   3.131   6.714  14.849  1.0811  2.4149 -1.0916
 9008TIP3   OH248438   6.627   5.165  16.844 -0.0325  0.1882 -0.4552
 9008TIP3    H148439   6.629   5.256  16.815  0.2941  0.2115 -0.3626
 9008TIP3    H248440   6.695   5.122  16.793  0.4495  0.1980  0.1755
 9009TIP3   OH248441   6.217   4.491   2.875  0.2611  0.4236 -0.0767
 9009TIP3    H148442   6.239   4.400   2.854 -2.5983  0.0407 -1.9827
 9009TIP3    H248443   6.281   4.542   2.826  0.8013 -0.5572 -0.4327
 9010TIP3   OH248444   1.679   0.198  17.246 -0.2931  0.1016 -0.2978
 9010TIP3    H148445   1.590   0.227  17.226  0.1386  0.5974 -1.6220
 9010TIP3    H248446   1.731   0.228  17.171  1.1551  0.6256  0.8769
 9011TIP3   OH248447   6.675   0.462  13.786  0.0886 -0.5135 -0.2226
 9011TIP3    H148448   6.660   0.433  13.876 -1.4122 -0.3379 -0.3818
 9011TIP3    H248449   6.745   0.526  13.792  0.4787 -1.0065  0.7221
 9012TIP3   OH248450   6.676   3.244   5.516  0.2019  0.6868 -0.0262
 9012TIP3    H148451   6.684   3.335   5.543 -1.0140  0.5292  0.9497
 9012TIP3    H248452   6.592   3.239   5.470  1.0195  0.3791 -1.5809
 9013TIP3   OH248453   6.551   6.210  16.364  0.1765  0.0665  0.4778
 9013TIP3    H148454   6.509   6.190  16.448  0.5695  0.2353  0.7166
 9013TIP3    H248455   6.538   6.130  16.312 -0.9592  0.3310  0.3256
 9014TIP3   OH248456   2.157   0.348   1.931  0.2781  0.6637 -0.3894
 9014TIP3    H148457   2.135   0.329   1.840  1.1666  1.4629 -0.7888
 9014TIP3    H248458   2.189   0.438   1.930 -0.3153  0.9168  0.8334
 9015TIP3   OH248459   5.267   4.376  13.405  0.1917 -0.1605 -0.0167
 9015TIP3    H148460   5.292   4.418  13.323  0.3718 -0.5131 -0.1379
 9015TIP3    H248461   5.192   4.428  13.435  0.6548  0.4928  0.0292
 9016TIP3   OH248462   4.008   0.389  13.642 -0.1071  0.4411  0.1004
 9016TIP3    H148463   3.935   0.443  13.612  0.5958  1.4848  0.2318
 9016TIP3    H248464   4.078   0.451  13.662  0.7618 -0.5248  0.1614
 9017TIP3   OH248465   2.683   4.633  16.622  0.4754  0.4278 -0.3210
 9017TIP3    H148466   2.655   4.545  16.599  0.2753  0.1056  1.0907
 9017TIP3    H248467   2.613   4.690  16.590  0.3056  0.0247 -0.6723
 9018TIP3   OH248468   0.764   6.721   5.919 -0.1340  0.0117  0.2538
 9018TIP3    H148469   0.760   6.770   6.001 -0.2306 -1.5882  1.2489
 9018TIP3    H248470   0.772   6.789   5.851 -2.1690  1.5012  1.3776
 9019TIP3   OH248471   5.033   0.191  13.348  0.4217  0.5747 -0.0109
 9019TIP3    H148472   5.069   0.210  13.435  0.4705 -0.0470  0.1042
 9019TIP3    H248473   4.941   0.217  13.354  0.0463 -0.8400  0.6856
 9020TIP3   OH248474   4.889   1.331  13.895 -0.0683 -0.2082  0.8942
 9020TIP3    H148475   4.970   1.280  13.884  0.7585  0.3912  3.5271
 9020TIP3    H248476   4.839   1.314  13.814  1.5941 -2.5434  0.2428
 9021TIP3   OH248477   5.049   1.209   5.455 -0.0761 -0.5532 -0.7997
 9021TIP3    H148478   4.980   1.211   5.522  0.9483  0.7828  0.2618
 9021TIP3    H248479   5.008   1.248   5.377 -0.8604 -0.8559 -0.5488
 9022TIP3   OH248480   0.603   4.098   4.786  0.4454 -0.1227 -0.1052
 9022TIP3    H148481   0.630   4.083   4.696 -0.9550  1.1300 -0.7697
 9022TIP3    H248482   0.511   4.071   4.790 -0.1490  1.7995  0.3497
 9023TIP3   OH248483   1.434   1.761   2.299  0.8401 -0.1348 -0.1281
 9023TIP3    H148484   1.493   1.721   2.236  0.5688 -1.6130  0.5257
 9023TIP3    H248485   1.346   1.741   2.265  0.6824  0.9312 -0.4017
 9024TIP3   OH248486   1.287   6.257   5.037  0.1478 -0.6673  0.0026
 9024TIP3    H148487   1.308   6.164   5.047  0.3945 -0.6758 -0.5550
 9024TIP3    H248488   1.200   6.266   5.075  0.3321 -1.0253  0.5248
 9025TIP3   OH248489   5.247   3.867   1.988 -0.5292 -0.8149 -0.1625
 9025TIP3    H148490   5.282   3.847   2.075 -1.8038 -1.1134  0.3004
 9025TIP3    H248491   5.272   3.958   1.973  1.3264 -1.2970 -0.3124
 9026TIP3   OH248492   0.530   0.370  14.482  0.0829 -0.4159 -0.0138
 9026TIP3    H148493   0.468   0.416  14.538 -0.9557 -1.7423 -0.0281
 9026TIP3    H248494   0.486   0.366  14.397  0.1906 -1.3161 -0.0385
 9027TIP3   OH248495   0.715   4.581   3.907  0.1473  0.2442  0.1670
 9027TIP3    H148496   0.792   4.627   3.874  0.3485 -1.4535 -1.9913
 9027TIP3    H248497   0.716   4.595   4.001  2.8061  0.7093  0.1205
 9028TIP3   OH248498   2.636   6.480  15.291 -0.1538 -0.3946  0.5851
 9028TIP3    H148499   2.605   6.408  15.345 -2.4049 -1.0845 -1.4689
 9028TIP3    H248500   2.563   6.499  15.232  1.8471  0.8551 -1.6523
 9029TIP3   OH248501   0.986   3.784  15.820  0.4415  0.3962  0.0430
 9029TIP3    H148502   0.919   3.726  15.783  1.0349 -0.7538  0.7227
 9029TIP3    H248503   1.064   3.767  15.767  0.3372  1.4014 -0.4599
 9030TIP3   OH248504   6.330   6.003  16.885  0.2337  0.0837  0.0365
 9030TIP3    H148505   6.310   5.996  16.979  1.2698  0.7278  0.3214
 9030TIP3    H248506   6.395   6.072  16.880  1.1459 -0.8266 -1.0211
 9031TIP3   OH248507   1.583   4.426  16.492  0.4324  0.2839 -0.2532
 9031TIP3    H148508   1.588   4.511  16.535  0.1345  0.1263  0.1043
 9031TIP3    H248509   1.489   4.405  16.492  0.7062 -1.3420  2.2750
 9032TIP3   OH248510   0.643   0.358  12.494  0.2806 -0.6203 -0.4738
 9032TIP3    H148511   0.644   0.387  12.403  2.5656  1.7870  0.1710
 9032TIP3    H248512   0.578   0.414  12.537 -0.4874 -1.4611 -0.5137
 9033TIP3   OH248513   5.554   5.752  10.750  0.2029 -0.3353 -0.6622
 9033TIP3    H148514   5.509   5.770  10.832 -0.6494  0.8686 -1.3742
 9033TIP3    H248515   5.624   5.817  10.746  0.1349 -0.2820 -0.9790
 9034TIP3   OH248516   4.272   2.494   0.736 -0.5835 -0.4680 -0.1062
 9034TIP3    H148517   4.245   2.471   0.647  0.0446 -0.4168 -0.3153
 9034TIP3    H248518   4.365   2.471   0.739 -0.2439  0.8476  0.0825
 9035TIP3   OH248519   0.386   1.509  13.352 -0.4357 -0.2206 -0.7426
 9035TIP3    H148520   0.310   1.462  13.318  0.5113 -1.9926 -0.5506
 9035TIP3    H248521   0.440   1.441  13.393  1.0626  1.0311 -0.5366
 9036TIP3   OH248522   4.632   2.507   1.547 -0.2230 -0.3007 -0.0711
 9036TIP3    H148523   4.554   2.495   1.601  0.8090  0.2245  1.6358
 9036TIP3    H248524   4.693   2.439   1.577  1.6989  2.1521  2.0996
 9037TIP3   OH248525   1.791   0.386   4.914  0.7699 -1.0956  0.0708
 9037TIP3    H148526   1.830   0.335   4.985  1.3782 -2.1905 -1.0047
 9037TIP3    H248527   1.854   0.457   4.898 -0.2793  0.3097  1.8505
 9038TIP3   OH248528   2.895   4.195   5.182  0.6997  0.0025 -0.0757
 9038TIP3    H148529   2.833   4.160   5.245  0.5842 -0.4502 -0.4338
 9038TIP3    H248530   2.860   4.281   5.158  0.7916  0.2173  0.5307
 9039TIP3   OH248531   1.526   3.363  15.594 -0.2084  0.2573 -0.5165
 9039TIP3    H148532   1.474   3.425  15.645 -0.2434  0.4284 -0.7584
 9039TIP3    H248533   1.616   3.388  15.611 -0.2376  0.7929 -1.1314
 9040TIP3   OH248534   2.733   5.248  12.993  0.4191  0.1899  0.2265
 9040TIP3    H148535   2.673   5.321  12.979  1.8232  1.3658  0.0514
 9040TIP3    H248536   2.701   5.178  12.936 -0.7894  0.7651  0.1801
 9041TIP3   OH248537   0.082   3.834  16.468 -0.3234  0.1557  0.0316
 9041TIP3    H148538   0.072   3.838  16.373 -0.6622  2.3561  0.0979
 9041TIP3    H248539   0.037   3.753  16.494  0.7002 -1.0468 -1.7370
 9042TIP3   OH248540   2.132   4.755  17.215 -0.4809 -0.1423  0.0057
 9042TIP3    H148541   2.159   4.693  17.148 -0.7936 -1.6931  1.2558
 9042TIP3    H248542   2.124   4.838  17.169  1.1691 -0.7398 -1.4853
 9043TIP3   OH248543   4.399   5.685   2.275  0.2466  0.3128 -0.7154
 9043TIP3    H148544   4.487   5.694   2.311 -0.3484  1.2869  0.5476
 9043TIP3    H248545   4.402   5.732   2.192  1.1034 -0.2990 -1.0497
 9044TIP3   OH248546   4.523   2.391   3.996  0.7075  0.1376 -0.8057
 9044TIP3    H148547   4.599   2.443   3.970 -1.1181  3.2408 -0.3737
 9044TIP3    H248548   4.520   2.399   4.091 -0.2294  0.1795 -0.8332
 9045TIP3   OH248549   6.747   4.272   3.534  0.7131 -0.3982  0.2785
 9045TIP3    H148550   6.685   4.241   3.600 -0.3042  2.2949  0.7203
 9045TIP3    H248551   6.693   4.296   3.459  1.3302  0.7868  0.1851
 9046TIP3   OH248552   1.757   1.684   1.053 -0.5357 -0.1417 -0.0715
 9046TIP3    H148553   1.695   1.757   1.053  0.0651  0.3813  0.0694
 9046TIP3    H248554   1.714   1.615   1.103 -0.2775  0.8448  1.5981
 9047TIP3   OH248555   5.226   1.116  15.230 -0.5624 -0.6829 -0.2453
 9047TIP3    H148556   5.225   1.107  15.135 -0.5254 -0.7080 -0.2433
 9047TIP3    H248557   5.302   1.065  15.258 -1.2105 -1.6026 -0.1192
 9048TIP3   OH248558   1.512   5.981   1.216  0.0215  0.6226  0.4005
 9048TIP3    H148559   1.473   6.062   1.182 -0.0293  0.3003 -0.3256
 9048TIP3    H248560   1.440   5.938   1.263 -0.3991  0.2326 -0.5798
 9049TIP3   OH248561   0.058   1.683  10.422 -0.5640  0.0620  0.2335
 9049TIP3    H148562   0.121   1.648  10.484  0.1851  1.1269  0.0930
 9049TIP3    H248563   0.013   1.605  10.387  1.7627 -0.8733 -0.8679
 9050TIP3   OH248564   0.523   6.158   0.273 -0.6512  0.3961 -0.3550
 9050TIP3    H148565   0.439   6.166   0.229 -0.6758  1.8239 -0.0875
 9050TIP3    H248566   0.507   6.193   0.361  0.1898  0.5358 -0.2539
 9051TIP3   OH248567   2.050   0.329  15.232 -0.4609  0.9496 -0.0642
 9051TIP3    H148568   2.117   0.333  15.299  1.0248 -1.4127 -1.2704
 9051TIP3    H248569   2.034   0.235  15.219 -2.5218  1.3932 -1.2682
 9052TIP3   OH248570   2.708   5.132   3.768  0.2761  0.0394 -0.0045
 9052TIP3    H148571   2.798   5.099   3.761  0.5517  0.6118  0.7628
 9052TIP3    H248572   2.717   5.218   3.809 -0.7979 -0.9633  2.5235
 9053TIP3   OH248573   6.614   5.847   0.368 -0.2963  0.3880 -0.0467
 9053TIP3    H148574   6.572   5.764   0.344  2.4642 -1.3875  0.6790
 9053TIP3    H248575   6.584   5.863   0.458 -0.2235 -0.2941  0.1069
 9054TIP3   OH248576   5.888   3.106  12.585  0.4186 -0.5110 -0.8500
 9054TIP3    H148577   5.971   3.093  12.629 -0.2327 -2.9383 -0.1756
 9054TIP3    H248578   5.893   3.051  12.507 -1.0343 -1.9436 -0.0166
 9055TIP3   OH248579   2.676   0.249   1.990  0.3619  0.3849  0.4428
 9055TIP3    H148580   2.611   0.180   2.003  1.3620 -0.5824  0.5101
 9055TIP3    H248581   2.738   0.238   2.063  1.9747 -0.3706 -0.9555
 9056TIP3   OH248582   6.412   0.872  14.734 -0.5330  0.0952  0.1244
 9056TIP3    H148583   6.446   0.955  14.701 -1.0784  0.0362 -0.6193
 9056TIP3    H248584   6.319   0.888  14.750 -0.7392 -0.4839 -0.4361
 9057TIP3   OH248585   4.182   0.089   5.413 -0.0981  0.2598  0.0417
 9057TIP3    H148586   4.168  -0.003   5.391 -0.9557  0.5973 -0.8901
 9057TIP3    H248587   4.217   0.127   5.332 -2.4390  1.3437 -0.5289
 9058TIP3   OH248588   1.915   0.791   3.571 -0.6186 -0.0384 -0.1394
 9058TIP3    H148589   1.919   0.773   3.665  2.8107  0.5992 -0.0322
 9058TIP3    H248590   1.933   0.707   3.530 -1.1417 -0.1173 -0.2149
 9059TIP3   OH248591   6.219   1.239  13.930  0.0524 -0.0304 -0.0854
 9059TIP3    H148592   6.309   1.211  13.912 -0.3495 -0.6399 -1.3038
 9059TIP3    H248593   6.196   1.293  13.854 -0.5137  0.3569  0.3589
 9060TIP3   OH248594   5.870   0.619   5.962  0.2470 -0.6411 -0.1490
 9060TIP3    H148595   5.863   0.635   6.057 -1.3338  0.4093 -0.3926
 9060TIP3    H248596   5.780   0.604   5.934  0.7399 -1.3339 -1.4354
 9061TIP3   OH248597   3.445   3.124   4.476  0.5584  0.2571  0.3865
 9061TIP3    H148598   3.472   3.193   4.416 -2.5199  0.7653 -0.5893
 9061TIP3    H248599   3.407   3.171   4.550  0.9592 -0.4112  1.0253
 9062TIP3   OH248600   4.839   5.928   0.613  0.8017  0.2060 -0.4702
 9062TIP3    H148601   4.811   5.916   0.704 -0.4947  1.6658 -0.6356
 9062TIP3    H248602   4.802   5.852   0.567  2.7686 -1.3972  0.4092
 9063TIP3   OH248603   0.203   6.415  16.803  0.5589 -0.0544  0.1693
 9063TIP3    H148604   0.155   6.381  16.878  0.7300 -1.0042 -0.1272
 9063TIP3    H248605   0.280   6.456  16.841  0.8092 -0.8094  0.5083
 9064TIP3   OH248606   6.727   6.665   2.465  0.2821  0.0922  0.3781
 9064TIP3    H148607   6.779   6.585   2.454 -0.0651  0.0636 -1.4774
 9064TIP3    H248608   6.664   6.663   2.392 -2.0363  0.3654  2.2620
 9065TIP3   OH248609   3.565   6.085  16.593  0.2447  0.5370  0.2210
 9065TIP3    H148610   3.544   6.148  16.524  0.6324  0.2984 -0.1159
 9065TIP3    H248611   3.638   6.035  16.559 -1.8019 -2.0232 -0.7609
 9066TIP3   OH248612   1.945   1.978  16.275  0.1112 -0.1928 -0.2722
 9066TIP3    H148613   1.888   2.033  16.329 -0.1828 -0.4920 -0.2710
 9066TIP3    H248614   1.884   1.920  16.229  0.3357  0.2928 -1.1953
 9067TIP3   OH248615   1.335   3.268   1.347  0.0341  0.1492  0.2051
 9067TIP3    H148616   1.256   3.306   1.386  0.6813  1.3835  0.3714
 9067TIP3    H248617   1.312   3.177   1.330 -1.6494  0.6418 -0.3583
 9068TIP3   OH248618   5.551   2.026  14.281  0.8541  0.2045 -0.3079
 9068TIP3    H148619   5.573   2.076  14.360  2.0324  1.0651 -1.1360
 9068TIP3    H248620   5.488   2.081  14.235 -0.0578 -0.4336  0.1580
 9069TIP3   OH248621   2.282   3.310  13.980 -0.4431  0.1880 -0.1503
 9069TIP3    H148622   2.284   3.377  13.912  0.6822 -0.7304 -1.0608
 9069TIP3    H248623   2.189   3.296  13.998 -0.7015  2.0076  0.1049
 9070TIP3   OH248624   2.895   2.070   1.736  0.1609  0.4813 -0.1395
 9070TIP3    H148625   2.833   2.034   1.800  0.0024  0.4241 -0.3270
 9070TIP3    H248626   2.866   2.036   1.652  1.6944 -1.3172 -0.0274
 9071TIP3   OH248627   5.356   0.634  15.811  0.5569 -0.4152  0.1565
 9071TIP3    H148628   5.441   0.641  15.855  0.8563 -1.3835 -0.2431
 9071TIP3    H248629   5.292   0.622  15.881  1.0546 -2.2011  0.3589
 9072TIP3   OH248630   6.105   6.497   2.047 -0.2068  0.0096  0.6297
 9072TIP3    H148631   6.135   6.495   2.138 -1.3768 -0.3006  1.0246
 9072TIP3    H248632   6.010   6.482   2.052 -0.2440 -0.3341 -0.6622
 9073TIP3   OH248633   1.477   5.079   6.292 -0.1048  0.0803 -0.1538
 9073TIP3    H148634   1.417   5.004   6.287  1.1438 -0.9396 -0.4835
 9073TIP3    H248635   1.537   5.057   6.363  3.0424 -1.4439 -3.0101
 9074TIP3   OH248636   2.995   3.299   2.899 -0.2576  0.3224  0.6769
 9074TIP3    H148637   3.033   3.270   2.982  0.1398 -0.8123  0.1139
 9074TIP3    H248638   2.959   3.386   2.919 -0.7712 -0.2025  2.2087
 9075TIP3   OH248639   4.528   5.292   5.519 -0.0731  0.3963 -0.0110
 9075TIP3    H148640   4.572   5.375   5.537 -2.1991  1.6136 -0.1602
 9075TIP3    H248641   4.545   5.276   5.426  1.1411  0.1149  0.2301
 9076TIP3   OH248642   1.415   3.111  15.560  0.1430 -0.0205  0.0772
 9076TIP3    H148643   1.467   3.191  15.570  0.4948 -0.1640 -0.5907
 9076TIP3    H248644   1.433   3.081  15.471  1.2092 -1.6902  0.8135
 9077TIP3   OH248645   5.576   3.925  16.943  0.4129 -0.2273  0.4739
 9077TIP3    H148646   5.549   3.900  16.854  0.9214  0.8648  0.0048
 9077TIP3    H248647   5.649   3.866  16.963  0.0294 -0.7551  0.3337
 9078TIP3   OH248648   3.516   0.127   3.683 -0.3209  0.6068  0.6851
 9078TIP3    H148649   3.456   0.120   3.757 -0.2882 -0.2981  0.6409
 9078TIP3    H248650   3.565   0.044   3.684  1.3259  1.5399  1.0574
 9079TIP3   OH248651   6.331   1.464  17.065 -0.2508  0.3245 -0.0734
 9079TIP3    H148652   6.387   1.541  17.081 -0.7198  0.1840  2.9316
 9079TIP3    H248653   6.252   1.482  17.116 -1.3264 -1.1934 -1.1299
 9080TIP3   OH248654   4.364   5.053   6.357  0.9275 -0.3441  0.0937
 9080TIP3    H148655   4.355   4.973   6.408 -1.4677 -0.7457 -0.8150
 9080TIP3    H248656   4.336   5.123   6.417  0.0332 -0.5767 -0.0419
 9081TIP3   OH248657   3.433   6.471   4.850 -0.6135  0.1066  0.1038
 9081TIP3    H148658   3.453   6.393   4.902 -0.0496 -0.6774 -1.2343
 9081TIP3    H248659   3.408   6.537   4.915  0.8045 -0.5792  1.4227
 9082TIP3   OH248660   4.882   1.985   0.125  0.2471  0.3278 -0.2800
 9082TIP3    H148661   4.914   1.967   0.037  1.3532 -1.1782  0.3751
 9082TIP3    H248662   4.961   2.007   0.175 -0.2417  0.2910  0.5291
 9083TIP3   OH248663   4.793   5.136  15.242 -0.4462 -0.2138 -0.0908
 9083TIP3    H148664   4.698   5.140  15.254 -0.2755  0.4946  1.2691
 9083TIP3    H248665   4.827   5.198  15.307  0.9405 -0.4054 -0.6187
 9084TIP3   OH248666   6.047   2.190   2.936  0.6613  0.2817  0.2943
 9084TIP3    H148667   6.033   2.275   2.978  2.5127  0.5491  0.4508
 9084TIP3    H248668   6.021   2.126   3.003 -1.9621  0.6435 -0.2553
 9085TIP3   OH248669   2.576   3.409  12.758  0.3802 -0.2832  0.0779
 9085TIP3    H148670   2.535   3.493  12.737  1.0751 -0.0009 -0.2104
 9085TIP3    H248671   2.525   3.344  12.709  1.5107  0.2877 -1.9786
 9086TIP3   OH248672   5.187   6.681  14.362  0.2490  0.0795  0.0393
 9086TIP3    H148673   5.269   6.665  14.409 -1.4571 -2.3654  2.4536
 9086TIP3    H248674   5.118   6.669  14.427 -2.2220 -1.6861 -2.6238
 9087TIP3   OH248675   0.255   0.587   4.051  0.0940  0.4330 -0.5588
 9087TIP3    H148676   0.288   0.572   4.140  0.7962  1.4623 -0.6301
 9087TIP3    H248677   0.334   0.602   3.999 -0.1705 -1.8033 -1.7196
 9088TIP3   OH248678   5.178   4.412   4.829  0.4029  0.0153 -0.2587
 9088TIP3    H148679   5.175   4.453   4.916 -1.2582 -3.1326  1.3280
 9088TIP3    H248680   5.091   4.427   4.793  0.4366 -0.3975 -0.5131
 9089TIP3   OH248681   0.798   3.526   3.259  0.2626  0.0338  0.3541
 9089TIP3    H148682   0.781   3.485   3.344  1.5895  1.4357  1.3643
 9089TIP3    H248683   0.829   3.614   3.281  0.2527  0.5795 -1.6118
 9090TIP3   OH248684   4.454   4.833   2.650 -0.1664  0.4705  0.0041
 9090TIP3    H148685   4.509   4.825   2.573 -0.6231 -3.4780 -0.1034
 9090TIP3    H248686   4.365   4.820   2.617 -0.3087 -2.0837  1.1396
 9091TIP3   OH248687   0.291   3.874   3.365  0.3631 -0.7484 -0.6208
 9091TIP3    H148688   0.205   3.834   3.353 -0.3066  0.7830 -1.1371
 9091TIP3    H248689   0.326   3.833   3.444 -1.4581 -0.3307  0.4426
 9092TIP3   OH248690   1.986   1.350   0.685  0.3032 -0.3749 -0.2204
 9092TIP3    H148691   1.948   1.411   0.748  0.2940 -1.4696  0.8569
 9092TIP3    H248692   1.920   1.280   0.676  1.3695 -1.5115  0.4993
 9093TIP3   OH248693   3.629   3.691  14.784 -0.3510  0.5749  0.1874
 9093TIP3    H148694   3.582   3.774  14.785 -1.7113 -0.1047 -1.3804
 9093TIP3    H248695   3.678   3.692  14.701  0.2212  0.1219  0.5090
 9094TIP3   OH248696   0.160   6.671   0.298  0.4855 -0.1753  0.0647
 9094TIP3    H148697   0.120   6.584   0.296  0.3926 -0.2241  2.1444
 9094TIP3    H248698   0.253   6.654   0.288  0.2399 -0.1692 -3.3177
 9095TIP3   OH248699   5.031   1.792  11.023 -0.2203  0.0607 -0.0785
 9095TIP3    H148700   4.957   1.795  10.962  0.7278  0.6744 -1.2310
 9095TIP3    H248701   5.094   1.734  10.980 -0.6755 -1.8489  1.6779
 9096TIP3   OH248702   3.874   3.905   6.269  0.0092  1.4980 -0.0050
 9096TIP3    H148703   3.829   3.861   6.342  0.7413  1.1696  0.2685
 9096TIP3    H248704   3.811   3.968   6.236 -0.9104  0.5607 -0.0980
 9097TIP3   OH248705   5.315   1.843  14.633 -0.6834 -0.2192 -0.1330
 9097TIP3    H148706   5.326   1.872  14.542  1.3929 -2.0480 -0.5434
 9097TIP3    H248707   5.391   1.879  14.679 -1.2752 -0.0140  0.7193
 9098TIP3   OH248708   2.209   6.220   3.912  0.4509 -0.5832  0.3500
 9098TIP3    H148709   2.171   6.154   3.854  0.2535  0.0109 -0.2054
 9098TIP3    H248710   2.141   6.236   3.977  0.4672 -0.8600  0.4387
 9099TIP3   OH248711   0.517   6.606  14.157 -0.4495  0.0823 -0.0549
 9099TIP3    H148712   0.509   6.511  14.145  0.3359  0.2139 -1.8502
 9099TIP3    H248713   0.534   6.640  14.070 -2.4919  2.1107  0.2533
 9100TIP3   OH248714   1.984   4.043   1.736 -0.3293  0.7768  0.1378
 9100TIP3    H148715   2.021   3.954   1.736 -0.7494  0.5866 -0.6911
 9100TIP3    H248716   1.907   4.036   1.793  0.7517  1.1257  1.7070
 9101TIP3   OH248717   1.070   1.571   3.239 -0.9518 -0.1167  0.0309
 9101TIP3    H148718   1.028   1.640   3.187  1.2662  2.6201  1.5775
 9101TIP3    H248719   1.014   1.562   3.316 -1.2122  0.0106 -0.1409
 9102TIP3   OH248720   6.686   0.272  16.604 -0.5760 -0.1638  0.3314
 9102TIP3    H148721   6.591   0.265  16.588 -0.6476 -0.3077  0.7875
 9102TIP3    H248722   6.705   0.199  16.664 -0.2503  0.1083  0.5629
 9103TIP3   OH248723   0.114   1.915  12.353  0.4517  0.5132  0.2485
 9103TIP3    H148724   0.045   1.925  12.287 -1.0864  0.6839  1.8167
 9103TIP3    H248725   0.108   1.994  12.406  1.8352  0.4917  0.4919
 9104TIP3   OH248726   4.380   4.908  12.070 -0.6809 -0.2664 -0.2140
 9104TIP3    H148727   4.333   4.984  12.105 -0.6949 -0.2790 -0.2051
 9104TIP3    H248728   4.339   4.891  11.985 -1.3130 -0.8529  0.2015
 9105TIP3   OH248729   6.576   6.321  17.122  0.3077  0.0572 -0.1967
 9105TIP3    H148730   6.564   6.361  17.036 -1.7457  0.8890  0.4339
 9105TIP3    H248731   6.509   6.253  17.127  0.7519 -0.3411  0.5508
 9106TIP3   OH248732   2.044   5.491  13.967  0.1718 -0.1747  0.2130
 9106TIP3    H148733   2.112   5.464  13.906 -2.0022 -0.7385 -2.1486
 9106TIP3    H248734   2.011   5.408  14.003 -0.3145 -0.0440  0.0818
 9107TIP3   OH248735   5.331   0.854  15.385 -0.0619 -0.1783  0.4163
 9107TIP3    H148736   5.333   0.782  15.321 -2.6697 -2.0648  2.2525
 9107TIP3    H248737   5.299   0.814  15.465  3.0598  2.0813  3.0635
 9108TIP3   OH248738   2.587   4.531  13.454 -0.5148 -0.2132  0.5945
 9108TIP3    H148739   2.599   4.454  13.509 -0.2861 -0.4711  0.1870
 9108TIP3    H248740   2.649   4.595  13.489 -0.5003 -0.3107  0.7504
 9109TIP3   OH248741   3.314   6.634   0.831 -0.0756  0.0750  0.1975
 9109TIP3    H148742   3.269   6.684   0.899 -0.1460  0.8769 -0.4131
 9109TIP3    H248743   3.402   6.621   0.865  0.5292  2.2675 -0.3888
 9110TIP3   OH248744   2.438   3.256  11.308  0.3424  0.9303 -0.0020
 9110TIP3    H148745   2.450   3.197  11.233 -0.1536  1.4100 -0.4659
 9110TIP3    H248746   2.452   3.200  11.384 -2.9667 -0.5270 -0.3176
 9111TIP3   OH248747   1.775   6.243   1.131 -0.0654 -0.4016 -0.1136
 9111TIP3    H148748   1.741   6.321   1.174  0.2512 -0.4966  0.3150
 9111TIP3    H248749   1.782   6.178   1.201 -0.8138 -0.9802 -0.5604
 9112TIP3   OH248750   4.324   0.528  13.876 -0.5087  0.4090 -0.4296
 9112TIP3    H148751   4.370   0.605  13.909 -0.7155  0.1380  0.5220
 9112TIP3    H248752   4.391   0.477  13.830  0.0353  0.2679  0.5090
 9113TIP3   OH248753   1.414   0.898  14.755 -0.4575  0.2904  0.2063
 9113TIP3    H148754   1.442   0.859  14.671 -0.6139 -1.4842  0.9345
 9113TIP3    H248755   1.389   0.988  14.732  0.8001  0.2852 -1.4039
 9114TIP3   OH248756   0.928   5.308   2.699 -1.0828 -0.8077  0.0914
 9114TIP3    H148757   0.864   5.318   2.628 -0.2323  1.2406 -0.4763
 9114TIP3    H248758   1.013   5.323   2.657 -0.3023 -2.4342  1.0305
 9115TIP3   OH248759   4.617   0.383  11.916  0.2702  0.3353  0.5789
 9115TIP3    H148760   4.597   0.302  11.963  1.0974  0.2705  0.8455
 9115TIP3    H248761   4.587   0.453  11.973 -1.1657  0.2193  0.0017
 9116TIP3   OH248762   3.040   5.179   1.110 -0.4893  0.1816  0.2329
 9116TIP3    H148763   3.016   5.086   1.113 -2.1009  0.4818 -1.3078
 9116TIP3    H248764   3.115   5.182   1.051 -0.1275 -0.1968  0.6725
 9117TIP3   OH248765   3.945   1.890  12.181 -0.5070  0.0457  0.2225
 9117TIP3    H148766   4.014   1.945  12.145 -1.3954  1.0395 -0.0150
 9117TIP3    H248767   3.990   1.811  12.211  0.5915  0.2735 -0.7597
 9118TIP3   OH248768   0.260   4.018  14.916 -0.0628  0.3047 -0.1414
 9118TIP3    H148769   0.217   3.997  14.834 -1.4247 -1.4584  0.9447
 9118TIP3    H248770   0.354   4.019  14.894 -0.4504  1.1218 -1.9205
 9119TIP3   OH248771   0.373   1.183  16.724 -0.0792  0.1175 -0.7208
 9119TIP3    H148772   0.403   1.267  16.760 -0.9296 -0.8332  2.5602
 9119TIP3    H248773   0.449   1.125  16.732 -0.3179 -0.1417 -0.3318
 9120TIP3   OH248774   3.220   6.635  11.276  0.5293  0.2204  0.4771
 9120TIP3    H148775   3.137   6.630  11.324  0.8399  3.0000  1.4780
 9120TIP3    H248776   3.197   6.613  11.186 -0.9540 -0.6694  1.0295
 9121TIP3   OH248777   6.268   1.521  12.598  0.1221  0.1215 -0.0370
 9121TIP3    H148778   6.291   1.536  12.690  0.2519 -0.6618  0.0678
 9121TIP3    H248779   6.318   1.586  12.549  0.7237 -0.0218  0.3810
 9122TIP3   OH248780   3.779   5.598   5.858 -0.5314 -0.2134  0.2122
 9122TIP3    H148781   3.789   5.643   5.942  3.3158 -0.5876  0.1317
 9122TIP3    H248782   3.766   5.506   5.882 -1.7275 -0.0248  0.3511
 9123TIP3   OH248783   3.875   0.344  13.087  0.6824 -0.8197  0.0149
 9123TIP3    H148784   3.912   0.355  13.174  0.9653  1.1012 -0.2956
 9123TIP3    H248785   3.949   0.360  13.027  0.2756 -1.1342 -0.5863
 9124TIP3   OH248786   4.185   4.166  14.658  0.4568  0.1023  0.5133
 9124TIP3    H148787   4.141   4.190  14.576 -1.2398 -0.1298  1.3040
 9124TIP3    H248788   4.250   4.101  14.632 -0.1377 -0.0645 -0.6433
 9125TIP3   OH248789   4.767   5.327  14.067 -0.0496 -0.1415 -0.3195
 9125TIP3    H148790   4.844   5.363  14.024  0.2051 -0.1017  0.1607
 9125TIP3    H248791   4.756   5.382  14.145 -0.4389 -0.2816 -0.2720
 9126TIP3   OH248792   3.893   6.081   3.631  0.3352 -0.1478  0.1935
 9126TIP3    H148793   3.975   6.040   3.662 -0.2093 -1.0445  0.4940
 9126TIP3    H248794   3.825   6.017   3.652 -0.4816  0.6797  0.1381
 9127TIP3   OH248795   1.078   5.120   2.330 -0.2488 -0.5156 -0.2299
 9127TIP3    H148796   1.097   5.133   2.423  0.9308  0.6100 -0.6074
 9127TIP3    H248797   1.155   5.075   2.295 -1.2026 -2.0573 -0.4507
 9128TIP3   OH248798   2.817   3.871  15.962  0.3905 -0.5482  0.2040
 9128TIP3    H148799   2.793   3.833  16.047 -1.7361  2.1963  0.9685
 9128TIP3    H248800   2.733   3.887  15.919  1.1865  2.0752 -0.5285
 9129TIP3   OH248801   5.244   6.148   1.754 -0.1758 -0.4895  0.7104
 9129TIP3    H148802   5.305   6.134   1.826 -0.2284 -0.4857  0.7558
 9129TIP3    H248803   5.160   6.114   1.786 -0.6592  1.2234  1.3767
 9130TIP3   OH248804   6.324   5.440  13.376 -0.0785  0.2130  0.3672
 9130TIP3    H148805   6.396   5.476  13.324  0.5911  0.0372  1.1494
 9130TIP3    H248806   6.364   5.368  13.426 -1.3023 -1.4262 -0.9007
 9131TIP3   OH248807   6.356   4.084  13.260 -0.5663 -0.0301  0.5926
 9131TIP3    H148808   6.328   4.133  13.338 -2.1764 -0.6314  0.4291
 9131TIP3    H248809   6.346   4.146  13.188  1.8710  0.8566  0.9115
 9132TIP3   OH248810   0.170   6.311   3.283 -0.4068 -0.7290 -0.0264
 9132TIP3    H148811   0.085   6.269   3.293 -0.9800  0.7477  1.9671
 9132TIP3    H248812   0.234   6.243   3.302 -1.1543 -1.6202 -0.6270
 9133TIP3   OH248813   1.751   5.798  12.860  0.4090  0.2782  0.2418
 9133TIP3    H148814   1.722   5.727  12.803 -0.1274  0.2460  0.5459
 9133TIP3    H248815   1.842   5.777  12.881  0.1085 -0.5787  0.7202
 9134TIP3   OH248816   3.722   2.967  17.201  0.2626 -0.4191  0.0677
 9134TIP3    H148817   3.762   2.886  17.234  1.9402  0.5389  0.5028
 9134TIP3    H248818   3.795   3.016  17.164 -0.8780  0.5294 -0.9958
 9135TIP3   OH248819   4.395   0.850   1.786  0.1335  0.2498  0.1768
 9135TIP3    H148820   4.308   0.890   1.794  0.3109  0.4941  1.0471
 9135TIP3    H248821   4.381   0.770   1.736 -0.7342 -0.1157  0.9761
 9136TIP3   OH248822   1.290   2.354  14.379  0.2548 -0.3799  0.1864
 9136TIP3    H148823   1.271   2.437  14.422  0.9486  0.1851 -0.5411
 9136TIP3    H248824   1.303   2.291  14.450  0.3660  0.2896  0.7620
 9137TIP3   OH248825   6.143   2.736  15.333  0.3434 -0.1155 -0.0234
 9137TIP3    H148826   6.214   2.780  15.286  1.1095 -1.5142 -0.2291
 9137TIP3    H248827   6.072   2.801  15.335  1.9228  1.6958  1.0643
 9138TIP3   OH248828   1.672   4.016   4.497  0.2579 -0.0750 -0.1155
 9138TIP3    H148829   1.703   3.998   4.586 -0.3746  2.1252  0.6249
 9138TIP3    H248830   1.713   3.949   4.443 -2.3248 -4.0347  2.2743
 9139TIP3   OH248831   2.871   5.165   0.137 -0.2021  0.5092 -0.7891
 9139TIP3    H148832   2.841   5.211   0.059 -0.5025  1.8025  0.0470
 9139TIP3    H248833   2.897   5.078   0.106 -4.2988 -0.6079 -1.7190
 9140TIP3   OH248834   5.373   0.572   5.989  0.1980 -0.1135  0.1202
 9140TIP3    H148835   5.372   0.545   6.081 -1.9463  0.2547  0.2614
 9140TIP3    H248836   5.312   0.646   5.985 -0.7094 -0.8949 -1.8052
 9141TIP3   OH248837   1.820   1.692  14.004  0.2574  0.4658  0.2563
 9141TIP3    H148838   1.894   1.711  13.947 -1.5345 -1.3236 -2.9829
 9141TIP3    H248839   1.751   1.753  13.976 -0.2151  0.5926  1.6199
 9142TIP3   OH248840   3.072   5.891  17.016 -0.3857  0.6818  0.0220
 9142TIP3    H148841   3.111   5.957  17.072  2.4429 -1.5341  0.8989
 9142TIP3    H248842   3.128   5.887  16.939 -0.9411 -0.1763 -0.3610
 9143TIP3   OH248843   0.302   3.471  14.104  0.4102 -0.2550  0.0232
 9143TIP3    H148844   0.289   3.500  14.194 -1.2102  0.4187 -0.3798
 9143TIP3    H248845   0.306   3.375  14.109 -0.3817 -0.2589  0.7496
 9144TIP3   OH248846   0.247   2.882  13.022 -0.0581 -0.0740 -0.2402
 9144TIP3    H148847   0.268   2.865  12.931 -0.8799  0.8316 -0.6215
 9144TIP3    H248848   0.164   2.931  13.019  0.0882  0.2960  0.9644
 9145TIP3   OH248849   1.215   5.868  15.492  0.5035 -0.0178 -0.1442
 9145TIP3    H148850   1.210   5.774  15.471  0.6423 -0.2802  0.9428
 9145TIP3    H248851   1.138   5.906  15.451  0.6659 -0.5351 -0.9517
 9146TIP3   OH248852   2.114   4.504   3.273 -0.3968 -0.0372  0.1846
 9146TIP3    H148853   2.194   4.484   3.322 -1.1343 -0.0623  1.4210
 9146TIP3    H248854   2.088   4.591   3.303 -0.4865  0.2574 -0.7097
 9147TIP3   OH248855   6.154   1.793   0.231  0.6892  0.0496 -0.2123
 9147TIP3    H148856   6.085   1.745   0.277  0.1657  0.5432 -0.4744
 9147TIP3    H248857   6.201   1.726   0.182  0.6914 -0.3544  0.3345
 9148TIP3   OH248858   3.136   2.895  14.505 -0.3341  0.2725  0.2941
 9148TIP3    H148859   3.082   2.836  14.452  0.9813 -1.3826  0.7331
 9148TIP3    H248860   3.225   2.879  14.476  0.3148  0.1238  2.2140
 9149TIP3   OH248861   5.926   5.866   2.518  0.6446 -0.2359  0.4959
 9149TIP3    H148862   6.009   5.898   2.554  1.2619  0.1116 -1.1363
 9149TIP3    H248863   5.873   5.945   2.506  1.4933  0.0573 -1.8541
 9150TIP3   OH248864   5.631   5.108   4.232 -0.3245 -0.2237  0.5017
 9150TIP3    H148865   5.722   5.132   4.215 -0.3878 -0.0211  0.4364
 9150TIP3    H248866   5.635   5.023   4.275 -0.1638 -0.8045 -0.6260
 9151TIP3   OH248867   1.265   1.226  12.593  0.2969  0.0222 -0.0388
 9151TIP3    H148868   1.309   1.287  12.652  2.0913  0.1070 -1.3764
 9151TIP3    H248869   1.263   1.271  12.509  1.5986 -1.6834 -1.0411
 9152TIP3   OH248870   2.458   6.528   5.683  0.8577  0.3910  0.4008
 9152TIP3    H148871   2.497   6.474   5.614  0.3986 -1.2763  1.3758
 9152TIP3    H248872   2.378   6.563   5.643  1.2936  0.5582 -0.3383
 9153TIP3   OH248873   1.529   5.601   1.706  0.0475 -0.3872  0.1561
 9153TIP3    H148874   1.517   5.513   1.741 -0.3811 -0.5130 -0.3052
 9153TIP3    H248875   1.471   5.605   1.630  0.4038  0.1413 -0.0916
 9154TIP3   OH248876   4.458   0.830  13.213  0.0022 -0.0144 -0.3050
 9154TIP3    H148877   4.532   0.863  13.264 -0.4360 -0.2044  0.4716
 9154TIP3    H248878   4.498   0.772  13.149  0.4089 -1.6579  1.3427
 9155TIP3   OH248879   3.971   2.615   4.843 -0.0436 -0.4617  0.3063
 9155TIP3    H148880   4.066   2.615   4.853 -0.0405 -0.0221  0.2626
 9155TIP3    H248881   3.956   2.574   4.758  0.0904 -0.8046  0.4438
 9156TIP3   OH248882   5.593   2.804  17.061 -0.1410 -0.1482 -0.4436
 9156TIP3    H148883   5.651   2.774  17.130 -0.3998 -0.4885 -0.3734
 9156TIP3    H248884   5.508   2.765  17.082 -0.5668  0.8649 -0.1729
 9157TIP3   OH248885   5.353   6.166  14.334 -0.1487 -0.3338  0.0011
 9157TIP3    H148886   5.295   6.224  14.284  1.6529 -0.8476 -2.9286
 9157TIP3    H248887   5.434   6.217  14.345  0.1824 -0.9789  0.6266
 9158TIP3   OH248888   4.036   1.820   4.050 -0.3824 -0.2815  0.1896
 9158TIP3    H148889   4.097   1.893   4.044  0.5924 -0.9775  1.2962
 9158TIP3    H248890   4.024   1.806   4.143 -2.2030 -0.2203  0.0038
 9159TIP3   OH248891   2.937   5.182  16.017  0.2968 -0.4825  0.0113
 9159TIP3    H148892   2.888   5.249  15.969 -2.0966 -0.2293  2.5721
 9159TIP3    H248893   3.007   5.156  15.957  0.1969  2.9327 -1.8132
 9160TIP3   OH248894   3.057   4.698  11.815 -0.3196  0.0106 -0.2679
 9160TIP3    H148895   3.014   4.615  11.793 -2.3035  1.5375 -2.7205
 9160TIP3    H248896   3.146   4.688  11.782  0.0113 -1.6790  0.9861
 9161TIP3   OH248897   1.293   0.549  15.119 -0.0172 -0.1731  0.0108
 9161TIP3    H148898   1.303   0.460  15.154 -1.1782 -1.2773 -2.2766
 9161TIP3    H248899   1.362   0.557  15.054 -0.8193  0.0367 -0.8272
 9162TIP3   OH248900   0.235   6.690  15.884  0.7499 -0.3684  0.4332
 9162TIP3    H148901   0.181   6.616  15.914  1.1042 -1.3838 -1.2811
 9162TIP3    H248902   0.256   6.668  15.794  1.9135  1.2626  0.2784
 9163TIP3   OH248903   1.606   2.209   3.775 -0.1403  0.2382 -0.1152
 9163TIP3    H148904   1.511   2.214   3.776 -0.1145  1.0378 -0.7413
 9163TIP3    H248905   1.633   2.276   3.712  0.8239 -0.1454 -0.1292
 9164TIP3   OH248906   1.101   2.524   1.272 -0.5159  0.2760  0.0114
 9164TIP3    H148907   1.131   2.584   1.204  1.4560 -0.3975  0.2500
 9164TIP3    H248908   1.053   2.456   1.224 -0.8056  0.8246 -0.4919
 9165TIP3   OH248909   0.198   0.541   0.137  0.1855  0.0944  0.2005
 9165TIP3    H148910   0.184   0.595   0.215  1.0871 -0.3445  0.6799
 9165TIP3    H248911   0.195   0.451   0.170  1.9247 -0.0648 -0.0270
 9166TIP3   OH248912   1.641   0.039   1.305  0.0955  0.1858  0.2845
 9166TIP3    H148913   1.702  -0.016   1.256 -1.5540 -1.5743  0.0821
 9166TIP3    H248914   1.581   0.073   1.239 -0.0328  0.6823  0.6551
 9167TIP3   OH248915   4.394   6.022   1.819 -0.6468  0.0405  0.7136
 9167TIP3    H148916   4.317   6.035   1.764 -1.0819 -4.4422 -0.0918
 9167TIP3    H248917   4.468   6.045   1.763 -1.2359 -1.2535 -0.6769
 9168TIP3   OH248918   6.129   3.613   4.838 -0.1345  0.2618 -0.1610
 9168TIP3    H148919   6.202   3.620   4.900 -1.0645  0.6134  0.9325
 9168TIP3    H248920   6.125   3.521   4.815 -0.4013 -0.0584  1.1140
 9169TIP3   OH248921   6.665   6.705   4.732 -0.3038 -0.4884  0.0909
 9169TIP3    H148922   6.700   6.787   4.766  1.1819 -1.5216  1.1700
 9169TIP3    H248923   6.685   6.640   4.799  1.3698 -2.3356 -2.0525
 9170TIP3   OH248924   4.804   3.912   1.437 -0.5382  0.0236 -0.6921
 9170TIP3    H148925   4.740   3.939   1.502  0.9296 -1.9340  1.7518
 9170TIP3    H248926   4.779   3.823   1.413 -1.3152  0.8423 -3.3011
 9171TIP3   OH248927   4.719   3.982   4.009 -0.1886  0.4737  0.2021
 9171TIP3    H148928   4.625   4.002   4.004 -0.3584 -0.5821 -1.6580
 9171TIP3    H248929   4.762   4.060   3.976 -0.3673  1.0155  1.1921
 9172TIP3   OH248930   5.375   1.087  13.208 -0.3161  0.4997  0.2755
 9172TIP3    H148931   5.371   1.066  13.115  0.5468 -0.8410  0.5079
 9172TIP3    H248932   5.326   1.169  13.217 -1.1886  0.1795 -1.2088
 9173TIP3   OH248933   4.213   4.594  12.422 -0.1466  0.1090  0.2758
 9173TIP3    H148934   4.154   4.569  12.350 -0.5846  1.2690  0.2050
 9173TIP3    H248935   4.297   4.557  12.398 -0.2032  0.7434 -1.0266
 9174TIP3   OH248936   5.765   1.832   1.497 -0.4690  0.1796 -0.1044
 9174TIP3    H148937   5.711   1.775   1.553 -0.1765  0.3421  0.3472
 9174TIP3    H248938   5.810   1.772   1.438  1.3470 -0.2800  1.6359
 9175TIP3   OH248939   0.159   4.699  11.403  0.6923  0.9603 -0.0263
 9175TIP3    H148940   0.100   4.650  11.460 -1.1480  0.5896 -2.0773
 9175TIP3    H248941   0.151   4.655  11.318  1.5797  2.7891 -1.1150
 9176TIP3   OH248942   0.589   4.962   5.783 -0.2419 -1.4623 -0.4102
 9176TIP3    H148943   0.502   4.936   5.754 -0.7496 -0.4925  0.1559
 9176TIP3    H248944   0.573   5.012   5.863  0.4926  1.6712 -2.0450
 9177TIP3   OH248945   3.962   1.558   5.734 -0.0194  0.1805 -0.4270
 9177TIP3    H148946   3.981   1.464   5.741  0.1862  0.1290 -1.5675
 9177TIP3    H248947   4.048   1.599   5.726 -0.0215  0.6082  1.2172
 9178TIP3   OH248948   5.611   3.884   1.399  0.3922  0.1780  0.3196
 9178TIP3    H148949   5.658   3.959   1.435  2.0513 -1.0742  0.8687
 9178TIP3    H248950   5.537   3.871   1.458 -2.6305  3.9604 -2.1082
 9179TIP3   OH248951   3.196   5.430  10.650  0.1361  0.0919 -0.3237
 9179TIP3    H148952   3.208   5.407  10.558  0.5192 -0.4074 -0.1577
 9179TIP3    H248953   3.238   5.516  10.660  3.2050 -1.3001  0.0961
 9180TIP3   OH248954   6.295   5.521  12.198  0.0914 -0.0864 -0.0033
 9180TIP3    H148955   6.231   5.586  12.226  0.8082  1.8247 -2.5043
 9180TIP3    H248956   6.351   5.509  12.275 -1.1477  0.8524  1.0934
 9181TIP3   OH248957   1.134   4.365   4.740 -0.1169 -0.3950 -0.2850
 9181TIP3    H148958   1.138   4.330   4.651 -1.9995  0.3405 -0.7013
 9181TIP3    H248959   1.096   4.294   4.791  0.4941 -0.6365 -0.1609
 9182TIP3   OH248960   6.207   6.561   6.120 -0.1720 -0.5597 -0.3264
 9182TIP3    H148961   6.235   6.516   6.040  3.5817 -1.0966  1.0809
 9182TIP3    H248962   6.179   6.490   6.179 -0.7378 -0.3786 -0.3714
 9183TIP3   OH248963   5.401   3.179   2.486  0.1770 -0.2205 -0.6369
 9183TIP3    H148964   5.390   3.106   2.548  0.0493  0.6610  0.4124
 9183TIP3    H248965   5.312   3.208   2.468  0.2622  1.6483  1.4282
 9184TIP3   OH248966   1.929   2.343   5.163  0.7816  0.4855 -0.2802
 9184TIP3    H148967   1.930   2.331   5.258 -0.8021 -0.0801 -0.3189
 9184TIP3    H248968   1.969   2.263   5.128  1.1628  0.5987 -0.1098
 9185TIP3   OH248969   2.259   5.934  12.208  0.5513 -0.3887  0.2315
 9185TIP3    H148970   2.336   5.990  12.194  0.2791 -0.0827 -0.0642
 9185TIP3    H248971   2.186   5.995  12.216  0.3114 -0.6848  0.3309
 9186TIP3   OH248972   1.259   3.064   3.468  0.3988  0.0466  0.1803
 9186TIP3    H148973   1.310   2.985   3.491  1.4996  0.7824  0.3563
 9186TIP3    H248974   1.319   3.115   3.414 -0.3334  0.7355  0.0137
 9187TIP3   OH248975   4.042   2.314   1.740  0.2759  0.1731  0.3447
 9187TIP3    H148976   4.104   2.366   1.791 -0.9746  0.6800  1.4125
 9187TIP3    H248977   3.972   2.375   1.719 -0.6433 -0.7846  0.5670
 9188TIP3   OH248978   3.903   1.072   4.165  0.4397  0.1851  0.1621
 9188TIP3    H148979   3.979   1.027   4.127 -0.0911 -1.2234  0.6962
 9188TIP3    H248980   3.937   1.158   4.191  1.5652  0.0172 -0.6443
 9189TIP3   OH248981   3.796   6.554  16.875 -0.7667 -0.3118  0.0114
 9189TIP3    H148982   3.708   6.519  16.888  0.1796 -3.0755 -0.3600
 9189TIP3    H248983   3.814   6.541  16.782  0.1090  0.0404  0.1210
 9190TIP3   OH248984   6.524   2.184   4.448 -0.2883  0.5272  0.4048
 9190TIP3    H148985   6.533   2.260   4.505  1.5056  0.8975 -0.2971
 9190TIP3    H248986   6.560   2.111   4.499 -0.8854  0.3799  0.6225
 9191TIP3   OH248987   1.342   6.433  10.535 -0.5395  0.2081  0.0003
 9191TIP3    H148988   1.367   6.521  10.564  0.0665 -0.9997  3.6822
 9191TIP3    H248989   1.249   6.427  10.557 -1.4585  0.8407 -3.1683
 9192TIP3   OH248990   5.925   2.839   0.157 -0.4882  0.3225  0.1289
 9192TIP3    H148991   5.830   2.830   0.168 -0.1939 -1.9719  1.5088
 9192TIP3    H248992   5.962   2.790   0.230  1.7619 -0.9689 -1.7266
 9193TIP3   OH248993   4.162   1.585  12.084 -0.0166 -0.5389  0.6056
 9193TIP3    H148994   4.092   1.520  12.076 -0.4892 -0.0584  0.7419
 9193TIP3    H248995   4.167   1.604  12.177  0.2755 -0.5512  0.5916
 9194TIP3   OH248996   1.252   1.134   2.475 -0.4917 -0.0263 -0.2843
 9194TIP3    H148997   1.244   1.141   2.380  2.9501 -0.8766 -0.7624
 9194TIP3    H248998   1.244   1.224   2.507  0.2134  0.5294 -1.6042
 9195TIP3   OH248999   6.368   0.061   4.173 -0.3293  0.0830  0.2105
 9195TIP3    H149000   6.443   0.037   4.118 -0.7640 -1.0559  0.0990
 9195TIP3    H249001   6.380   0.155   4.190  0.6656  0.0980 -0.4999
 9196TIP3   OH249002   6.516   0.014   3.208  0.3075  0.0075  0.4672
 9196TIP3    H149003   6.531   0.071   3.133 -3.1162  0.7724  0.2015
 9196TIP3    H249004   6.479  -0.066   3.170 -2.0095  0.6208  1.2625
 9197TIP3   OH249005   2.222   3.318  16.601 -0.0663 -0.0688  0.3646
 9197TIP3    H149006   2.128   3.324  16.617 -0.2581  0.0458 -0.7771
 9197TIP3    H249007   2.242   3.224  16.611 -0.3197 -0.1129  0.4679
 9198TIP3   OH249008   5.232   0.463  13.694  0.2266  0.0219  0.2502
 9198TIP3    H149009   5.270   0.543  13.659 -0.3809  0.6534  1.0010
 9198TIP3    H249010   5.275   0.450  13.778 -1.1196  0.7162  1.0856
 9199TIP3   OH249011   0.857   5.132  16.044  0.3488 -0.2054  0.0851
 9199TIP3    H149012   0.841   5.089  16.128  2.7022  0.2683  0.8538
 9199TIP3    H249013   0.923   5.077  16.002  0.6363  0.6204 -0.5655
 9200TIP3   OH249014   0.565   3.537  17.016 -0.3382  0.3813 -0.5511
 9200TIP3    H149015   0.654   3.536  16.981 -0.9412 -0.7995 -2.1334
 9200TIP3    H249016   0.577   3.528  17.111  1.3382  3.9153 -0.2605
 9201TIP3   OH249017   3.530   6.423  16.220 -0.3698 -0.6682 -0.4730
 9201TIP3    H149018   3.584   6.441  16.143 -0.2135 -1.0491 -0.4530
 9201TIP3    H249019   3.465   6.493  16.219  0.4616  0.1258 -0.1726
 9202TIP3   OH249020   1.856   4.965   0.892  0.3320 -0.2110 -0.5446
 9202TIP3    H149021   1.943   5.000   0.911  0.5508 -0.0071 -1.8646
 9202TIP3    H249022   1.816   5.031   0.835 -0.8818 -0.0721  0.4118
 9203TIP3   OH249023   1.230   1.492   4.596  0.1719 -0.0133 -0.0194
 9203TIP3    H149024   1.171   1.434   4.547 -0.2370  1.7662 -1.7982
 9203TIP3    H249025   1.192   1.579   4.584  1.8245  0.8716  0.8868
 9204TIP3   OH249026   5.489   1.425  15.593 -0.2507 -0.2873 -0.4893
 9204TIP3    H149027   5.487   1.446  15.499 -3.1059 -1.0029 -0.6763
 9204TIP3    H249028   5.484   1.330  15.596 -0.3186 -0.2575  0.4014
 9205TIP3   OH249029   1.642   4.815   1.299 -0.0008  0.8010  1.0298
 9205TIP3    H149030   1.610   4.812   1.208 -2.4908  0.0811  1.8472
 9205TIP3    H249031   1.677   4.904   1.308  0.4485  0.8400 -0.6654
 9206TIP3   OH249032   3.339   1.890  15.311 -0.5308  0.2432 -0.0500
 9206TIP3    H149033   3.332   1.964  15.371 -0.4014  0.0082  0.2600
 9206TIP3    H249034   3.406   1.833  15.351 -0.7727 -0.1354 -0.1810
 9207TIP3   OH249035   1.741   0.960   0.368  0.0008  0.0759 -0.6186
 9207TIP3    H149036   1.726   0.893   0.301 -1.6352 -0.5121  0.2568
 9207TIP3    H249037   1.655   0.972   0.409  0.3643  2.3920 -0.4137
 9208TIP3   OH249038   2.026   6.435  14.265  0.0467  0.3128  0.1432
 9208TIP3    H149039   1.936   6.405  14.281 -0.2412  1.6295  1.2408
 9208TIP3    H249040   2.025   6.527  14.293  1.6684  0.4293 -0.1006
 9209TIP3   OH249041   2.304   5.337  15.858  0.4249 -0.0533  0.3777
 9209TIP3    H149042   2.379   5.280  15.842  0.9252  0.5052  0.6705
 9209TIP3    H249043   2.333   5.423  15.827  0.0053  0.2246  0.7528
 9210TIP3   OH249044   5.354   5.763   2.123  0.4490  0.4175  0.3196
 9210TIP3    H149045   5.295   5.747   2.197 -0.5220  2.3571  0.0312
 9210TIP3    H249046   5.305   5.822   2.065  2.1064  0.8923 -0.6659
 9211TIP3   OH249047   1.770   1.313  14.007  0.2711 -0.7357 -0.1852
 9211TIP3    H149048   1.796   1.377  14.073 -0.6170 -1.2887  0.7400
 9211TIP3    H249049   1.699   1.264  14.048 -1.1722 -0.2881 -2.0037
 9212TIP3   OH249050   1.201   5.450   5.042 -0.3723 -0.4914 -0.1102
 9212TIP3    H149051   1.109   5.426   5.050 -0.4644  0.5031  3.2524
 9212TIP3    H249052   1.225   5.424   4.953 -4.0437 -0.1826 -1.3565
 9213TIP3   OH249053   1.633   0.545   4.178  0.3093 -0.2573  0.4662
 9213TIP3    H149054   1.687   0.623   4.175 -2.0767  1.5135  0.2703
 9213TIP3    H249055   1.592   0.548   4.265  0.0143 -1.1793  0.3705
 9214TIP3   OH249056   5.072   5.505  13.238 -0.0968 -0.3034 -0.0647
 9214TIP3    H149057   5.116   5.535  13.159 -1.5110  0.8436 -0.4435
 9214TIP3    H249058   4.980   5.500  13.215 -0.8724  2.0903  2.0515
 9215TIP3   OH249059   3.080   6.248   3.008 -0.2937  0.1081  0.2797
 9215TIP3    H149060   3.102   6.248   3.101 -0.6473  1.8152  0.3958
 9215TIP3    H249061   3.137   6.182   2.970  0.7473  0.2452  1.5171
 9216TIP3   OH249062   1.300   1.055   4.745  0.0728 -0.7247  0.6222
 9216TIP3    H149063   1.337   1.062   4.657 -1.2540  0.6485  0.1361
 9216TIP3    H249064   1.262   1.141   4.762 -0.1942 -1.1460  2.3247
 9217TIP3   OH249065   2.808   2.715   4.394  0.1712  0.5333  0.4179
 9217TIP3    H149066   2.888   2.671   4.363  0.5856  1.8932 -0.5402
 9217TIP3    H249067   2.830   2.808   4.393 -1.1334  0.8708  1.0649
 9218TIP3   OH249068   6.092   5.761  15.305 -0.5508 -0.2935  0.2422
 9218TIP3    H149069   6.062   5.671  15.314 -0.4657 -0.6237 -2.1242
 9218TIP3    H249070   6.186   5.753  15.285 -0.3464  0.3876  0.8538
 9219TIP3   OH249071   6.524   1.231   6.190 -0.4786  0.0379  0.2628
 9219TIP3    H149072   6.544   1.286   6.114 -2.8279 -0.4146 -0.7668
 9219TIP3    H249073   6.487   1.292   6.254 -0.8977  0.0394  0.0257
 9220TIP3   OH249074   5.600   2.802   5.638 -0.5826 -0.4814 -0.0112
 9220TIP3    H149075   5.634   2.756   5.715 -1.4041 -1.1285 -0.0199
 9220TIP3    H249076   5.508   2.818   5.659 -0.4419  0.7208 -0.2264
 9221TIP3   OH249077   3.062   6.001   5.211  0.0817 -0.3824  0.5831
 9221TIP3    H149078   3.015   6.002   5.294 -1.3348  0.4921 -0.1747
 9221TIP3    H249079   3.027   5.925   5.165  0.4630 -0.5486  0.5622
 9222TIP3   OH249080   1.753   2.276   0.007  0.2172  0.3995 -0.2047
 9222TIP3    H149081   1.691   2.235  -0.053 -1.3022  0.6689  1.1213
 9222TIP3    H249082   1.731   2.241   0.093  1.0173  1.5428  0.5024
 9223TIP3   OH249083   5.009   1.257   2.401 -0.0090  0.0329 -0.0346
 9223TIP3    H149084   4.928   1.253   2.452  0.0471  0.4853  0.0943
 9223TIP3    H249085   5.017   1.170   2.362 -0.2986 -0.1706  0.3521
 9224TIP3   OH249086   1.178   3.709   0.505 -0.0939 -0.0539 -0.2638
 9224TIP3    H149087   1.119   3.684   0.576 -0.3138  0.4234 -0.2745
 9224TIP3    H249088   1.263   3.672   0.530  0.0530  0.9037  0.7181
 9225TIP3   OH249089   1.702   6.692   0.004 -0.5961  0.0237 -0.2423
 9225TIP3    H149090   1.702   6.769  -0.052 -2.2355 -1.0995 -1.9056
 9225TIP3    H249091   1.716   6.726   0.092  1.4985  1.9131 -1.2007
 9226TIP3   OH249092   0.265   1.083  12.956 -0.0670 -0.1132  0.2739
 9226TIP3    H149093   0.233   1.172  12.969 -1.2328 -0.6858  1.6104
 9226TIP3    H249094   0.233   1.058  12.869  0.5257  0.8603 -0.2329
 9227TIP3   OH249095   5.587   1.207  13.365 -0.7713 -0.4950 -0.1736
 9227TIP3    H149096   5.507   1.188  13.413 -1.8469  1.5152 -1.0497
 9227TIP3    H249097   5.557   1.248  13.284  1.0804 -1.6840 -1.5524
 9228TIP3   OH249098   5.870   4.773  11.465  0.0411 -0.7062 -0.5135
 9228TIP3    H149099   5.885   4.768  11.371  0.0967  1.0748 -0.6369
 9228TIP3    H249100   5.779   4.800  11.474  0.4594  0.7288 -0.1549
 9229TIP3   OH249101   1.619   1.902  14.679  0.5333  0.0110  0.0876
 9229TIP3    H149102   1.530   1.901  14.715  0.5149 -0.2342  0.0344
 9229TIP3    H249103   1.672   1.945  14.747  0.1022  1.5567 -0.5019
 9230TIP3   OH249104   3.932   0.989   2.534 -0.4909  0.1499 -0.1004
 9230TIP3    H149105   3.861   0.952   2.586 -0.8131 -0.5838 -1.0254
 9230TIP3    H249106   3.965   0.915   2.483  0.9029  0.4868  0.2610
 9231TIP3   OH249107   5.745   5.226   5.454 -0.4491  0.1306  0.3377
 9231TIP3    H149108   5.731   5.307   5.503 -0.7862  0.7158 -0.6845
 9231TIP3    H249109   5.716   5.247   5.365  1.8432 -0.2909 -0.5791
 9232TIP3   OH249110   4.429   5.554  15.114 -0.0209 -0.3453  0.2148
 9232TIP3    H149111   4.489   5.480  15.113 -2.0402 -2.2243 -3.6206
 9232TIP3    H249112   4.357   5.527  15.172  0.3882 -0.2811  0.7621
 9233TIP3   OH249113   4.590   2.628  16.156  0.3117 -0.0878  0.1572
 9233TIP3    H149114   4.667   2.621  16.100  1.8281 -1.8010  2.2690
 9233TIP3    H249115   4.626   2.636  16.245 -1.9441 -0.5622  1.1945
 9234TIP3   OH249116   6.133   3.369  11.127 -0.6615 -0.0023  0.8329
 9234TIP3    H149117   6.180   3.439  11.083 -0.9190  0.2671  0.9779
 9234TIP3    H249118   6.104   3.311  11.057 -1.1320  0.4625  0.6392
 9235TIP3   OH249119   2.748   3.621   4.316  0.0001  0.1591  0.0848
 9235TIP3    H149120   2.663   3.580   4.305 -1.2506  2.6179 -0.1501
 9235TIP3    H249121   2.791   3.610   4.231  0.6283 -2.4000  0.6492
 9236TIP3   OH249122   1.071   1.660  13.595 -0.0305  0.7950 -0.1095
 9236TIP3    H149123   1.070   1.668  13.499 -0.8808  1.3022 -0.0701
 9236TIP3    H249124   1.018   1.582  13.613  1.9487 -0.6182 -0.1331
 9237TIP3   OH249125   1.673   6.274  15.043  0.0385  0.5898 -0.3427
 9237TIP3    H149126   1.586   6.242  15.019 -0.2327  1.9026 -1.1745
 9237TIP3    H249127   1.687   6.350  14.988  1.0336  1.3821  0.9497
 9238TIP3   OH249128   4.655   2.398   5.669 -0.2128  0.1333 -0.3465
 9238TIP3    H149129   4.600   2.374   5.594  0.7621  1.9992 -1.7144
 9238TIP3    H249130   4.592   2.418   5.739 -1.3062  1.5909 -1.6833
 9239TIP3   OH249131   0.515   1.581  15.002  0.6761 -0.3487  0.1632
 9239TIP3    H149132   0.523   1.489  15.028  0.4840 -0.6329 -0.7245
 9239TIP3    H249133   0.604   1.606  14.975  0.1108 -1.4957 -3.3306
 9240TIP3   OH249134   0.961   1.982  14.965 -0.0835 -0.1130 -0.4125
 9240TIP3    H149135   1.010   1.959  14.887  0.3621  1.6397 -0.6963
 9240TIP3    H249136   1.004   2.061  14.998 -1.0409 -0.0939  0.8876
 9241TIP3   OH249137   3.316   4.027  13.367  0.4523  0.1806  0.4162
 9241TIP3    H149138   3.233   3.998  13.406  0.0534 -0.9036 -1.1396
 9241TIP3    H249139   3.339   4.106  13.416 -0.2296 -0.8482  2.4998
 9242TIP3   OH249140   2.677   1.320   4.381 -0.6760 -0.2874  0.5312
 9242TIP3    H149141   2.739   1.330   4.454 -1.1142  0.9058  0.7569
 9242TIP3    H249142   2.732   1.325   4.303 -0.4611  0.7807  0.7302
 9243TIP3   OH249143   1.545   1.536   1.484  0.1863 -0.5001 -0.0616
 9243TIP3    H149144   1.531   1.629   1.501  1.0573 -0.3568 -0.0905
 9243TIP3    H249145   1.586   1.503   1.564 -0.2672 -0.8919  0.0103
 9244TIP3   OH249146   5.646   1.673   0.191  0.0092  0.3785  0.0605
 9244TIP3    H149147   5.621   1.584   0.217  0.0149  0.5768  0.7807
 9244TIP3    H249148   5.614   1.728   0.263  0.2890  0.9222 -0.2264
 9245TIP3   OH249149   3.073   5.608  11.363  0.3388  0.2989  0.2178
 9245TIP3    H149150   3.097   5.516  11.379  0.5197  0.4167  0.6161
 9245TIP3    H249151   3.154   5.649  11.333  0.0204  0.0941 -0.9624
 9246TIP3   OH249152   1.391   5.032   2.154 -0.6943 -0.1633  0.8114
 9246TIP3    H149153   1.365   5.005   2.242 -1.1517 -2.3971  0.0530
 9246TIP3    H249154   1.487   5.024   2.155 -0.6857 -0.0378  1.1499
 9247TIP3   OH249155   4.304   1.222  14.714 -0.1494  0.3869  0.6132
 9247TIP3    H149156   4.267   1.151  14.766 -0.7684  0.7868  0.7305
 9247TIP3    H249157   4.333   1.181  14.633 -2.1935  0.3024 -0.1047
 9248TIP3   OH249158   4.986   4.324  12.801  0.1498  0.2385 -0.0346
 9248TIP3    H149159   4.993   4.409  12.756 -1.3362 -0.1504 -1.0691
 9248TIP3    H249160   4.919   4.338  12.868 -0.3322 -0.1783 -0.4171
 9249TIP3   OH249161   1.556   1.092  11.669  0.6703  0.0964  0.2102
 9249TIP3    H149162   1.569   1.020  11.607  0.8587 -1.3025  1.8076
 9249TIP3    H249163   1.621   1.158  11.645  0.9120 -0.5358 -0.8930
 9250TIP3   OH249164   3.743   0.670  14.234  0.4842 -0.0456  0.0857
 9250TIP3    H149165   3.665   0.641  14.281 -0.1897  1.1066 -0.2714
 9250TIP3    H249166   3.781   0.590  14.198 -0.1760 -0.6953  0.7957
 9251TIP3   OH249167   3.995   1.227  15.540 -0.0223  0.1603 -0.1557
 9251TIP3    H149168   4.084   1.254  15.563  0.3243 -0.3248 -0.8928
 9251TIP3    H249169   3.970   1.167  15.610  1.1066 -1.4720 -1.0906
 9252TIP3   OH249170   2.108   2.604  12.142  0.2268 -0.1175  0.0200
 9252TIP3    H149171   2.017   2.579  12.161 -0.0018  1.4658  1.2015
 9252TIP3    H249172   2.160   2.530  12.172 -0.5077  0.1462  2.1408
 9253TIP3   OH249173   5.273   6.632   3.098 -0.1009  0.7382  0.6600
 9253TIP3    H149174   5.289   6.646   3.191 -0.3378  0.2582  0.7775
 9253TIP3    H249175   5.326   6.556   3.075 -1.5194 -0.3537  0.8660
 9254TIP3   OH249176   4.975   5.098  13.046  0.2407  0.1901 -0.1383
 9254TIP3    H149177   5.047   5.093  12.982  1.1699  0.1384  0.8814
 9254TIP3    H249178   5.016   5.078  13.130 -0.8689  0.7145  0.5541
 9255TIP3   OH249179   3.770   4.153  13.600 -0.1080 -0.6555  0.1627
 9255TIP3    H149180   3.743   4.237  13.564  0.0346 -1.0324 -0.8532
 9255TIP3    H249181   3.797   4.173  13.690  0.4927  0.4823 -0.2532
 9256TIP3   OH249182   1.297   1.842  13.657 -0.2588 -0.2696 -0.2564
 9256TIP3    H149183   1.255   1.764  13.621  1.5409 -1.6156  0.3786
 9256TIP3    H249184   1.265   1.847  13.747 -0.3629 -0.2857 -0.2920
 9257TIP3   OH249185   2.211   1.120   3.704  0.6123  0.3852 -0.2085
 9257TIP3    H149186   2.294   1.072   3.711  0.6259  0.4592  0.1419
 9257TIP3    H249187   2.235   1.203   3.663  1.0658  1.2799  1.7852
 9258TIP3   OH249188   6.315   3.243   1.002 -0.1073  0.0908 -0.1509
 9258TIP3    H149189   6.267   3.186   0.941  0.0366 -0.6839  0.4481
 9258TIP3    H249190   6.337   3.186   1.075  2.7344  0.1192 -0.8861
 9259TIP3   OH249191   6.479   2.591  13.029 -0.1496 -0.5030 -0.3527
 9259TIP3    H149192   6.469   2.543  12.947  1.7379 -0.0949 -0.8688
 9259TIP3    H249193   6.519   2.528  13.090 -0.4601 -0.4647 -0.1063
 9260TIP3   OH249194   3.711   6.615   2.118  0.1762  0.7081  0.0804
 9260TIP3    H149195   3.795   6.579   2.146  0.2846 -0.8064 -2.0001
 9260TIP3    H249196   3.647   6.547   2.141 -0.7256  2.2804  2.6159
 9261TIP3   OH249197   1.047   0.747   2.141 -0.4296 -0.3909  1.1683
 9261TIP3    H149198   0.979   0.684   2.116 -0.2929 -0.8074  1.8135
 9261TIP3    H249199   1.129   0.705   2.115 -0.4468  0.6046 -0.6594
 9262TIP3   OH249200   2.742   0.925  15.817  0.1996 -0.1387 -0.0222
 9262TIP3    H149201   2.655   0.893  15.792  0.1668  0.1420 -0.2744
 9262TIP3    H249202   2.755   1.002  15.762  1.5934 -1.5025 -1.7278
 9263TIP3   OH249203   1.001   0.620  13.463 -0.0252  0.1813  0.3447
 9263TIP3    H149204   1.071   0.556  13.447 -1.7404 -1.6231 -0.4730
 9263TIP3    H249205   1.003   0.676  13.386  1.2258  0.8949  0.8662
 9264TIP3   OH249206   0.491   3.226   6.261 -0.2373  0.0299  0.4176
 9264TIP3    H149207   0.485   3.204   6.168  0.3611 -1.2520  0.6570
 9264TIP3    H249208   0.507   3.142   6.304  1.3140  0.8228  1.4994
 9265TIP3   OH249209   5.647   4.324  12.521  0.6212  0.0955  0.1212
 9265TIP3    H149210   5.738   4.330  12.549  0.4541 -2.5318  1.5304
 9265TIP3    H249211   5.596   4.338  12.601 -0.0874 -1.1331 -0.0808
 9266TIP3   OH249212   4.009   2.882  13.615  0.0438 -0.1406  0.2740
 9266TIP3    H149213   3.959   2.810  13.576 -0.9619  0.2871  0.7532
 9266TIP3    H249214   4.056   2.921  13.541 -0.0217 -0.7906 -0.1189
 9267TIP3   OH249215   6.592   1.112   1.001 -0.3334  0.0405 -0.2303
 9267TIP3    H149216   6.661   1.048   0.986  0.0118  0.6306 -1.2499
 9267TIP3    H249217   6.555   1.088   1.086  1.9007  0.4168  0.9208
 9268TIP3   OH249218   5.513   1.006   3.071 -0.3283 -0.1745 -0.3781
 9268TIP3    H149219   5.587   0.984   3.126 -0.1585  0.2591 -0.4269
 9268TIP3    H249220   5.537   0.975   2.984  0.0966  0.5681 -0.5376
 9269TIP3   OH249221   6.392   5.433   5.422 -0.2585  0.8682 -0.3626
 9269TIP3    H149222   6.380   5.356   5.366 -2.8779  0.8283  0.1366
 9269TIP3    H249223   6.474   5.416   5.468  1.4282  0.3672 -3.2561
 9270TIP3   OH249224   4.546   0.819   5.970  0.1143 -0.2218  0.0825
 9270TIP3    H149225   4.583   0.868   5.896 -1.7664  1.1103 -0.0694
 9270TIP3    H249226   4.578   0.865   6.047 -0.4686  0.3795 -0.0223
 9271TIP3   OH249227   1.128   0.273   1.409  0.0977 -0.0998  0.0184
 9271TIP3    H149228   1.201   0.214   1.391 -0.2219 -0.0238 -1.6464
 9271TIP3    H249229   1.052   0.230   1.370 -0.3544  0.8465 -0.1772
 9272TIP3   OH249230   1.398   6.586   1.339  0.4482 -0.4171 -0.6871
 9272TIP3    H149231   1.442   6.552   1.418 -0.6856  0.8673  0.5572
 9272TIP3    H249232   1.464   6.579   1.270  1.8382 -0.6319  0.6026
 9273TIP3   OH249233   4.609   6.258  15.592 -0.2166  0.2739  0.3904
 9273TIP3    H149234   4.563   6.259  15.676 -1.1325  0.3015 -0.0977
 9273TIP3    H249235   4.597   6.169  15.560 -0.9527  0.5960 -0.2749
 9274TIP3   OH249236   3.403   6.117   0.484  0.2485  0.4889  0.2142
 9274TIP3    H149237   3.326   6.174   0.480  0.2006  0.4032 -0.1003
 9274TIP3    H249238   3.367   6.030   0.498  0.2941  0.4622  0.1616
 9275TIP3   OH249239   1.632   6.025   2.399 -0.2200  0.2316  0.3734
 9275TIP3    H149240   1.545   6.005   2.435  0.3852 -1.3432  1.0749
 9275TIP3    H249241   1.669   6.088   2.460 -0.1965 -0.4694  1.1046
 9276TIP3   OH249242   2.259   5.403   1.565 -0.0984 -0.0742  0.0908
 9276TIP3    H149243   2.207   5.483   1.571  0.9781  0.6646 -0.1326
 9276TIP3    H249244   2.257   5.367   1.654 -0.0388  0.5549  0.3525
 9277TIP3   OH249245   5.717   1.018   2.083  0.2656 -0.2008 -0.3691
 9277TIP3    H149246   5.699   0.932   2.046  0.1558  0.2991 -1.5189
 9277TIP3    H249247   5.636   1.067   2.072  1.2969  1.1235 -2.8939
 9278TIP3   OH249248   3.426   4.054  10.762  0.0487 -0.5940 -0.6978
 9278TIP3    H149249   3.510   4.089  10.792 -0.6031  0.2109  0.2592
 9278TIP3    H249250   3.437   3.959  10.767  0.7483 -0.4929 -0.1285
 9279TIP3   OH249251   1.987   4.568  13.862  0.4131  0.6018 -0.3009
 9279TIP3    H149252   1.944   4.540  13.781 -0.4080  0.5678  0.1281
 9279TIP3    H249253   1.957   4.659  13.874 -1.5016 -0.1463  1.2255
 9280TIP3   OH249254   0.472   0.405   0.186  0.1438 -0.5650  0.1315
 9280TIP3    H149255   0.491   0.397   0.093  2.1678  0.8840  0.3655
 9280TIP3    H249256   0.404   0.340   0.202 -0.2265 -0.8666 -2.3353
 9281TIP3   OH249257   0.630   1.229  12.516 -0.4890 -0.1145 -0.1889
 9281TIP3    H149258   0.597   1.317  12.537 -0.4215  0.1037 -0.9692
 9281TIP3    H249259   0.715   1.244  12.477 -0.4233 -0.5399 -0.2117
 9282TIP3   OH249260   1.893   0.870   6.789 -0.3144 -0.4683 -0.0824
 9282TIP3    H149261   1.900   0.951   6.739 -1.3092 -1.0332 -1.1985
 9282TIP3    H249262   1.804   0.871   6.825  0.0717 -0.5140  0.9164
 9283TIP3   OH249263   0.164   6.668  13.913  0.2149 -0.1528 -0.6076
 9283TIP3    H149264   0.259   6.655  13.906  0.4086  1.5554 -2.0336
 9283TIP3    H249265   0.147   6.676  14.007  1.2635 -1.7345 -0.2483
 9284TIP3   OH249266   4.335   6.470   3.382  0.9613 -0.0186  0.0580
 9284TIP3    H149267   4.244   6.477   3.411  1.0075 -1.4221  0.6234
 9284TIP3    H249268   4.380   6.541   3.428  0.3680 -0.0629  0.7392
 9285TIP3   OH249269   3.965   3.314  12.626 -0.3471 -0.0037  0.3595
 9285TIP3    H149270   3.924   3.349  12.705  0.0961  2.6340 -0.4954
 9285TIP3    H249271   3.924   3.362  12.554 -0.3074 -1.9123 -1.0074
 9286TIP3   OH249272   5.176   3.781   4.681  0.6806  0.7706 -0.2024
 9286TIP3    H149273   5.139   3.807   4.766  1.2389 -1.5101  0.8120
 9286TIP3    H249274   5.233   3.854   4.657  1.0028  1.2125  1.7138
 9287TIP3   OH249275   6.337   0.162  15.536 -0.3384 -0.0178  0.1282
 9287TIP3    H149276   6.424   0.134  15.507 -0.9518 -1.2438 -0.6064
 9287TIP3    H249277   6.320   0.242  15.487  0.5265  0.4780  0.5945
 9288TIP3   OH249278   5.564   5.007  10.438 -0.1984  0.1253 -1.0141
 9288TIP3    H149279   5.577   4.978  10.529  1.3611  0.0593 -1.2298
 9288TIP3    H249280   5.473   5.034  10.435 -0.7815 -1.5495  0.1009
 9289TIP3   OH249281   4.010   1.971   5.697 -0.2172 -0.3166 -0.1562
 9289TIP3    H149282   4.018   1.920   5.777  1.2362 -0.4561 -0.3775
 9289TIP3    H249283   4.041   1.913   5.628  0.1879  0.4019 -0.5880
 9290TIP3   OH249284   3.504   0.659  12.515  0.4631  0.3739  0.3379
 9290TIP3    H149285   3.567   0.673  12.444 -0.5523  0.5933 -0.5378
 9290TIP3    H249286   3.513   0.737  12.570  0.2112  0.9123 -0.3671
 9291TIP3   OH249287   1.017   0.224  17.084 -0.0888  0.4191 -0.2750
 9291TIP3    H149288   1.097   0.228  17.030  0.0009 -0.5022 -0.2272
 9291TIP3    H249289   0.956   0.170  17.033 -0.1466 -0.1288  0.3480
 9292TIP3   OH249290   1.447   4.004  14.276 -0.3137  0.0525 -0.1821
 9292TIP3    H149291   1.446   4.056  14.195  0.6062 -0.6383 -0.6508
 9292TIP3    H249292   1.457   4.068  14.346 -1.8736  0.7399 -0.5306
 9293TIP3   OH249293   1.327   6.234   5.753  0.1597  0.6911  0.3233
 9293TIP3    H149294   1.274   6.242   5.832 -1.5459 -1.0318 -0.5794
 9293TIP3    H249295   1.366   6.147   5.759 -3.7753 -1.5874 -2.8062
 9294TIP3   OH249296   6.155   3.030   4.624  0.4088 -0.2318 -0.1477
 9294TIP3    H149297   6.066   3.065   4.632  0.6162  0.2557  0.0464
 9294TIP3    H249298   6.145   2.951   4.570  0.0105  0.4394 -1.0816
 9295TIP3   OH249299   6.255   2.262  15.082  0.0009  0.2406 -0.5286
 9295TIP3    H149300   6.227   2.264  15.174  2.1266 -0.4618  0.1915
 9295TIP3    H249301   6.343   2.300  15.083  0.5922 -0.9763 -2.0634
 9296TIP3   OH249302   4.801   2.479   4.032  0.1926 -0.4189 -0.5368
 9296TIP3    H149303   4.826   2.569   4.011 -0.0942 -0.2111 -0.0008
 9296TIP3    H249304   4.819   2.430   3.952 -0.7166  0.3234 -1.2185
 9297TIP3   OH249305   3.673   4.708  16.121 -0.1755  0.5956 -0.6928
 9297TIP3    H149306   3.624   4.696  16.202  2.4050  0.1553  0.9286
 9297TIP3    H249307   3.634   4.647  16.059  0.1068 -1.8358  1.3879
 9298TIP3   OH249308   0.445   2.858  13.529  0.5703  0.3800 -0.1497
 9298TIP3    H149309   0.419   2.921  13.597  2.1304  0.3340  0.5325
 9298TIP3    H249310   0.409   2.894  13.448  2.8982  3.1899 -0.1007
 9299TIP3   OH249311   6.349   1.814   6.012 -0.5260  0.7203 -0.3719
 9299TIP3    H149312   6.261   1.793   5.980 -0.6249  0.6575 -0.0612
 9299TIP3    H249313   6.354   1.773   6.097 -0.0039  0.2831 -0.6108
 9300TIP3   OH249314   5.264   0.326   6.765 -0.4036 -0.1911  0.4963
 9300TIP3    H149315   5.184   0.328   6.712  0.5120  0.3200 -0.9319
 9300TIP3    H249316   5.331   0.362   6.707  1.0017 -1.2118  1.4395
 9301TIP3   OH249317   0.009   1.220  12.777 -0.1255  0.6135 -0.6702
 9301TIP3    H149318  -0.012   1.267  12.697  0.1475 -1.5669 -2.1070
 9301TIP3    H249319   0.085   1.166  12.754 -0.3619 -0.4547  0.8926
 9302TIP3   OH249320   2.383   4.316   1.969 -0.1563 -0.5344  0.1817
 9302TIP3    H149321   2.450   4.297   2.035  0.2777  0.1368 -0.0585
 9302TIP3    H249322   2.407   4.401   1.934 -0.5527 -0.7500 -0.6429
 9303TIP3   OH249323   5.115   0.795   0.674 -1.1458  0.1374 -0.4157
 9303TIP3    H149324   5.127   0.701   0.682 -1.2268  0.1266 -0.4284
 9303TIP3    H249325   5.189   0.832   0.723 -0.8726  0.0704 -0.7727
 9304TIP3   OH249326   3.217   1.073   5.885 -0.2549 -0.6550  0.0948
 9304TIP3    H149327   3.190   1.122   5.808  2.5481  0.1138 -0.5447
 9304TIP3    H249328   3.145   1.083   5.947 -0.9410  2.1235 -0.9835
 9305TIP3   OH249329   5.895   0.047  15.782  0.4761  0.5121  0.1678
 9305TIP3    H149330   5.857  -0.041  15.785  0.7830  0.3887  0.5488
 9305TIP3    H249331   5.982   0.034  15.744  0.4012  0.6967 -0.0683
 9306TIP3   OH249332   3.950   5.025  11.634  0.2190  0.4944 -0.4658
 9306TIP3    H149333   3.977   4.935  11.621 -0.9858  0.0393  0.0090
 9306TIP3    H249334   3.866   5.032  11.589  0.2643  1.3683 -0.4468
 9307TIP3   OH249335   4.396   2.063   2.759  0.4396  0.1423  0.0518
 9307TIP3    H149336   4.478   2.042   2.804  0.6400 -1.0695 -0.8349
 9307TIP3    H249337   4.355   2.130   2.814 -0.2236 -2.4947  3.1268
 9308TIP3   OH249338   6.364   4.853   1.400  0.0147  0.1529  0.2003
 9308TIP3    H149339   6.382   4.857   1.494  0.2199  0.3472  0.1540
 9308TIP3    H249340   6.443   4.815   1.362 -0.1885 -0.2146  0.1397
 9309TIP3   OH249341   2.968   2.723  14.687  0.9426  0.4481  0.1235
 9309TIP3    H149342   2.939   2.780  14.617  0.4160  0.2411  0.1724
 9309TIP3    H249343   3.053   2.759  14.714  0.7601  1.0132 -0.0572
 9310TIP3   OH249344   2.705   1.252  15.234  0.3102  0.3703 -0.0918
 9310TIP3    H149345   2.711   1.160  15.207 -1.5659 -0.0023  0.5682
 9310TIP3    H249346   2.652   1.250  15.314  2.1809  1.8325  1.2718
 9311TIP3   OH249347   3.751   6.736   5.090 -0.3070  0.0626  0.1631
 9311TIP3    H149348   3.664   6.702   5.071 -0.1055  1.1696 -3.5398
 9311TIP3    H249349   3.794   6.668   5.141 -3.6416  0.0016  3.2309
 9312TIP3   OH249350   3.488   3.933   2.909 -0.1327  0.3246  0.2600
 9312TIP3    H149351   3.547   3.910   2.838 -1.2649  1.0792 -0.9755
 9312TIP3    H249352   3.484   3.855   2.964  0.4998 -0.3921 -0.6920
 9313TIP3   OH249353   0.206   5.463   1.148 -0.4149 -0.1370  0.2505
 9313TIP3    H149354   0.256   5.399   1.098  1.3960  0.6100  1.0117
 9313TIP3    H249355   0.246   5.547   1.127 -1.1187  0.4438  1.1521
 9314TIP3   OH249356   3.532   3.177  12.391 -0.1539  0.3518  0.4556
 9314TIP3    H149357   3.484   3.098  12.414 -3.1414  1.6028 -0.9065
 9314TIP3    H249358   3.618   3.147  12.365 -1.2448 -2.4670 -0.1677
 9315TIP3   OH249359   5.711   2.032   2.178  0.0040  0.0418 -0.4515
 9315TIP3    H149360   5.694   2.117   2.137 -4.7249  0.2832  1.3554
 9315TIP3    H249361   5.732   2.053   2.269 -1.7609 -0.6175  0.1564
 9316TIP3   OH249362   4.947   3.519  11.610 -0.0627  0.2675 -0.2113
 9316TIP3    H149363   4.928   3.476  11.694 -2.4141  0.6949 -0.4386
 9316TIP3    H249364   5.020   3.577  11.629  1.8806 -2.2725  0.5926
 9317TIP3   OH249365   0.647   2.934   1.093 -0.5253  0.4015 -0.0874
 9317TIP3    H149366   0.704   2.866   1.057  1.6546  1.8233  0.5190
 9317TIP3    H249367   0.636   2.910   1.185 -0.8092  0.2161 -0.1664
 9318TIP3   OH249368   6.632   2.923  13.962 -0.2362  0.2415 -0.3290
 9318TIP3    H149369   6.705   2.864  13.981  0.6000  0.9993 -1.1355
 9318TIP3    H249370   6.565   2.899  14.026  0.0602 -1.6131 -0.6551
 9319TIP3   OH249371   6.562   1.325   3.717  0.1915 -0.5259  0.0186
 9319TIP3    H149372   6.476   1.337   3.676  1.2078 -0.2760 -2.1753
 9319TIP3    H249373   6.560   1.235   3.752 -1.1872 -0.2689  0.6551
 9320TIP3   OH249374   6.319   2.236   2.898 -0.4144 -0.3793  0.0520
 9320TIP3    H149375   6.223   2.245   2.898 -0.4766 -0.9231  1.0047
 9320TIP3    H249376   6.340   2.198   2.813 -0.8916  1.1654 -0.7999
 9321TIP3   OH249377   5.912   3.604   3.759  0.6344 -0.4059 -0.5606
 9321TIP3    H149378   5.961   3.671   3.712 -1.5863  0.0034 -2.4940
 9321TIP3    H249379   5.928   3.523   3.710  2.0605 -1.0124  0.8440
 9322TIP3   OH249380   0.485   0.089  14.460 -0.4375 -0.4948 -0.0890
 9322TIP3    H149381   0.543   0.106  14.386  0.9334 -0.8713  0.8639
 9322TIP3    H249382   0.407   0.141  14.441 -0.6785 -1.5598 -2.4154
 9323TIP3   OH249383   2.293   2.278  16.722  0.0759  0.4924  0.1491
 9323TIP3    H149384   2.261   2.351  16.774 -1.4351  0.0484 -0.1142
 9323TIP3    H249385   2.240   2.279  16.642  1.3769  0.2882 -0.7593
 9324TIP3   OH249386   3.255   1.647   2.107 -0.0768 -0.1110  0.1373
 9324TIP3    H149387   3.266   1.612   2.019 -0.8325  0.2419 -0.1095
 9324TIP3    H249388   3.160   1.651   2.120  0.0227 -0.0959  0.9406
 9325TIP3   OH249389   3.621   6.558   0.202 -0.4016 -0.3992 -0.2908
 9325TIP3    H149390   3.649   6.638   0.157 -0.8374 -0.1682 -0.1654
 9325TIP3    H249391   3.564   6.590   0.273 -0.6406 -0.8257 -0.2889
 9326TIP3   OH249392   3.586   4.698  16.455 -0.8637  0.3610  0.3973
 9326TIP3    H149393   3.541   4.687  16.539 -0.3875 -1.3360  0.4841
 9326TIP3    H249394   3.549   4.629  16.400 -1.7885  2.0025 -1.0934
 9327TIP3   OH249395   1.798   4.374   5.537 -0.2500  0.3656  0.6641
 9327TIP3    H149396   1.716   4.369   5.586 -0.9490 -2.1876 -0.5676
 9327TIP3    H249397   1.860   4.320   5.587 -0.9458 -2.1928 -1.0269
 9328TIP3   OH249398   3.730   4.087  11.545  0.3533 -0.6404 -0.4251
 9328TIP3    H149399   3.692   4.009  11.584 -1.1612  0.9264  1.5073
 9328TIP3    H249400   3.800   4.112  11.606  2.4852 -1.7224 -2.2815
 9329TIP3   OH249401   4.024   5.563   1.016  0.1336  0.0621 -0.0415
 9329TIP3    H149402   4.030   5.616   1.095 -0.7430  0.6133 -0.3263
 9329TIP3    H249403   4.028   5.473   1.047 -2.2815  0.1934  0.9081
 9330TIP3   OH249404   5.342   6.249   0.697  0.1783  0.1127 -0.5487
 9330TIP3    H149405   5.335   6.300   0.616  0.1558 -0.8993 -1.2018
 9330TIP3    H249406   5.296   6.301   0.762 -1.4153  0.1080 -1.6082
 9331TIP3   OH249407   1.194   4.399   2.324 -0.1392 -0.0870  0.0789
 9331TIP3    H149408   1.140   4.378   2.400  1.6149  1.4201  1.8529
 9331TIP3    H249409   1.252   4.469   2.354  3.6990 -2.3602 -1.2390
 9332TIP3   OH249410   0.948   0.821   4.906 -0.3084 -0.4553 -0.2408
 9332TIP3    H149411   0.925   0.863   4.989  2.0607 -0.0870  0.2985
 9332TIP3    H249412   0.897   0.740   4.906 -1.5018  0.2585  0.8500
 9333TIP3   OH249413   0.567   3.266   5.728  0.0352  0.3468 -0.2162
 9333TIP3    H149414   0.529   3.216   5.656 -0.9608  1.6163 -0.6038
 9333TIP3    H249415   0.618   3.335   5.686  1.1328 -0.1185  0.3093
 9334TIP3   OH249416   1.929   3.675  16.902 -0.4396 -0.8665 -0.0885
 9334TIP3    H149417   1.969   3.590  16.882  0.1351 -0.2322 -1.8612
 9334TIP3    H249418   1.880   3.697  16.823  0.5222  1.0429 -0.2070
 9335TIP3   OH249419   3.831   1.006   6.031 -0.0861 -0.3018 -0.1095
 9335TIP3    H149420   3.882   1.081   6.062  1.1430 -0.3725 -1.8192
 9335TIP3    H249421   3.822   0.950   6.108 -0.3769  1.2011  1.0146
 9336TIP3   OH249422   3.483   3.037  13.613 -0.1499 -0.2916  0.1104
 9336TIP3    H149423   3.451   3.057  13.525 -0.4850 -1.4150 -0.0347
 9336TIP3    H249424   3.442   3.103  13.669 -1.0467 -0.4169 -0.3798
 9337TIP3   OH249425   3.076   4.119  13.574 -0.8652  0.1665 -0.3058
 9337TIP3    H149426   3.043   4.123  13.664 -0.1160  3.8977 -0.0271
 9337TIP3    H249427   2.999   4.135  13.520 -0.8751  0.7546 -0.1293
 9338TIP3   OH249428   4.977   0.236   4.091 -0.0362 -0.4112 -0.2784
 9338TIP3    H149429   5.046   0.240   4.157 -0.4359 -0.8594  0.1689
 9338TIP3    H249430   4.911   0.297   4.123  0.4857  0.6347 -1.1144
 9339TIP3   OH249431   0.610   0.581  15.620  0.1579 -0.4948  0.0349
 9339TIP3    H149432   0.578   0.671  15.609  0.1084 -0.2849  1.5559
 9339TIP3    H249433   0.530   0.528  15.622  0.0336 -0.3022  1.1202
 9340TIP3   OH249434   3.930   3.970   2.689  0.5143 -0.1214  0.0357
 9340TIP3    H149435   4.001   3.928   2.738  0.5355 -2.9800 -2.2023
 9340TIP3    H249436   3.974   4.014   2.616  0.0836 -1.5661 -1.1324
 9341TIP3   OH249437   6.541   3.589  15.764  0.2094  0.0123 -0.3151
 9341TIP3    H149438   6.607   3.596  15.833  0.1628 -1.2333 -0.1256
 9341TIP3    H249439   6.462   3.624  15.804  0.7675  1.7331 -0.6180
 9342TIP3   OH249440   3.329   1.703   4.022 -0.1350 -0.8195  0.0593
 9342TIP3    H149441   3.369   1.719   3.937  0.4913  1.7573  0.7521
 9342TIP3    H249442   3.378   1.628   4.057 -0.0252 -1.5455 -1.5885
 9343TIP3   OH249443   1.213   2.289   6.576  0.8064  0.3012  0.1135
 9343TIP3    H149444   1.181   2.378   6.589 -0.9967  0.0484 -2.0981
 9343TIP3    H249445   1.290   2.299   6.520  0.6600  0.4844 -0.0565
 9344TIP3   OH249446   1.381   2.734   3.199 -0.2365 -0.1484  0.2741
 9344TIP3    H149447   1.446   2.778   3.144 -1.5117  2.0582  0.4077
 9344TIP3    H249448   1.406   2.756   3.288 -0.9009  0.3721  0.3414
 9345TIP3   OH249449   1.339   2.797   2.565 -0.3617 -0.6858  0.6211
 9345TIP3    H149450   1.357   2.715   2.519 -1.6205 -0.7846  0.2696
 9345TIP3    H249451   1.250   2.788   2.598 -0.1201  0.0999  1.5667
 9346TIP3   OH249452   2.871   5.068   3.345  0.8860 -0.3254  0.0427
 9346TIP3    H149453   2.787   5.059   3.301  0.2660 -0.3938  1.2064
 9346TIP3    H249454   2.908   4.980   3.346  0.8291 -0.3527 -0.1816
 9347TIP3   OH249455   2.739   2.756  11.682  0.3625 -0.1310 -0.5519
 9347TIP3    H149456   2.720   2.849  11.696  0.9680  0.4467 -3.0948
 9347TIP3    H249457   2.653   2.716  11.667  0.2335  0.3962 -1.2820
 9348TIP3   OH249458   5.223   2.652  11.883  0.0439 -0.3186 -0.2514
 9348TIP3    H149459   5.219   2.745  11.902  0.3623 -0.4809  0.6178
 9348TIP3    H249460   5.316   2.630  11.883  0.3565  0.1327 -4.4250
 9349TIP3   OH249461   4.789   3.028  17.344  0.0116  0.0457 -0.3697
 9349TIP3    H149462   4.783   3.037  17.249  1.3170 -1.3879 -0.6217
 9349TIP3    H249463   4.882   3.039  17.364 -0.2267  0.2377  0.7365
 9350TIP3   OH249464   6.462   3.930   1.947  0.0180 -0.1324  0.3283
 9350TIP3    H149465   6.525   3.986   1.993  0.3660 -0.2811  0.0424
 9350TIP3    H249466   6.508   3.847   1.934 -0.7892 -0.8001  1.4956
 9351TIP3   OH249467   5.823   0.790  12.225  0.3625  0.8796  0.1950
 9351TIP3    H149468   5.830   0.716  12.164 -0.5843  1.2560 -0.3979
 9351TIP3    H249469   5.913   0.807  12.253  0.7751  0.4603 -0.8213
 9352TIP3   OH249470   2.473   0.511   1.703 -0.1529 -0.1952 -0.0728
 9352TIP3    H149471   2.433   0.586   1.747 -0.7426  0.6387 -1.9037
 9352TIP3    H249472   2.558   0.500   1.745  0.1608  1.8475 -0.0941
 9353TIP3   OH249473   2.729   1.472  13.150 -0.5522 -0.3638  0.0375
 9353TIP3    H149474   2.815   1.440  13.175 -0.4755  0.3974  0.8064
 9353TIP3    H249475   2.668   1.426  13.208 -0.3379  1.7349  2.0800
 9354TIP3   OH249476   3.412   4.193  12.204  0.1471 -0.3986  0.5784
 9354TIP3    H149477   3.399   4.278  12.162 -0.2788  1.1970  3.6384
 9354TIP3    H249478   3.369   4.201  12.289  0.5170 -3.5409  1.2035
 9355TIP3   OH249479   6.120   6.425  16.246  0.3095  0.2264  0.5147
 9355TIP3    H149480   6.194   6.367  16.261  0.0387  0.0508  1.2300
 9355TIP3    H249481   6.048   6.384  16.293 -0.8106 -0.7401 -1.8359
 9356TIP3   OH249482   3.813   2.064   2.672  0.2242  0.2032 -0.2446
 9356TIP3    H149483   3.869   2.057   2.595  1.4083  0.2937  0.5721
 9356TIP3    H249484   3.726   2.084   2.638  0.2635 -1.7615 -1.6723
 9357TIP3   OH249485   0.243   5.588   3.220 -0.3781  0.1463  0.0793
 9357TIP3    H149486   0.172   5.622   3.274  1.0218 -0.4725  2.4177
 9357TIP3    H249487   0.250   5.495   3.244  1.8796  0.4293  0.7601
 9358TIP3   OH249488   0.707   3.366  12.690 -0.5407 -0.6566  0.0694
 9358TIP3    H149489   0.770   3.356  12.762  0.2119  1.7690 -0.1417
 9358TIP3    H249490   0.712   3.283  12.642  0.7437 -1.4113  1.4230
 9359TIP3   OH249491   2.000   4.034  15.212 -0.4266  0.8429  0.1287
 9359TIP3    H149492   1.977   4.122  15.180 -0.0893  0.1930 -2.0630
 9359TIP3    H249493   2.063   4.001  15.148 -0.0388 -0.7660  1.2821
 9360TIP3   OH249494   5.416   4.366   1.824 -0.2913 -0.3290 -0.6037
 9360TIP3    H149495   5.481   4.436   1.835 -0.9543  0.1889  0.0939
 9360TIP3    H249496   5.352   4.402   1.763 -0.8495 -0.1630  0.0697
 9361TIP3   OH249497   3.059   1.511  13.613  0.3562  0.6537  0.5412
 9361TIP3    H149498   3.049   1.425  13.654 -0.7867  1.0417  1.1216
 9361TIP3    H249499   3.108   1.562  13.678  0.5542  0.5952  0.4366
 9362TIP3   OH249500   4.327   0.722  16.088 -0.1547  0.0704 -0.2256
 9362TIP3    H149501   4.352   0.790  16.026 -1.2495  0.5586 -0.1444
 9362TIP3    H249502   4.389   0.650  16.070  0.2539  0.6218 -1.1146
 9363TIP3   OH249503   4.770   5.352  11.902 -0.1881 -0.2415 -0.6713
 9363TIP3    H149504   4.710   5.283  11.875 -0.0597 -1.2251  1.4009
 9363TIP3    H249505   4.841   5.307  11.947  0.1178  1.1926  0.3727
 9364TIP3   OH249506   0.692   0.158  10.781 -0.1248  0.3567  0.4328
 9364TIP3    H149507   0.781   0.122  10.776 -0.5382 -0.6205 -0.3655
 9364TIP3    H249508   0.652   0.132  10.698 -1.0168  1.1856  0.5896
 9365TIP3   OH249509   5.303   0.538  11.538 -0.1087 -0.3937  0.2413
 9365TIP3    H149510   5.254   0.617  11.513  1.2174  0.4827  0.3324
 9365TIP3    H249511   5.383   0.541  11.486  0.3382 -1.2461  0.8491
 9366TIP3   OH249512   1.809   3.949   0.661 -0.2116  0.3533  0.4260
 9366TIP3    H149513   1.743   3.993   0.715  2.3521  1.1431  3.1520
 9366TIP3    H249514   1.873   4.017   0.642  0.3810 -0.6382 -1.2767
 9367TIP3   OH249515   5.048   6.529  17.104  0.3967  0.5836  0.2929
 9367TIP3    H149516   5.044   6.623  17.090  3.5308  0.5253 -2.2921
 9367TIP3    H249517   5.139   6.512  17.127  0.1912 -1.8831 -0.3944
 9368TIP3   OH249518   4.145   5.364  13.163 -0.5684  0.1172  0.5426
 9368TIP3    H149519   4.202   5.331  13.094  0.3648 -0.5260  1.5931
 9368TIP3    H249520   4.176   5.453  13.181  0.3442 -0.3499  1.3403
 9369TIP3   OH249521   1.482   2.162  13.331 -0.1327  0.1316  0.2611
 9369TIP3    H149522   1.564   2.130  13.368  0.6822  2.1075  0.3200
 9369TIP3    H249523   1.483   2.133  13.240 -1.2336 -3.1042  1.1750
 9370TIP3   OH249524   6.627   1.178   1.772 -0.0642 -0.0825 -0.5254
 9370TIP3    H149525   6.620   1.256   1.827 -0.9342  0.1716 -0.9833
 9370TIP3    H249526   6.721   1.159   1.770  0.0714  0.4483  0.2834
 9371TIP3   OH249527   5.626   5.106  14.458 -0.2396  0.0952  0.3198
 9371TIP3    H149528   5.622   5.192  14.500  0.8438  1.2032 -1.6678
 9371TIP3    H249529   5.705   5.110  14.404 -1.3349 -1.3383 -1.5109
 9372TIP3   OH249530   4.771   5.038  16.406 -0.1105 -0.7520  0.1604
 9372TIP3    H149531   4.712   5.113  16.414 -2.4056 -2.3409 -0.9116
 9372TIP3    H249532   4.719   4.963  16.434  1.2326 -2.3070 -1.2905
 9373TIP3   OH249533   0.337   2.166   1.379 -0.2006 -0.6944  0.8307
 9373TIP3    H149534   0.306   2.233   1.318  1.0839 -1.4289 -0.7330
 9373TIP3    H249535   0.305   2.084   1.342  0.6709 -1.1612  1.0917
 9374TIP3   OH249536   1.495   4.051  10.645  0.4428 -0.5700 -0.6845
 9374TIP3    H149537   1.498   4.097  10.561 -0.5002 -0.4732 -0.6752
 9374TIP3    H249538   1.456   4.114  10.705  0.5528 -0.8572 -0.3126
 9375TIP3   OH249539   1.263   2.602  14.486  0.0901 -0.2358 -0.1376
 9375TIP3    H149540   1.287   2.694  14.471  2.6495 -0.5258  1.6556
 9375TIP3    H249541   1.186   2.607  14.543  0.2872  0.8097  0.0660
 9376TIP3   OH249542   2.138   2.714   5.124 -0.3511 -0.4200  0.0710
 9376TIP3    H149543   2.058   2.750   5.085  0.2350  1.1328  0.2436
 9376TIP3    H249544   2.185   2.675   5.050 -0.5022  0.1076 -0.3090
 9377TIP3   OH249545   4.586   4.024   0.749  0.0870  0.4738 -0.0412
 9377TIP3    H149546   4.595   4.033   0.844  1.0823  0.6837 -0.1389
 9377TIP3    H249547   4.529   3.948   0.737  1.9223 -1.1115  0.7421
 9378TIP3   OH249548   3.294   2.991   5.587 -0.4706  0.2904  0.2977
 9378TIP3    H149549   3.313   3.008   5.494  2.8932 -1.0265  0.6258
 9378TIP3    H249550   3.317   3.073   5.631 -3.1684  1.3275 -0.0276
 9379TIP3   OH249551   4.351   4.615   3.151  0.2195  0.3434  0.6181
 9379TIP3    H149552   4.275   4.578   3.108  1.0672 -1.2134  0.3840
 9379TIP3    H249553   4.329   4.707   3.165 -0.4240  0.7162 -2.3379
 9380TIP3   OH249554   4.493   4.956  11.101  0.2465  0.1270 -0.4742
 9380TIP3    H149555   4.492   4.883  11.163 -0.0134  1.2692  0.9105
 9380TIP3    H249556   4.512   4.915  11.017  0.6375 -1.4728  0.3492
 9381TIP3   OH249557   0.332   3.732   5.850  0.1659  0.5916  0.6847
 9381TIP3    H149558   0.322   3.647   5.808  1.1663 -0.2566  2.0801
 9381TIP3    H249559   0.381   3.784   5.787 -2.5994  1.0581 -1.2948
 9382TIP3   OH249560   2.908   4.752  12.376 -0.2576 -0.0134 -0.0018
 9382TIP3    H149561   2.935   4.816  12.310 -0.6454 -1.2325 -1.3851
 9382TIP3    H249562   2.988   4.704  12.397 -0.3413 -0.3464 -0.4195
 9383TIP3   OH249563   6.122   5.409   1.567 -0.2742 -0.0282  0.2697
 9383TIP3    H149564   6.116   5.408   1.662 -0.7360  1.5138  0.2866
 9383TIP3    H249565   6.216   5.410   1.549 -0.1564 -1.6573  0.6454
 9384TIP3   OH249566   0.228   4.155  13.824 -0.1120  0.1712 -0.4493
 9384TIP3    H149567   0.154   4.096  13.812  0.4485 -0.3871 -1.2821
 9384TIP3    H249568   0.206   4.233  13.772 -0.0216 -0.0856 -0.8770
 9385TIP3   OH249569   2.827   4.890   0.517 -0.6351  0.2545 -0.0630
 9385TIP3    H149570   2.885   4.967   0.513  0.4385 -0.4678  0.8386
 9385TIP3    H249571   2.836   4.848   0.432 -1.4462  1.2534 -0.6672
 9386TIP3   OH249572   3.412   4.550   2.486  0.1926  0.1388 -0.3724
 9386TIP3    H149573   3.504   4.548   2.460  0.4406 -1.5758  0.5393
 9386TIP3    H249574   3.406   4.491   2.561 -1.6826  0.1002 -0.4983
 9387TIP3   OH249575   1.670   3.592   1.527  0.6710  0.0142 -0.2649
 9387TIP3    H149576   1.619   3.662   1.487 -0.2559 -0.8684 -0.7007
 9387TIP3    H249577   1.643   3.513   1.479  3.5627 -0.3334 -1.5777
 9388TIP3   OH249578   3.389   1.066   2.511 -0.4189  0.2459 -0.5386
 9388TIP3    H149579   3.321   1.130   2.534  1.1546  1.5828  0.6782
 9388TIP3    H249580   3.459   1.119   2.472  0.1650 -1.0198 -1.2730
 9389TIP3   OH249581   1.487   3.155  12.426  0.3553 -0.4554  0.8719
 9389TIP3    H149582   1.424   3.140  12.496  0.6622 -1.7678  0.8792
 9389TIP3    H249583   1.457   3.100  12.354 -0.4679  1.5358 -0.3959
 9390TIP3   OH249584   0.944   5.060   2.886 -0.5974 -0.5402  0.0768
 9390TIP3    H149585   0.971   5.137   2.836 -0.5410 -0.7031 -0.1467
 9390TIP3    H249586   0.943   5.090   2.977  0.2181 -0.4925  0.0773
 9391TIP3   OH249587   1.025   4.983  13.106  0.1574  0.2831 -0.1481
 9391TIP3    H149588   0.937   5.019  13.096 -0.2678 -0.7318 -0.2573
 9391TIP3    H249589   1.083   5.052  13.075 -0.6745  0.5051 -1.2993
 9392TIP3   OH249590   1.361   4.356  14.213 -0.1162 -0.4174  0.3899
 9392TIP3    H149591   1.352   4.446  14.180 -3.3192 -0.6315  0.3098
 9392TIP3    H249592   1.425   4.315  14.155  0.9638  1.6157  0.0466
 9393TIP3   OH249593   4.381   0.388   1.430  0.2279 -0.0551  0.2064
 9393TIP3    H149594   4.292   0.362   1.450  0.0824  1.0917  1.2087
 9393TIP3    H249595   4.434   0.309   1.446 -0.0904  0.2729  3.7906
 9394TIP3   OH249596   3.508   5.313   5.412 -0.1915 -0.6488 -0.3572
 9394TIP3    H149597   3.509   5.407   5.429  1.2810 -0.3536 -1.7433
 9394TIP3    H249598   3.440   5.301   5.346 -1.7224 -0.8859  1.2091
 9395TIP3   OH249599   0.479   1.008  16.116 -0.2843 -0.2639 -0.2575
 9395TIP3    H149600   0.556   1.055  16.146  0.1218 -0.8149 -0.4354
 9395TIP3    H249601   0.494   0.993  16.023  0.1008 -1.7208  0.0251
 9396TIP3   OH249602   0.544   2.188   2.391  0.0010  0.0880 -0.3653
 9396TIP3    H149603   0.599   2.241   2.333  1.2674 -0.4829  0.2624
 9396TIP3    H249604   0.606   2.148   2.452 -0.8723 -2.2576 -0.9061
 9397TIP3   OH249605   3.492   3.552   4.887  0.5478  0.0249  0.0677
 9397TIP3    H149606   3.427   3.505   4.941 -0.4951  0.0736 -1.1042
 9397TIP3    H249607   3.453   3.638   4.874  1.1168  0.2406 -0.1871
 9398TIP3   OH249608   3.258   2.721   4.019 -0.1482 -0.0590  0.0986
 9398TIP3    H149609   3.305   2.640   4.000 -0.8203 -0.6059  0.6835
 9398TIP3    H249610   3.299   2.755   4.099 -0.2344 -0.1193  0.1685
 9399TIP3   OH249611   5.820   5.686  12.031  0.1880 -0.0915 -0.4581
 9399TIP3    H149612   5.839   5.634  12.109 -0.0194  0.1625 -0.2392
 9399TIP3    H249613   5.725   5.687  12.025  0.2032 -0.1063 -0.7118
 9400TIP3   OH249614   2.604   6.445  14.879 -0.1892 -0.1475  0.4723
 9400TIP3    H149615   2.541   6.428  14.949  0.9109  2.9471  2.4553
 9400TIP3    H249616   2.666   6.373  14.884 -0.5953 -0.4351  2.2116
 9401TIP3   OH249617   6.137   3.391  11.695  0.1386  0.0462 -0.4299
 9401TIP3    H149618   6.074   3.382  11.623 -0.3329  0.1383 -0.0367
 9401TIP3    H249619   6.128   3.482  11.723  0.6189  0.1255 -0.5191
 9402TIP3   OH249620   1.071   0.044  12.568  0.0180 -0.0459  0.0092
 9402TIP3    H149621   1.041   0.134  12.550  0.5882 -0.0677 -1.1826
 9402TIP3    H249622   1.002   0.006  12.621 -1.0235  0.5907 -0.8477
 9403TIP3   OH249623   0.071   3.937   3.695 -0.1195  0.0408 -0.4209
 9403TIP3    H149624   0.030   3.964   3.613  1.0269  1.3196 -0.6177
 9403TIP3    H249625   0.033   3.852   3.714 -2.7238  1.0517 -0.6575
 9404TIP3   OH249626   3.420   5.588  17.032 -0.1416  0.1231  0.3935
 9404TIP3    H149627   3.488   5.529  16.998 -0.1220  1.0747 -1.3243
 9404TIP3    H249628   3.340   5.562  16.986  0.2316  2.5496 -1.8554
 9405TIP3   OH249629   3.681   6.717   2.413  0.1335 -0.0783  0.0252
 9405TIP3    H149630   3.725   6.677   2.338  1.2167  2.4593 -0.7975
 9405TIP3    H249631   3.588   6.717   2.389  0.2394 -0.9576 -0.4530
 9406TIP3   OH249632   0.253   1.147   6.455  0.1644 -0.3007  0.3460
 9406TIP3    H149633   0.300   1.064   6.460 -0.1911 -0.5451 -0.3703
 9406TIP3    H249634   0.164   1.124   6.429 -0.8035  0.0095  3.0098
 9407TIP3   OH249635   6.643   2.353   3.471  0.2203 -0.0162  0.1099
 9407TIP3    H149636   6.634   2.291   3.544 -1.6999 -2.6962 -2.1861
 9407TIP3    H249637   6.698   2.308   3.407 -0.8776  0.7956 -1.4691
 9408TIP3   OH249638   5.057   2.789   6.580  0.7510  0.8566  0.1518
 9408TIP3    H149639   5.011   2.854   6.526 -0.9356  0.9971  1.6421
 9408TIP3    H249640   5.018   2.705   6.555  2.1863  0.4946 -1.0188
 9409TIP3   OH249641   5.114   6.050  10.706 -0.4328 -0.4918 -0.3779
 9409TIP3    H149642   5.180   5.990  10.671  0.6995 -1.2564  2.6749
 9409TIP3    H249643   5.147   6.137  10.685  0.6498 -0.9033 -0.4602
 9410TIP3   OH249644   5.705   5.097  17.318 -0.1820 -1.0673 -0.0020
 9410TIP3    H149645   5.797   5.073  17.331  0.4771 -0.3893 -2.8804
 9410TIP3    H249646   5.658   5.014  17.317  0.2335 -1.3824  2.1759
 9411TIP3   OH249647   4.346   1.081  16.268 -0.3319  0.3200  0.5747
 9411TIP3    H149648   4.388   1.002  16.234  0.0290  0.2138  1.2586
 9411TIP3    H249649   4.417   1.146  16.273 -0.6826  0.7875 -0.2603
 9412TIP3   OH249650   4.426   2.024  12.038 -0.6160 -0.3353  0.0742
 9412TIP3    H149651   4.498   2.017  12.101 -1.8269 -0.8449  1.4400
 9412TIP3    H249652   4.424   1.939  11.994 -1.2632 -0.8333  1.0397
 9413TIP3   OH249653   2.414   2.580   5.044  0.1199  1.0994  0.7478
 9413TIP3    H149654   2.451   2.646   5.102  1.0458  0.3253  1.0708
 9413TIP3    H249655   2.490   2.540   5.002 -0.4898  1.0022 -0.2925
 9414TIP3   OH249656   4.003   4.299  16.358  0.3078 -0.0761  0.1440
 9414TIP3    H149657   3.963   4.375  16.399  0.1698 -0.9285  1.6868
 9414TIP3    H249658   4.076   4.277  16.416  0.7056 -0.7611 -0.6045
 9415TIP3   OH249659   0.502   1.281  15.033  0.6503  1.1392 -0.1489
 9415TIP3    H149660   0.451   1.217  14.982  1.3289  1.1323 -0.8374
 9415TIP3    H249661   0.581   1.295  14.981  0.3087  2.8987 -0.2388
 9416TIP3   OH249662   0.212   5.110   0.536 -0.3219  0.2587  0.2224
 9416TIP3    H149663   0.138   5.124   0.478  0.3721 -0.2341 -0.8199
 9416TIP3    H249664   0.223   5.015   0.540 -0.2606  0.2870  1.0503
 9417TIP3   OH249665   6.591   4.362  15.829 -0.0629 -0.6244 -0.5711
 9417TIP3    H149666   6.618   4.438  15.778  2.6136 -1.2191 -0.1986
 9417TIP3    H249667   6.673   4.326  15.864 -1.2504 -3.4969 -0.4586
 9418TIP3   OH249668   2.382   5.001  11.114  0.2231 -0.1980 -0.4664
 9418TIP3    H149669   2.378   5.079  11.169 -0.4141  0.2487 -1.1225
 9418TIP3    H249670   2.332   5.025  11.036 -1.3288 -1.7834 -0.0315
 9419TIP3   OH249671   0.444   4.274   2.799 -0.1377  0.1889  0.0452
 9419TIP3    H149672   0.471   4.184   2.817 -1.8158 -0.5071 -0.7203
 9419TIP3    H249673   0.407   4.306   2.882  0.8207  0.3354  0.4293
 9420TIP3   OH249674   4.943   0.413   5.243  0.2393 -0.1666 -0.0759
 9420TIP3    H149675   5.002   0.434   5.170  2.8484 -0.0997  1.8966
 9420TIP3    H249676   4.967   0.324   5.268  0.1879  0.2040  1.3687
 9421TIP3   OH249677   1.232   3.019  14.094 -0.2652 -0.6749  0.3539
 9421TIP3    H149678   1.304   2.979  14.046  1.4089  0.2450  1.9681
 9421TIP3    H249679   1.229   2.974  14.178  0.9441  1.6760  1.7763
 9422TIP3   OH249680   1.631   1.072   0.854  0.2507 -0.4210  0.0500
 9422TIP3    H149681   1.610   0.979   0.862 -0.3119 -0.2889  0.1190
 9422TIP3    H249682   1.585   1.114   0.927 -0.3432  0.0488 -0.5859
 9423TIP3   OH249683   3.000   3.496   3.619 -0.1326  0.2802 -0.2648
 9423TIP3    H149684   3.089   3.524   3.639  0.4529 -1.5305 -0.1795
 9423TIP3    H249685   3.010   3.410   3.578 -1.8436  0.0287 -0.2448
 9424TIP3   OH249686   4.601   2.311  15.527 -0.1560 -0.2075  0.5555
 9424TIP3    H149687   4.529   2.283  15.471 -0.5771  1.7131  0.0677
 9424TIP3    H249688   4.618   2.401  15.501  1.5098 -0.1783  1.6234
 9425TIP3   OH249689   3.775   3.782  11.332 -0.8964  0.0090  0.0967
 9425TIP3    H149690   3.738   3.725  11.265  1.1358 -2.8287  1.1856
 9425TIP3    H249691   3.702   3.800  11.391 -1.2585 -3.5720  0.9981
 9426TIP3   OH249692   2.291   1.413  11.880 -0.2965  0.3470  0.0454
 9426TIP3    H149693   2.366   1.354  11.869  0.5810  1.1296  1.4248
 9426TIP3    H249694   2.217   1.366  11.844  0.6956 -0.8571 -0.4857
 9427TIP3   OH249695   5.804   5.101  14.264 -0.5245  0.4576 -0.1032
 9427TIP3    H149696   5.811   5.138  14.176 -0.8162  0.4694 -0.1218
 9427TIP3    H249697   5.816   5.007  14.252 -0.6111  0.4544 -0.1614
 9428TIP3   OH249698   4.190   6.749   3.459 -0.3581 -0.4855 -0.7281
 9428TIP3    H149699   4.282   6.721   3.457  0.1723  1.1672 -1.7556
 9428TIP3    H249700   4.188   6.818   3.526 -0.9409 -0.7569 -0.4602
 9429TIP3   OH249701   2.634   1.391  14.423 -0.6532 -0.4834  0.1783
 9429TIP3    H149702   2.595   1.452  14.360 -1.6036 -0.5725  0.6631
 9429TIP3    H249703   2.713   1.435  14.454 -0.8148  0.0799 -0.1885
 9430TIP3   OH249704   6.713   1.792  17.299 -0.1634 -0.2304  0.6337
 9430TIP3    H149705   6.770   1.717  17.285  0.5983  0.3365  0.6116
 9430TIP3    H249706   6.629   1.767  17.261 -0.6777 -2.0204  2.7683
 9431TIP3   OH249707   2.301   0.730   2.996 -0.0426 -0.3081  0.3364
 9431TIP3    H149708   2.233   0.674   3.034  0.3567  0.0481  1.6480
 9431TIP3    H249709   2.368   0.736   3.065  0.0771  1.4999  0.1114
 9432TIP3   OH249710   5.329   2.218  13.346  0.2549  0.2236 -0.3209
 9432TIP3    H149711   5.255   2.159  13.363  1.0068 -0.6703 -0.1036
 9432TIP3    H249712   5.397   2.161  13.310  0.9186  1.0043 -0.3146
 9433TIP3   OH249713   6.306   2.274  12.316  0.3042  0.5841 -0.6812
 9433TIP3    H149714   6.348   2.253  12.400 -0.6568  0.3964 -0.2322
 9433TIP3    H249715   6.339   2.361  12.294 -0.3982  1.2006  0.5579
 9434TIP3   OH249716   5.721   3.336   2.621 -0.4593 -0.3339  0.4406
 9434TIP3    H149717   5.703   3.396   2.693 -2.2456  1.1419 -1.1387
 9434TIP3    H249718   5.805   3.367   2.585  0.1358 -0.7047  1.4649
 9435TIP3   OH249719   6.377   4.895  15.108  0.1519 -0.2409  0.3893
 9435TIP3    H149720   6.365   4.837  15.034  1.0770  0.0690 -0.0205
 9435TIP3    H249721   6.411   4.839  15.178  0.6542 -0.2762  0.1210
 9436TIP3   OH249722   1.995   6.121   6.085 -0.0701  0.1498  0.0961
 9436TIP3    H149723   2.050   6.058   6.038  0.5833 -0.0412  1.0862
 9436TIP3    H249724   2.056   6.170   6.140 -0.4500  2.1890 -1.1864
 9437TIP3   OH249725   2.638   3.211   6.234 -0.2233 -0.1372 -0.3625
 9437TIP3    H149726   2.618   3.220   6.327 -1.3529 -3.1682 -0.1878
 9437TIP3    H249727   2.577   3.269   6.190  0.0318  1.0152  0.7404
 9438TIP3   OH249728   3.065   3.498   1.604 -0.2503  0.1657  0.6144
 9438TIP3    H149729   3.067   3.468   1.513 -0.3549  0.8062  0.3910
 9438TIP3    H249730   3.131   3.567   1.608  0.0419 -0.1421  1.1336
 9439TIP3   OH249731   6.564   4.377   0.536 -0.3468  0.1797  0.4466
 9439TIP3    H149732   6.510   4.357   0.613  1.8853  1.1336  2.4109
 9439TIP3    H249733   6.644   4.326   0.549  0.5024  1.1589 -0.6949
 9440TIP3   OH249734   4.999   5.826   4.245 -0.4156  0.2561  0.5351
 9440TIP3    H149735   4.997   5.913   4.204  1.0177 -0.2335 -0.7071
 9440TIP3    H249736   4.997   5.843   4.339  0.4971  1.6883  0.3305
 9441TIP3   OH249737   4.245   2.986  11.273 -0.7478 -0.2555  0.4622
 9441TIP3    H149738   4.241   3.081  11.263 -1.1779 -0.3775 -0.5808
 9441TIP3    H249739   4.157   2.956  11.254 -0.1037 -1.0518 -1.5750
 9442TIP3   OH249740   2.041   3.213   4.585  0.3222 -0.7111  0.3680
 9442TIP3    H149741   2.121   3.161   4.580  1.0443  0.4077 -0.4726
 9442TIP3    H249742   2.026   3.243   4.495 -1.1706 -1.0605  0.4758
 9443TIP3   OH249743   6.634   5.823   5.434 -0.4287  0.3860  0.0789
 9443TIP3    H149744   6.577   5.900   5.429 -0.2952  0.4077 -1.4622
 9443TIP3    H249745   6.717   5.853   5.397 -0.2440 -0.3903 -0.1394
 9444TIP3   OH249746   3.409   1.133   3.204 -0.0854  0.9333 -0.1335
 9444TIP3    H149747   3.493   1.093   3.225  1.0519  2.3510 -1.6787
 9444TIP3    H249748   3.368   1.072   3.142  0.9170  1.3462 -1.2390
 9445TIP3   OH249749   5.435   5.822  14.157 -0.1211  0.5765 -0.0311
 9445TIP3    H149750   5.529   5.840  14.153  0.1670 -0.4120  1.2819
 9445TIP3    H249751   5.400   5.851  14.073  1.4640  0.3817 -0.7817
 9446TIP3   OH249752   1.476   6.604   5.066  0.1799 -0.3881  0.6414
 9446TIP3    H149753   1.559   6.558   5.081 -0.4643 -1.9781 -0.4397
 9446TIP3    H249754   1.432   6.553   4.998 -0.7598  1.6438 -0.3522
 9447TIP3   OH249755   3.229   3.747  12.216 -0.2194  0.3613 -0.1351
 9447TIP3    H149756   3.298   3.812  12.231  0.7289 -0.2181 -1.7611
 9447TIP3    H249757   3.238   3.685  12.288 -1.3543  2.1335  1.6479
 9448TIP3   OH249758   3.099   3.815  13.463  0.9080 -0.3641 -0.1714
 9448TIP3    H149759   3.083   3.725  13.493  1.7218 -0.6699 -0.6376
 9448TIP3    H249760   3.026   3.865  13.500 -0.3165 -1.4469 -0.9931
 9449TIP3   OH249761   1.090   3.779   1.436 -0.3541 -0.6216 -0.1020
 9449TIP3    H149762   1.144   3.709   1.400  1.2224 -0.3082  1.5430
 9449TIP3    H249763   1.141   3.859   1.422 -0.5633 -0.2615  1.0919
 9450TIP3   OH249764   4.167   3.125  14.667  0.6845  0.2917  0.2079
 9450TIP3    H149765   4.114   3.048  14.649 -2.2475  2.3215 -0.5639
 9450TIP3    H249766   4.220   3.136  14.588  0.5829 -0.4990  0.0195
 9451TIP3   OH249767   2.747   0.516  13.349  0.2900 -0.5561  0.1823
 9451TIP3    H149768   2.748   0.468  13.432  0.0358 -2.3057 -0.7706
 9451TIP3    H249769   2.656   0.515  13.321  0.8167 -3.4001 -1.9119
 9452TIP3   OH249770   0.613   2.074   4.468 -0.2618 -0.0485  0.0396
 9452TIP3    H149771   0.703   2.063   4.499  0.4854  0.6655 -1.7471
 9452TIP3    H249772   0.586   2.159   4.503 -0.1981 -0.1881  0.4386
 9453TIP3   OH249773   3.567   5.616  16.694 -0.0643 -0.2359  0.4665
 9453TIP3    H149774   3.497   5.559  16.726 -0.1680  0.1682  0.9662
 9453TIP3    H249775   3.527   5.702  16.687  0.7404  0.3115  2.1098
 9454TIP3   OH249776   4.667   4.321   0.088 -0.6587 -0.1179 -0.1270
 9454TIP3    H149777   4.742   4.354   0.137 -1.4650  2.4205 -0.4366
 9454TIP3    H249778   4.662   4.228   0.111  1.7476 -0.0560  0.9251
 9455TIP3   OH249779   3.679   0.639  15.786 -0.5070  0.5600 -0.1177
 9455TIP3    H149780   3.623   0.661  15.860 -0.4724 -0.2688  0.1649
 9455TIP3    H249781   3.618   0.610  15.718 -0.4373 -0.1938  0.1367
 9456TIP3   OH249782   6.730   3.210  15.838 -0.4708  0.1222  0.6066
 9456TIP3    H149783   6.639   3.200  15.865 -0.3122 -2.0876  0.4759
 9456TIP3    H249784   6.780   3.168  15.907  0.3817  0.3017  0.1140
 9457TIP3   OH249785   6.694   1.836  15.694  0.0227  0.1642  0.4158
 9457TIP3    H149786   6.650   1.823  15.778  0.6488 -0.2160  0.6821
 9457TIP3    H249787   6.755   1.764  15.686  0.7540  0.7981  0.1347
 9458TIP3   OH249788   3.249   0.792  15.066  0.3575 -0.0880 -0.1226
 9458TIP3    H149789   3.236   0.774  14.973  0.8595 -1.8043  0.1007
 9458TIP3    H249790   3.321   0.854  15.069 -1.1658  1.8310 -0.9397
 9459TIP3   OH249791   4.748   1.770   0.219 -0.1977 -0.1706  0.3363
 9459TIP3    H149792   4.761   1.859   0.187  0.0122 -0.5738 -0.7098
 9459TIP3    H249793   4.694   1.781   0.298  0.8186  0.9633  0.8973
 9460TIP3   OH249794   0.086   6.111  12.331 -0.1274  0.0420 -0.5679
 9460TIP3    H149795   0.049   6.023  12.340 -0.0513  0.1279  0.7806
 9460TIP3    H249796   0.016   6.162  12.288 -0.3147 -0.5780 -1.0049
 9461TIP3   OH249797   1.143   2.123  12.470  0.3810  0.4852  0.0544
 9461TIP3    H149798   1.231   2.118  12.432  0.9916  0.0940  1.4707
 9461TIP3    H249799   1.153   2.176  12.548 -0.5627  0.0871  0.4632
 9462TIP3   OH249800   1.830   0.111  16.773  0.8319 -0.0316  0.3559
 9462TIP3    H149801   1.922   0.121  16.798  0.8214  0.0993  0.3435
 9462TIP3    H249802   1.832   0.051  16.699  0.9785  0.5584 -0.1267
 9463TIP3   OH249803   2.186   0.047  12.677  0.0140 -0.3090  0.2737
 9463TIP3    H149804   2.108   0.026  12.728  0.7406 -0.5012  1.3381
 9463TIP3    H249805   2.159   0.038  12.585 -1.6226  1.1085  0.5679
 9464TIP3   OH249806   5.073   5.626  12.638 -0.5115  0.2447 -0.2723
 9464TIP3    H149807   5.017   5.703  12.649 -2.4862 -1.1312 -0.0558
 9464TIP3    H249808   5.051   5.593  12.551  0.9084  0.3439 -0.6888
 9465TIP3   OH249809   2.216   0.650  10.943  0.1239 -0.2885 -0.2482
 9465TIP3    H149810   2.125   0.670  10.967 -0.4632  0.7798 -3.0122
 9465TIP3    H249811   2.215   0.557  10.920 -0.6041 -0.0184 -1.4053
 9466TIP3   OH249812   2.859   0.064  13.388 -0.2731  0.0122  0.2165
 9466TIP3    H149813   2.811   0.110  13.457  0.8155 -0.0080  1.0102
 9466TIP3    H249814   2.865  -0.027  13.418  0.5465  0.0837  0.3040
 9467TIP3   OH249815   5.193   1.340  12.570  0.1882  0.0464  0.2952
 9467TIP3    H149816   5.203   1.400  12.496 -0.7935 -0.4999 -0.2999
 9467TIP3    H249817   5.170   1.397  12.643 -0.4453  0.4407 -0.1943
 9468TIP3   OH249818   0.070   1.220  14.385  0.4488 -0.0541  0.3363
 9468TIP3    H149819   0.160   1.226  14.352  0.6233 -2.4662  0.1613
 9468TIP3    H249820   0.016   1.209  14.307  0.6219 -3.4871  0.5294
 9469TIP3   OH249821   0.677   1.014   5.263  0.1818  0.0141  0.3159
 9469TIP3    H149822   0.634   0.959   5.198 -1.3453 -0.4715  1.6763
 9469TIP3    H249823   0.674   1.102   5.226  3.2872 -0.7373 -2.2266
 9470TIP3   OH249824   4.756   1.660  12.699  0.1055  0.1246 -0.7291
 9470TIP3    H149825   4.774   1.692  12.788  0.4846  1.2832 -1.2165
 9470TIP3    H249826   4.783   1.568  12.702 -0.4396 -0.0315  0.5146
 9471TIP3   OH249827   1.560   6.413   0.885  0.4006 -0.0667  0.1729
 9471TIP3    H149828   1.629   6.473   0.859 -1.1460  2.4126  1.4511
 9471TIP3    H249829   1.490   6.427   0.821  0.8633 -2.3685 -0.9652
 9472TIP3   OH249830   6.018   5.862   1.181  0.4469  0.4453  0.1726
 9472TIP3    H149831   6.069   5.831   1.107  0.6632 -0.2788  0.6179
 9472TIP3    H249832   5.987   5.783   1.225  0.6986  0.8411  1.1126
 9473TIP3   OH249833   0.552   2.603   6.273  0.3530  0.1958  0.2298
 9473TIP3    H149834   0.521   2.664   6.340  0.0913  0.0342  0.2577
 9473TIP3    H249835   0.570   2.522   6.320 -0.0150  0.0230  0.0787
 9474TIP3   OH249836   3.998   1.226  14.775 -0.1129  0.0520  0.6026
 9474TIP3    H149837   3.909   1.227  14.810 -0.2868  0.2865  0.1716
 9474TIP3    H249838   4.045   1.162  14.828 -1.0571 -1.5581 -0.4087
 9475TIP3   OH249839   1.187   2.751  13.942 -0.0805 -0.3491 -0.1292
 9475TIP3    H149840   1.191   2.794  14.027 -0.5838  0.5650 -0.5575
 9475TIP3    H249841   1.148   2.816  13.884  1.2895 -0.5446 -1.3303
 9476TIP3   OH249842   2.793   0.169   3.495  0.2624 -0.2662  0.2385
 9476TIP3    H149843   2.877   0.214   3.499  0.2921 -0.1835 -0.8247
 9476TIP3    H249844   2.803   0.093   3.552  0.3054  0.9058  1.8546
 9477TIP3   OH249845   0.887   4.169  13.482  0.1470  0.1898  0.1281
 9477TIP3    H149846   0.909   4.162  13.389  0.1948  0.5037  0.1148
 9477TIP3    H249847   0.870   4.262  13.496  0.1699  0.1484  0.4426
 9478TIP3   OH249848   5.944   6.120  15.677 -0.8035 -0.4984 -0.3219
 9478TIP3    H149849   5.977   6.030  15.681 -1.4390 -0.7456 -0.5309
 9478TIP3    H249850   5.960   6.146  15.586 -2.6865 -1.2226 -0.9207
 9479TIP3   OH249851   0.587   1.267  15.281  0.5687 -0.1483  0.7547
 9479TIP3    H149852   0.535   1.269  15.201  1.6190 -0.3906  0.0637
 9479TIP3    H249853   0.614   1.358  15.295  0.7430 -0.1764  0.5993
 9480TIP3   OH249854   3.543   1.146  12.413 -0.3793  0.1162  0.0754
 9480TIP3    H149855   3.542   1.132  12.319 -1.4558  1.3539 -0.1262
 9480TIP3    H249856   3.483   1.220  12.427  0.4354  0.5295  1.6235
 9481TIP3   OH249857   2.143   0.476  13.504 -0.2422  0.0388 -0.4611
 9481TIP3    H149858   2.115   0.401  13.555 -1.4283  0.0613 -1.0522
 9481TIP3    H249859   2.091   0.549  13.538  1.4713  0.8063  0.6686
 9482TIP3   OH249860   6.546   6.493  12.396 -0.6080 -0.7214 -0.3493
 9482TIP3    H149861   6.532   6.481  12.490 -0.7927 -3.2616 -0.6124
 9482TIP3    H249862   6.461   6.470  12.357 -0.0954 -1.2209 -1.1953
 9483TIP3   OH249863   5.173   6.421  16.037 -0.7151  0.0652 -0.4815
 9483TIP3    H149864   5.152   6.345  16.091 -1.7135 -0.1023 -1.0810
 9483TIP3    H249865   5.089   6.466  16.026  0.0418  1.9676  0.9020
 9484TIP3   OH249866   4.179   1.204  12.053 -0.1182 -0.4038 -0.2720
 9484TIP3    H149867   4.221   1.164  11.977  0.8403 -1.6259  0.8400
 9484TIP3    H249868   4.150   1.130  12.106 -3.4514  0.3897 -0.8010
 9485TIP3   OH249869   5.598   4.170   5.620  0.2757 -0.4186  0.2325
 9485TIP3    H149870   5.591   4.075   5.620  2.5029 -0.7039  2.4385
 9485TIP3    H249871   5.519   4.201   5.664  0.4365 -1.4091  1.2520
 9486TIP3   OH249872   5.905   0.276   0.962  0.4756 -0.3221 -0.0917
 9486TIP3    H149873   5.963   0.204   0.987  1.4256  0.1444 -0.8371
 9486TIP3    H249874   5.959   0.355   0.975  0.5740  0.0264 -2.2048
 9487TIP3   OH249875   2.745   6.092  13.753 -0.5633 -0.3882 -0.1463
 9487TIP3    H149876   2.710   6.102  13.841 -1.9549 -2.3495 -0.3924
 9487TIP3    H249877   2.799   6.169  13.739 -2.1620  1.1367  1.5406
 9488TIP3   OH249878   6.167   5.385   4.149 -0.6685  0.1427  0.1045
 9488TIP3    H149879   6.203   5.466   4.112  0.0664  0.4016  1.3236
 9488TIP3    H249880   6.157   5.327   4.074 -1.2035  1.3500 -0.7986
 9489TIP3   OH249881   2.742   4.763  15.011 -0.5269 -0.6746  0.3823
 9489TIP3    H149882   2.795   4.690  14.979  1.2005  1.3040 -1.6623
 9489TIP3    H249883   2.711   4.806  14.931 -1.2968  0.9421  1.4966
 9490TIP3   OH249884   0.729   4.574  13.997  0.0044 -0.2656  0.8570
 9490TIP3    H149885   0.707   4.502  14.057 -2.6086 -1.0896 -0.9110
 9490TIP3    H249886   0.756   4.531  13.916  1.9811  0.8277  0.8718
 9491TIP3   OH249887   1.156   3.556   1.288  0.5119 -0.0654 -0.6502
 9491TIP3    H149888   1.142   3.547   1.193  1.5295 -1.2318 -0.7173
 9491TIP3    H249889   1.124   3.474   1.324 -0.5062  0.6498  0.1204
 9492TIP3   OH249890   2.028   2.656   3.345  0.1194  0.7926  0.3886
 9492TIP3    H149891   2.029   2.646   3.250 -0.3293  0.0910  0.4458
 9492TIP3    H249892   1.981   2.737   3.361 -0.6666  0.4147  0.0356
 9493TIP3   OH249893   4.061   1.691  16.335  0.3362  0.0936 -0.2574
 9493TIP3    H149894   4.057   1.600  16.364  2.0287  0.4378  1.2353
 9493TIP3    H249895   3.969   1.717  16.324 -0.2699 -1.0649  1.6885
 9494TIP3   OH249896   4.354   2.971  17.030 -0.3361  0.4483 -0.8502
 9494TIP3    H149897   4.397   3.014  17.103 -2.4410  0.8298  0.2552
 9494TIP3    H249898   4.419   2.912  16.995  0.4325 -0.6159  2.0865
 9495TIP3   OH249899   2.042   2.649  15.870  0.0846 -0.2365  0.7126
 9495TIP3    H149900   1.993   2.650  15.952 -0.5122 -2.1145  0.4319
 9495TIP3    H249901   2.130   2.620  15.895  0.0423 -0.3279  0.7558
 9496TIP3   OH249902   6.572   4.007  14.844 -0.0144 -0.3904  0.1405
 9496TIP3    H149903   6.559   3.913  14.858 -0.5752 -0.3234  0.1184
 9496TIP3    H249904   6.575   4.017  14.749  1.9568 -0.6151  0.1470
 9497TIP3   OH249905   1.727   0.083   6.314 -0.0327 -0.1295 -0.3695
 9497TIP3    H149906   1.674   0.076   6.234  1.4868 -1.1252 -1.3608
 9497TIP3    H249907   1.790   0.152   6.294  0.8354 -0.9005 -0.3399
 9498TIP3   OH249908   5.852   3.316   3.673  0.1174 -0.5161 -0.0963
 9498TIP3    H149909   5.917   3.266   3.623  0.5825  0.1885 -0.2039
 9498TIP3    H249910   5.789   3.347   3.608 -0.3166 -1.1631  0.0027
 9499TIP3   OH249911   2.359   1.718  11.561  0.6335  0.1082 -0.0979
 9499TIP3    H149912   2.439   1.759  11.593  1.4425 -0.8976 -0.8051
 9499TIP3    H249913   2.363   1.725  11.466 -0.2647  0.3055 -0.1346
 9500TIP3   OH249914   4.472   2.041  15.345  0.6219  0.0384 -0.2262
 9500TIP3    H149915   4.449   2.083  15.427  2.7754  1.2652 -0.1818
 9500TIP3    H249916   4.408   2.073  15.282 -0.7047 -0.4724  0.8193
 9501TIP3   OH249917   4.328   2.291  12.503 -0.3585 -0.6528 -0.3594
 9501TIP3    H149918   4.367   2.319  12.421 -0.2712 -0.3328 -0.2074
 9501TIP3    H249919   4.354   2.199  12.512  1.8263 -0.0135  0.5925
 9502TIP3   OH249920   0.780   4.547  15.588 -0.0523  0.8073  0.1007
 9502TIP3    H149921   0.822   4.463  15.608  1.2686  1.7345  1.4736
 9502TIP3    H249922   0.687   4.526  15.577 -0.3760 -0.4424  3.8778
 9503TIP3   OH249923   1.865   6.081  11.052  0.2154 -0.3728  0.7391
 9503TIP3    H149924   1.884   6.037  11.135  2.3616 -0.0038  0.4808
 9503TIP3    H249925   1.907   6.167  11.060 -0.5866  0.1356 -0.2912
 9504TIP3   OH249926   4.554   1.430  16.993  0.5570  0.2114 -0.9954
 9504TIP3    H149927   4.499   1.479  16.932  1.3194  2.7484  0.2215
 9504TIP3    H249928   4.640   1.428  16.951  0.1054 -1.9051 -1.9311
 9505TIP3   OH249929   5.909   5.070  11.882 -1.0488  0.4632  0.2831
 9505TIP3    H149930   5.886   4.984  11.848  0.2462 -0.4637  1.6220
 9505TIP3    H249931   5.938   5.054  11.972 -0.1502  2.1990  0.3647
 9506TIP3   OH249932   1.276   5.755  16.687 -0.4469  0.2110 -0.3188
 9506TIP3    H149933   1.235   5.674  16.658 -3.0510  1.5384 -0.6759
 9506TIP3    H249934   1.253   5.819  16.620 -1.1686  1.9310  1.4646
 9507TIP3   OH249935   0.212   1.316   3.496  0.1346 -0.0678 -0.2887
 9507TIP3    H149936   0.216   1.223   3.474  0.2952 -0.0671 -0.2663
 9507TIP3    H249937   0.293   1.352   3.460 -0.0875  0.1260 -0.5865
 9508TIP3   OH249938   4.244   4.513   2.197  0.1400  0.3971 -0.2550
 9508TIP3    H149939   4.163   4.507   2.146  0.4701 -0.5365 -0.6921
 9508TIP3    H249940   4.302   4.448   2.157  0.9780  0.8033  0.2852
 9509TIP3   OH249941   4.361   2.721  14.470 -0.0798  0.1722  0.6092
 9509TIP3    H149942   4.360   2.814  14.447 -2.3084  0.1211  0.2766
 9509TIP3    H249943   4.398   2.678  14.394 -1.7657  0.5487 -0.4587
 9510TIP3   OH249944   4.982   3.372  16.420  0.4597  0.5394  0.0098
 9510TIP3    H149945   5.048   3.381  16.489 -0.0209 -0.4156  0.6119
 9510TIP3    H249946   4.927   3.451  16.429 -0.2486 -0.0758  1.4450
 9511TIP3   OH249947   5.379   1.335   1.550  0.7771 -0.3371 -0.5260
 9511TIP3    H149948   5.312   1.403   1.545  1.8149  0.7069 -0.6604
 9511TIP3    H249949   5.410   1.339   1.640  0.5888 -0.9036 -0.4292
 9512TIP3   OH249950   5.150   1.380   0.399  0.0162 -0.0056 -0.1299
 9512TIP3    H149951   5.135   1.469   0.431  1.2309 -0.6869  2.6458
 9512TIP3    H249952   5.238   1.358   0.430 -0.7941 -2.6543  0.5572
 9513TIP3   OH249953   4.155   4.261   2.655  0.5115  0.4709 -0.2828
 9513TIP3    H149954   4.180   4.197   2.589 -0.6138 -0.9436  0.5980
 9513TIP3    H249955   4.167   4.346   2.613  2.5290 -0.2788 -1.3239
 9514TIP3   OH249956   4.330   4.016  12.879  0.4538  0.2557 -0.2622
 9514TIP3    H149957   4.256   4.057  12.923 -1.4678 -2.1045 -1.0726
 9514TIP3    H249958   4.400   4.018  12.943 -0.8464  1.0243  1.1971
 9515TIP3   OH249959   6.666   4.155   3.925 -0.4156 -0.0649  0.4957
 9515TIP3    H149960   6.584   4.155   3.876 -1.0996 -0.2787  1.6207
 9515TIP3    H249961   6.702   4.067   3.911 -0.9382 -0.3512  0.8996
 9516TIP3   OH249962   3.229   6.024   2.551  0.1041  0.1802  0.3328
 9516TIP3    H149963   3.307   6.068   2.586  1.2695 -1.2339 -0.3562
 9516TIP3    H249964   3.260   5.936   2.529 -0.8227  0.5848 -3.1171
 9517TIP3   OH249965   0.286   5.422   2.537  0.1603  0.0368  0.0776
 9517TIP3    H149966   0.207   5.428   2.483 -0.4227 -0.2732  0.8761
 9517TIP3    H249967   0.343   5.492   2.505 -0.3577  0.1483 -0.6236
 9518TIP3   OH249968   2.767   4.172  12.471 -0.0573  0.4912  0.6360
 9518TIP3    H149969   2.847   4.131  12.504 -0.2460  0.2542  0.8072
 9518TIP3    H249970   2.717   4.099  12.434  0.2897  0.7982 -0.4584
 9519TIP3   OH249971   1.103   3.178  16.233 -0.0740  0.3695  0.5326
 9519TIP3    H149972   1.188   3.188  16.274  0.1439  0.7900 -0.0111
 9519TIP3    H249973   1.120   3.189  16.139 -0.5211 -0.7449  0.2968
 9520TIP3   OH249974   5.817   3.770  16.991 -0.3723 -0.0565  0.2839
 9520TIP3    H149975   5.829   3.686  16.948  0.3948  0.2125 -0.0542
 9520TIP3    H249976   5.808   3.749  17.084  1.9487 -0.4097  0.5010
 9521TIP3   OH249977   4.088   6.264   1.672 -0.2308  0.2434  0.0382
 9521TIP3    H149978   4.014   6.323   1.684  1.0851  1.5317  2.2694
 9521TIP3    H249979   4.143   6.307   1.606  0.0384  0.8160  0.6349
 9522TIP3   OH249980   5.920   6.148   4.626  0.4445 -0.2072  0.3012
 9522TIP3    H149981   5.882   6.195   4.553 -0.2640  1.1220  1.4746
 9522TIP3    H249982   5.847   6.102   4.667  0.5908  0.0637  0.8916
 9523TIP3   OH249983   6.469   2.773   1.497  0.2180 -0.2231 -0.1699
 9523TIP3    H149984   6.381   2.810   1.501  0.6281  0.7059  1.0349
 9523TIP3    H249985   6.473   2.728   1.412 -2.3455 -2.7030  0.8502
 9524TIP3   OH249986   3.839   5.732   3.510 -0.0359  0.0016  0.4047
 9524TIP3    H149987   3.930   5.704   3.522  0.6289  2.0334  0.4397
 9524TIP3    H249988   3.791   5.650   3.496  1.7821 -1.1232  0.3543
 9525TIP3   OH249989   4.452   0.032   3.857 -0.1240  0.0853  0.3226
 9525TIP3    H149990   4.417  -0.004   3.939  1.0452 -0.1821  0.7268
 9525TIP3    H249991   4.465  -0.045   3.801  1.3825 -0.0555  0.8042
 9526TIP3   OH249992   1.544   5.996  14.430 -0.5445  0.0096 -0.1545
 9526TIP3    H149993   1.590   5.935  14.488 -0.2910  0.4406  0.1062
 9526TIP3    H249994   1.585   6.081  14.447  0.2411 -0.0203 -1.7178
 9527TIP3   OH249995   0.211   0.880   0.701 -0.1439 -0.2695 -0.7904
 9527TIP3    H149996   0.249   0.809   0.752  0.9683 -0.1161 -1.3781
 9527TIP3    H249997   0.124   0.847   0.677 -0.5337 -0.5132  0.8055
 9528TIP3   OH249998   3.745   4.427  12.172  0.2660 -0.6389  0.4377
 9528TIP3    H149999   3.661   4.406  12.133 -0.2859 -0.5164  1.5170
 9528TIP3    H250000   3.804   4.359  12.139 -0.5182 -1.4009  0.5610
 9529TIP3   OH250001   2.363   1.069   0.114 -0.5406 -1.1711  0.5229
 9529TIP3    H150002   2.369   0.974   0.121 -0.4068 -1.1198  1.2176
 9529TIP3    H250003   2.342   1.098   0.203  1.0804 -0.4266  0.6985
 9530TIP3   OH250004   2.199   1.378   3.277 -0.4425 -0.4494  0.0304
 9530TIP3    H150005   2.269   1.316   3.256 -0.7622 -0.6605 -0.4141
 9530TIP3    H250006   2.137   1.370   3.205  0.1042  1.2843 -0.6907
 9531TIP3   OH250007   6.623   2.373   6.143  0.2974  0.5133  0.6862
 9531TIP3    H150008   6.632   2.284   6.108 -2.8538  0.5556 -0.5537
 9531TIP3    H250009   6.556   2.366   6.210  1.6078  1.6393  2.1951
 9532TIP3   OH250010   3.956   2.767   5.084 -0.1354  0.0385 -0.2451
 9532TIP3    H150011   3.930   2.729   5.168  0.3552 -0.6681 -0.4070
 9532TIP3    H250012   3.953   2.694   5.022  0.0488  0.4337 -0.7255
 9533TIP3   OH250013   1.036   4.045  12.050 -0.5757  0.1192 -0.0613
 9533TIP3    H150014   1.032   4.125  12.103  0.4158  1.0812 -1.3558
 9533TIP3    H250015   1.100   3.990  12.095 -0.6033  0.4298  0.3690
 9534TIP3   OH250016   4.629   2.032   5.455 -0.1207 -0.6659 -0.2625
 9534TIP3    H150017   4.660   1.993   5.374  0.6360  0.6304 -0.6319
 9534TIP3    H250018   4.679   1.989   5.524 -0.4667 -1.4714 -0.5059
 9535TIP3   OH250019   0.433   1.835   4.967  0.1419 -0.2863 -0.0028
 9535TIP3    H150020   0.445   1.741   4.978  0.4924 -0.2266  0.1390
 9535TIP3    H250021   0.341   1.850   4.988 -0.0462 -0.6703 -0.5271
 9536TIP3   OH250022   5.892   2.625  17.353 -0.2268 -0.5442  0.0144
 9536TIP3    H150023   5.910   2.697  17.413  1.4927 -0.3736 -0.6437
 9536TIP3    H250024   5.921   2.657  17.268 -2.0192 -1.0122 -0.8134
 9537TIP3   OH250025   0.652   2.024   6.088 -0.0548  0.0990 -0.1264
 9537TIP3    H150026   0.730   2.078   6.102  0.3207 -0.5355  0.2929
 9537TIP3    H250027   0.585   2.086   6.058 -0.2403  1.1888  2.3033
 9538TIP3   OH250028   0.351   4.015   4.717 -0.5509  0.2457  0.0128
 9538TIP3    H150029   0.394   4.015   4.631 -1.5158  0.9462 -0.4839
 9538TIP3    H250030   0.268   3.970   4.702 -1.4438  1.7753  0.1982
 9539TIP3   OH250031   5.350   3.358  14.095 -0.1964 -0.3537 -0.0630
 9539TIP3    H150032   5.347   3.349  14.190 -0.6913  2.1926  0.2550
 9539TIP3    H250033   5.263   3.333  14.066 -0.9015  1.2382  0.5113
 9540TIP3   OH250034   4.339   6.577  13.091  0.7290 -0.1899  0.2320
 9540TIP3    H150035   4.287   6.657  13.096  0.5433 -0.2764 -0.2815
 9540TIP3    H250036   4.329   6.537  13.177 -0.1226 -0.2448  0.1184
 9541TIP3   OH250037   6.497   6.741   2.655  0.1938  0.1703  0.1789
 9541TIP3    H150038   6.573   6.706   2.609 -0.1676  1.4857 -1.5010
 9541TIP3    H250039   6.485   6.681   2.729  2.2409 -0.6358 -0.0609
 9542TIP3   OH250040   2.336   3.472  13.308  0.1124 -0.9241  0.5335
 9542TIP3    H150041   2.308   3.512  13.225  0.6727 -1.9205 -0.1644
 9542TIP3    H250042   2.297   3.385  13.307  0.7563 -1.2304  0.9467
 9543TIP3   OH250043   6.300   0.836   4.542 -0.3239  0.0338 -0.0884
 9543TIP3    H150044   6.224   0.809   4.594  0.3345  1.2908  1.5934
 9543TIP3    H250045   6.347   0.754   4.525 -0.5851 -0.4344  1.2871
 9544TIP3   OH250046   6.391   1.833  13.484  0.9455  0.0094 -0.5260
 9544TIP3    H150047   6.343   1.909  13.452  0.2177 -0.6235 -0.9863
 9544TIP3    H250048   6.395   1.846  13.579 -0.7698 -0.2444 -0.3809
 9545TIP3   OH250049   0.481   3.752  12.485 -0.5729 -0.2737  0.3202
 9545TIP3    H150050   0.479   3.847  12.475 -0.0832 -0.4975 -2.6046
 9545TIP3    H250051   0.391   3.724  12.467 -0.3211 -0.4713 -0.6918
 9546TIP3   OH250052   3.232   6.731  15.017  0.0200 -0.4333 -0.1778
 9546TIP3    H150053   3.174   6.678  15.073  0.7234  0.0382  1.0456
 9546TIP3    H250054   3.320   6.711  15.048  0.3989  0.2210 -0.8020
 9547TIP3   OH250055   2.421   6.419  15.863  0.2460 -0.5845 -0.3757
 9547TIP3    H150056   2.481   6.481  15.821  0.5341 -0.0377  0.7915
 9547TIP3    H250057   2.384   6.467  15.936 -2.0027 -0.7750 -1.3265
 9548TIP3   OH250058   3.514   4.754  11.529  0.6390  0.4458  0.0912
 9548TIP3    H150059   3.560   4.701  11.464 -0.2713  0.8618 -0.9210
 9548TIP3    H250060   3.460   4.814  11.478 -0.8104  0.1655  1.2266
 9549TIP3   OH250061   4.630   2.142   2.374  0.4282 -0.1065  0.5095
 9549TIP3    H150062   4.721   2.149   2.345 -0.0406 -0.5710 -1.2246
 9549TIP3    H250063   4.605   2.053   2.352 -0.8738  0.4665 -0.4876
 9550TIP3   OH250064   5.701   5.468  15.918  0.6247  0.0140 -0.3242
 9550TIP3    H150065   5.626   5.505  15.963  0.0980  0.6954 -1.7075
 9550TIP3    H250066   5.746   5.543  15.878  0.3173 -0.6421 -2.0179
 9551TIP3   OH250067   1.797   1.671   4.127  0.3714 -0.1197 -0.3758
 9551TIP3    H150068   1.879   1.667   4.178 -0.9327  0.0377  1.8919
 9551TIP3    H250069   1.742   1.603   4.166 -0.0192 -1.4454 -3.0455
 9552TIP3   OH250070   0.485   4.671  17.274  0.4001 -0.5390 -0.5424
 9552TIP3    H150071   0.416   4.648  17.212  0.8029 -0.0375 -1.1897
 9552TIP3    H250072   0.563   4.628  17.240  1.1269  1.5765 -1.6792
 9553TIP3   OH250073   5.340   2.545  11.071 -0.1455  0.2530 -0.2843
 9553TIP3    H150074   5.309   2.469  11.021  1.0222 -1.0735  0.9325
 9553TIP3    H250075   5.387   2.598  11.007 -1.0321  0.0007 -1.1702
 9554TIP3   OH250076   4.092   2.857  14.653  0.4183  0.2798 -0.0843
 9554TIP3    H150077   4.014   2.805  14.675 -0.1103  1.5051  1.1389
 9554TIP3    H250078   4.114   2.832  14.564 -1.1426 -0.4163 -0.3084
 9555TIP3   OH250079   0.580   4.629  14.474 -0.3924  0.5049 -0.0138
 9555TIP3    H150080   0.520   4.555  14.462 -0.2905  0.6357 -1.5775
 9555TIP3    H250081   0.663   4.598  14.436  0.2330  0.7075  1.1595
 9556TIP3   OH250082   5.869   2.361  10.201  0.1307  0.6042  0.3379
 9556TIP3    H150083   5.817   2.411  10.138 -0.1681  0.8045  0.7425
 9556TIP3    H250084   5.808   2.339  10.271  0.5423  0.6738  0.7220
 9557TIP3   OH250085   3.817   5.616  11.856 -0.1798  0.0544 -0.7197
 9557TIP3    H150086   3.793   5.544  11.916 -1.3822  0.8507 -0.2124
 9557TIP3    H250087   3.809   5.577  11.769 -1.4384 -0.2747 -0.4807
 9558TIP3   OH250088   0.088   2.394   0.522 -0.3184  0.3350 -0.1459
 9558TIP3    H150089   0.134   2.433   0.597  3.1547  0.4171 -2.1018
 9558TIP3    H250090   0.088   2.300   0.540 -0.2227  0.4243  0.3268
 9559TIP3   OH250091   1.102   1.531   5.264  0.0908  0.2987 -0.5179
 9559TIP3    H150092   1.016   1.494   5.282 -0.3141  1.3883 -0.1114
 9559TIP3    H250093   1.094   1.567   5.176 -0.0740  0.9319 -0.2513
 9560TIP3   OH250094   3.334   3.009  11.414 -0.1187 -0.3209 -1.0741
 9560TIP3    H150095   3.326   2.941  11.347 -1.5963 -1.9381  0.6455
 9560TIP3    H250096   3.250   3.055  11.412 -0.4672 -0.8794  0.1529
 9561TIP3   OH250097   1.097   3.758   1.035 -0.5021 -0.4692 -0.1380
 9561TIP3    H150098   1.122   3.665   1.037 -1.1916 -0.7045 -1.3498
 9561TIP3    H250099   1.102   3.782   0.943 -1.0091  0.5100  0.0780
 9562TIP3   OH250100   2.365   3.872   0.038 -0.5684 -0.1653  0.1964
 9562TIP3    H150101   2.359   3.899   0.130 -0.2761 -0.0969  0.1942
 9562TIP3    H250102   2.344   3.951  -0.011 -1.0568 -0.2835  0.2048
 9563TIP3   OH250103   1.663   2.531   3.856 -0.0289 -0.0249 -0.4686
 9563TIP3    H150104   1.672   2.463   3.923 -2.0313 -1.1474 -1.2460
 9563TIP3    H250105   1.569   2.547   3.851  0.2600  1.5285 -1.5823
 9564TIP3   OH250106   5.896   0.475   3.518 -0.4998 -0.0666  0.0591
 9564TIP3    H150107   5.986   0.495   3.491 -0.5408 -0.4818 -0.3886
 9564TIP3    H250108   5.861   0.422   3.446 -0.8557 -0.5513  0.5893
 9565TIP3   OH250109   1.728   1.548  17.171 -0.2152 -0.2669  0.2260
 9565TIP3    H150110   1.806   1.527  17.118 -0.2486 -1.1420  0.4935
 9565TIP3    H250111   1.691   1.462  17.193 -2.5474  0.1269 -1.7411
 9566TIP3   OH250112   5.652   1.263  14.433 -0.0583  0.6781 -0.2225
 9566TIP3    H150113   5.698   1.268  14.349 -1.2761  1.7482 -0.8583
 9566TIP3    H250114   5.570   1.218  14.413 -0.9255  2.0569  0.0999
 9567TIP3   OH250115   5.060   2.086  11.093 -0.4468  0.1856 -0.0579
 9567TIP3    H150116   5.134   2.137  11.059 -0.8105  0.8363  0.0952
 9567TIP3    H250117   5.019   2.049  11.015 -0.7829  0.9816 -0.2762
 9568TIP3   OH250118   4.696   6.093   2.367  0.2724  0.2334 -0.6570
 9568TIP3    H150119   4.757   6.136   2.428 -0.0530  2.1035 -1.5744
 9568TIP3    H250120   4.702   6.000   2.389  2.1685  0.5542  0.4199
 9569TIP3   OH250121   4.995   0.285   4.665 -0.1615  0.2908  0.1448
 9569TIP3    H150122   4.900   0.277   4.664 -0.2914  1.2474  1.8850
 9569TIP3    H250123   5.013   0.356   4.603 -0.5178 -0.2150 -0.5572
 9570TIP3   OH250124   6.091   4.239   1.278  0.4270  0.6419 -0.3905
 9570TIP3    H150125   6.007   4.197   1.296  0.7255 -0.7291 -2.0170
 9570TIP3    H250126   6.092   4.252   1.184  2.4621 -0.3193 -0.5442
 9571TIP3   OH250127   6.106   2.466  16.565  0.4133 -0.1534 -0.3499
 9571TIP3    H150128   6.013   2.477  16.585  0.7941  0.8825  1.0308
 9571TIP3    H250129   6.138   2.555  16.549  0.9234 -0.6229 -2.1180
 9572TIP3   OH250130   3.157   4.770   4.763 -0.0258  0.1406  0.1169
 9572TIP3    H150131   3.171   4.791   4.856 -1.2424 -0.0617  0.3643
 9572TIP3    H250132   3.243   4.781   4.723  0.4913  0.3784  1.2423
 9573TIP3   OH250133   2.843   2.354   6.750  0.3599 -0.3640 -0.5752
 9573TIP3    H150134   2.923   2.379   6.796  0.1844 -1.5658  0.4380
 9573TIP3    H250135   2.867   2.358   6.657  1.4474 -0.2051 -0.3070
 9574TIP3   OH250136   2.625   1.668  17.153 -0.1148  0.1260 -0.2588
 9574TIP3    H150137   2.619   1.650  17.247 -1.4228  0.5986 -0.2340
 9574TIP3    H250138   2.577   1.750  17.141 -0.0649  0.0099 -1.3641
 9575TIP3   OH250139   4.143   5.056  14.536 -0.3122 -0.2960  0.1346
 9575TIP3    H150140   4.174   5.040  14.447  1.4124 -0.7391  0.7763
 9575TIP3    H250141   4.075   5.123  14.526 -0.4089 -0.6029 -1.5426
 9576TIP3   OH250142   3.915   4.701  17.268 -1.0061  0.3171 -0.0113
 9576TIP3    H150143   3.954   4.783  17.299 -0.0074 -0.1473  0.0104
 9576TIP3    H250144   3.918   4.708  17.172 -0.2053 -0.0019 -0.0193
 9577TIP3   OH250145   4.740   0.915   2.013  0.1892 -0.1590 -0.0415
 9577TIP3    H150146   4.677   0.892   1.944  1.2588 -1.2874 -0.6829
 9577TIP3    H250147   4.795   0.837   2.021  1.1323  0.5896  0.9217
 9578TIP3   OH250148   4.528   0.591   4.718  0.6435 -0.5412 -0.5820
 9578TIP3    H150149   4.516   0.573   4.625 -2.1326 -0.3111 -0.3604
 9578TIP3    H250150   4.520   0.687   4.725 -1.3925 -0.6983  0.0608
 9579TIP3   OH250151   3.389   1.338   0.935  0.0316  0.2562 -0.3087
 9579TIP3    H150152   3.452   1.321   1.005 -0.3424 -0.6549 -0.1908
 9579TIP3    H250153   3.330   1.405   0.972 -0.5169 -0.6308  0.4793
 9580TIP3   OH250154   4.498   2.834  13.250  0.6066  0.0671  0.9132
 9580TIP3    H150155   4.496   2.854  13.344 -0.4520  1.3321  0.6540
 9580TIP3    H250156   4.471   2.915  13.207  1.6885 -0.2952 -0.5353
 9581TIP3   OH250157   4.981   0.061  11.962 -0.8902 -0.2790  0.5244
 9581TIP3    H150158   4.988   0.156  11.979  2.1345 -0.3377  0.2480
 9581TIP3    H250159   4.889   0.047  11.940 -2.3482  1.9239  4.2452
 9582TIP3   OH250160   6.673   5.160   1.255 -0.5299  0.6515 -0.3493
 9582TIP3    H150161   6.602   5.186   1.197 -0.8070  1.4456  0.3322
 9582TIP3    H250162   6.633   5.098   1.316 -0.6056  0.9775 -0.0645
 9583TIP3   OH250163   1.002   6.006   2.509  0.1776 -0.1616 -0.2958
 9583TIP3    H150164   0.962   5.972   2.429 -1.6642 -2.4139  1.4316
 9583TIP3    H250165   1.052   5.931   2.544  1.0906  0.8230  0.5835
 9584TIP3   OH250166   2.407   6.598   3.298 -0.0886 -0.3291  0.6652
 9584TIP3    H150167   2.390   6.628   3.387  0.3266  2.2253 -0.0433
 9584TIP3    H250168   2.477   6.655   3.266  1.2218 -2.5033 -0.6519
 9585TIP3   OH250169   1.116   2.289   1.142 -1.1213  0.3000  0.2403
 9585TIP3    H150170   1.033   2.274   1.187 -1.2442 -1.4845 -0.4909
 9585TIP3    H250171   1.094   2.281   1.049 -0.3849  1.2437 -0.0241
 9586TIP3   OH250172   2.753   4.114   5.711 -0.6339  0.1150 -0.2622
 9586TIP3    H150173   2.720   4.041   5.658 -1.1376  0.7112 -0.7845
 9586TIP3    H250174   2.770   4.075   5.797 -1.9806 -0.3721 -0.1964
 9587TIP3   OH250175   1.885   6.080  15.641 -0.0671  0.5824 -0.3785
 9587TIP3    H150176   1.895   6.023  15.565  1.6433 -1.8590  1.5177
 9587TIP3    H250177   1.930   6.161  15.616 -0.3026  0.1760 -2.2429
 9588TIP3   OH250178   2.712   2.809   4.948 -0.1526  0.5298 -0.1690
 9588TIP3    H150179   2.718   2.803   5.044  0.3711  0.9189 -0.1745
 9588TIP3    H250180   2.674   2.726   4.921  1.7536 -0.5220  0.2024
 9589TIP3   OH250181   2.680   0.244   3.256  0.7851  0.7214 -0.2098
 9589TIP3    H150182   2.703   0.332   3.227  0.1830  0.6988 -0.7851
 9589TIP3    H250183   2.723   0.234   3.341  0.0388  1.9370  0.3297
 9590TIP3   OH250184   5.945   4.013  16.935  0.6647  0.3943 -0.2371
 9590TIP3    H150185   5.908   3.945  16.991 -1.8411  0.7504 -1.3100
 9590TIP3    H250186   6.034   3.983  16.916  0.3561 -1.4925  1.0164
 9591TIP3   OH250187   3.932   2.976   2.035 -0.2867  0.5055  0.5788
 9591TIP3    H150188   3.930   3.014   2.123  0.9585 -0.4864  1.0693
 9591TIP3    H250189   3.925   2.881   2.051  0.4518  0.2856 -0.3604
 9592TIP3   OH250190   4.837   0.081   3.692  0.0841 -0.1205  0.1368
 9592TIP3    H150191   4.813   0.174   3.690  0.3314 -0.0613 -0.1800
 9592TIP3    H250192   4.802   0.049   3.775  1.0436  0.5448  0.8290
 9593TIP3   OH250193   2.264   2.544   3.156  0.6431  0.2553 -0.1982
 9593TIP3    H150194   2.316   2.584   3.086  0.6206 -0.6669 -0.7580
 9593TIP3    H250195   2.257   2.452   3.131  2.5690 -0.6500  2.1528
 9594TIP3   OH250196   1.980   3.252  13.791  0.0597  0.1775  0.0879
 9594TIP3    H150197   1.987   3.248  13.886  1.2481 -0.7533 -0.0245
 9594TIP3    H250198   1.906   3.195  13.770  1.0652 -1.2799  0.3369
 9595TIP3   OH250199   5.503   0.722  13.901 -0.1099  0.3052  0.3108
 9595TIP3    H150200   5.484   0.765  13.984  0.6605  2.7910 -0.6761
 9595TIP3    H250201   5.594   0.693  13.909 -0.1099  0.3388  0.4376
 9596TIP3   OH250202   3.911   6.692   3.419 -0.2326 -0.1968  0.1642
 9596TIP3    H150203   3.861   6.724   3.495  0.2567  3.1643 -0.7763
 9596TIP3    H250204   4.002   6.712   3.440  0.1456 -1.2098 -0.4506
 9597TIP3   OH250205   6.095   0.066   3.113  1.0445  0.0377  0.3191
 9597TIP3    H150206   6.125   0.141   3.061  0.2359  0.1122 -0.0627
 9597TIP3    H250207   6.008   0.047   3.078  0.6373 -0.1361  1.4207
 9598TIP3   OH250208   5.228   6.511  12.873 -0.3585  0.1985  0.7592
 9598TIP3    H150209   5.242   6.464  12.956 -2.9704 -0.1933  1.0428
 9598TIP3    H250210   5.297   6.478  12.815 -1.1099 -2.8360  1.4451
 9599TIP3   OH250211   0.986   3.844   3.006 -0.0968 -0.0854  0.0727
 9599TIP3    H150212   0.962   3.753   3.020  0.7678 -0.3308  0.0180
 9599TIP3    H250213   0.948   3.891   3.081  0.6220 -0.7078  0.8525
 9600TIP3   OH250214   3.883   0.370  12.262  0.5335  0.6819 -0.7853
 9600TIP3    H150215   3.869   0.325  12.346 -2.2610 -0.4005 -1.7299
 9600TIP3    H250216   3.801   0.415  12.245  1.1613  1.1461 -2.8151
 9601TIP3   OH250217   4.102   5.558  11.843 -1.0319  0.0405  0.5824
 9601TIP3    H150218   4.008   5.578  11.844 -0.7233  1.6067  1.1658
 9601TIP3    H250219   4.130   5.583  11.755 -1.4464 -2.0494 -0.1929
 9602TIP3   OH250220   6.190   5.199   5.420  0.2797  0.3436 -0.0043
 9602TIP3    H150221   6.133   5.268   5.386 -0.8230 -0.4711  0.1090
 9602TIP3    H250222   6.134   5.120   5.419  1.2969 -0.4014  0.4738
 9603TIP3   OH250223   6.161   1.744  12.322 -0.0471  0.2416  0.0577
 9603TIP3    H150224   6.089   1.798  12.290  0.4442  1.2728  0.6598
 9603TIP3    H250225   6.181   1.778  12.409 -0.1365 -1.3335  0.7304
 9604TIP3   OH250226   5.585   3.981   4.011  0.2523 -0.0697  0.1456
 9604TIP3    H150227   5.593   3.986   4.106 -1.7347 -1.0462  0.4148
 9604TIP3    H250228   5.491   3.976   3.995  0.4989  0.8923 -1.9351
 9605TIP3   OH250229   3.370   1.941   1.543  0.4177 -0.8867  0.5344
 9605TIP3    H150230   3.402   1.852   1.527  0.3835 -1.0767  1.4771
 9605TIP3    H250231   3.440   1.998   1.509  0.4516 -1.2609 -0.0499
 9606TIP3   OH250232   0.311   6.260   4.852  0.3147 -0.7757 -0.0382
 9606TIP3    H150233   0.297   6.354   4.861  1.8307 -0.5262 -0.0565
 9606TIP3    H250234   0.327   6.230   4.942 -0.0065 -1.0007 -0.0525
 9607TIP3   OH250235   2.384   4.036  13.029 -0.1850 -0.2728  0.3659
 9607TIP3    H150236   2.293   4.027  13.059 -0.9760  0.7672 -1.5545
 9607TIP3    H250237   2.411   4.122  13.061 -0.6837  0.3991 -0.9593
 9608TIP3   OH250238   1.052   2.242  13.939  0.0210  0.6978 -0.2112
 9608TIP3    H150239   1.135   2.288  13.955  0.0331  0.0304  2.0298
 9608TIP3    H250240   1.021   2.218  14.027 -2.3268  0.5245 -1.0272
 9609TIP3   OH250241   0.487   1.884  15.433 -0.6729  0.3159 -0.3268
 9609TIP3    H150242   0.558   1.837  15.390 -2.3813 -2.1812 -0.6767
 9609TIP3    H250243   0.489   1.853  15.524 -0.8762  0.7557 -0.1710
 9610TIP3   OH250244   5.807   4.846   3.354  0.3522  0.1416  0.2360
 9610TIP3    H150245   5.755   4.923   3.377  1.6839  0.9019  0.7847
 9610TIP3    H250246   5.742   4.777   3.341 -0.8498  1.2810 -0.0128
 9611TIP3   OH250247   2.765   2.480   3.387  0.0728 -0.5248  0.4050
 9611TIP3    H150248   2.784   2.563   3.343 -0.6635 -0.4516  0.2162
 9611TIP3    H250249   2.671   2.469   3.378  0.3653 -2.2789 -1.1793
 9612TIP3   OH250250   6.417   5.552   1.922  0.3480 -0.2445 -0.0601
 9612TIP3    H150251   6.401   5.460   1.900 -0.4610 -0.0789 -0.2089
 9612TIP3    H250252   6.456   5.589   1.843  1.5968 -0.6824  0.3384
 9613TIP3   OH250253   6.255   3.605   2.085 -0.2693  0.3447 -0.4742
 9613TIP3    H150254   6.196   3.678   2.106 -0.0502  0.5102 -0.4229
 9613TIP3    H250255   6.333   3.623   2.137  0.0921  0.5042 -1.0694
 9614TIP3   OH250256   0.601   4.626  12.986  0.0182  0.4507  0.0813
 9614TIP3    H150257   0.622   4.683  12.911 -0.0571  0.0535 -0.2484
 9614TIP3    H250258   0.510   4.648  13.008 -1.0902 -1.6026 -1.9734
 9615TIP3   OH250259   4.809   1.176  12.034  0.3545  0.1725 -0.1386
 9615TIP3    H150260   4.828   1.094  11.990 -0.5711  0.4413 -1.0785
 9615TIP3    H250261   4.739   1.216  11.982  0.4960  1.3558  0.5372
 9616TIP3   OH250262   2.228   5.022  15.079 -0.2053  0.2884 -0.5080
 9616TIP3    H150263   2.310   5.021  15.030 -0.7642  0.3661 -1.4715
 9616TIP3    H250264   2.246   5.077  15.155  0.8339 -0.2671 -0.3354
 9617TIP3   OH250265   3.384   1.008   5.258  0.7530  0.0154 -0.4428
 9617TIP3    H150266   3.362   1.062   5.182  1.2494 -0.7613 -1.1523
 9617TIP3    H250267   3.480   1.004   5.257  0.8417  1.0327  0.9677
 9618TIP3   OH250268   2.954   5.941  16.203  0.0118 -0.4932  0.0308
 9618TIP3    H150269   3.036   5.981  16.174  0.0954 -0.4105  0.3739
 9618TIP3    H250270   2.978   5.851  16.227 -0.1495 -0.7107 -0.6090
 9619TIP3   OH250271   4.439   3.475  14.472 -0.4782 -0.2958  0.0150
 9619TIP3    H150272   4.518   3.455  14.522  0.6912  0.7339 -1.3298
 9619TIP3    H250273   4.398   3.547  14.519 -0.5628 -0.7651  0.6640
 9620TIP3   OH250274   5.741   0.676  11.679  0.2696 -0.2219  0.6317
 9620TIP3    H150275   5.707   0.663  11.768 -0.1101 -2.1396  0.2462
 9620TIP3    H250276   5.833   0.651  11.685  0.3069 -0.1062  0.5408
 9621TIP3   OH250277   0.711   2.029  13.058 -0.0545 -0.3972 -0.0818
 9621TIP3    H150278   0.718   2.124  13.064 -2.4852 -0.0445 -1.3900
 9621TIP3    H250279   0.766   2.005  12.983 -2.2537  0.5666 -2.1662
 9622TIP3   OH250280   2.551   3.114   1.014  0.2022  0.1096  0.2927
 9622TIP3    H150281   2.515   3.189   1.061  0.5756 -0.0672  0.8736
 9622TIP3    H250282   2.635   3.145   0.981 -0.6821  0.6888 -1.5114
 9623TIP3   OH250283   3.570   4.204   2.934 -0.1344 -0.3549 -0.2123
 9623TIP3    H150284   3.535   4.116   2.948 -0.2461 -0.1010  1.2645
 9623TIP3    H250285   3.616   4.199   2.850 -0.4953 -1.6994 -0.3463
 9624TIP3   OH250286   4.526   2.291   5.468 -0.8713  0.0480  0.1186
 9624TIP3    H150287   4.438   2.281   5.431 -0.2711 -0.8383 -1.1326
 9624TIP3    H250288   4.558   2.201   5.478  0.0259  0.3760  0.2390
 9625TIP3   OH250289   4.542   5.762   3.678  0.2521  0.0067  0.1653
 9625TIP3    H150290   4.484   5.687   3.674  0.3831 -0.1922  1.5565
 9625TIP3    H250291   4.630   5.725   3.673  0.3019  0.1919 -0.4812
 9626TIP3   OH250292   2.074   2.341  15.592 -0.3310 -0.2796  0.1516
 9626TIP3    H150293   2.161   2.338  15.633 -0.9474 -0.0026  1.5120
 9626TIP3    H250294   2.073   2.264  15.534  0.5147 -0.7583  0.7479
 9627TIP3   OH250295   6.501   0.595  14.321  0.1077 -0.0754 -0.1479
 9627TIP3    H150296   6.443   0.584  14.246  0.3677  0.0575 -0.3683
 9627TIP3    H250297   6.442   0.623  14.393  0.0626  1.2943 -0.6802
 9628TIP3   OH250298   6.503   1.903  12.314  0.3214  0.8834 -0.0551
 9628TIP3    H150299   6.526   1.819  12.273  3.4405  1.1236  0.9640
 9628TIP3    H250300   6.444   1.879  12.386  0.3132 -0.2917 -0.4215
 9629TIP3   OH250301   1.907   4.264   0.880  0.2121 -0.0244 -0.1199
 9629TIP3    H150302   1.943   4.180   0.852  1.1309 -0.2816  1.7286
 9629TIP3    H250303   1.974   4.302   0.937  0.8434  3.0397 -2.5953
 9630TIP3   OH250304   2.678   3.855  15.108 -0.0261 -0.8567 -0.2102
 9630TIP3    H150305   2.664   3.782  15.048  1.0800 -0.1482 -1.3890
 9630TIP3    H250306   2.751   3.826  15.163  0.5378 -0.5811 -0.8024
 9631TIP3   OH250307   4.177   6.748  13.466 -0.0800 -0.3468 -0.2708
 9631TIP3    H150308   4.097   6.759  13.517  0.5481 -0.8422  0.8553
 9631TIP3    H250309   4.174   6.658  13.434 -0.1953 -0.2156 -0.6376
 9632TIP3   OH250310   3.809   2.103   1.377  0.0051  0.4938 -0.0903
 9632TIP3    H150311   3.835   2.189   1.410 -0.4383  1.0703 -1.2134
 9632TIP3    H250312   3.767   2.120   1.293  0.9156 -0.9219 -0.8719
 9633TIP3   OH250313   0.662   4.542  15.240  0.3555 -0.0759 -0.2723
 9633TIP3    H150314   0.717   4.465  15.256  0.1080  0.1871  2.2379
 9633TIP3    H250315   0.575   4.506  15.224  0.3163 -0.3591  0.5172
 9634TIP3   OH250316   1.127   0.990  16.459 -0.2319  0.0137  0.3170
 9634TIP3    H150317   1.217   0.960  16.445 -0.3290 -1.0759  1.8070
 9634TIP3    H250318   1.107   1.042  16.381  1.2827 -0.6587 -0.5691
 9635TIP3   OH250319   2.493   5.138  14.165 -0.1212  0.1377 -0.5375
 9635TIP3    H150320   2.429   5.074  14.194  0.8299 -0.1745  0.9792
 9635TIP3    H250321   2.504   5.197  14.240  1.5952 -0.0205 -0.6227
 9636TIP3   OH250322   3.730   0.799  15.550 -0.3665 -0.0675  0.5055
 9636TIP3    H150323   3.752   0.885  15.515 -0.1500 -0.2537  0.1821
 9636TIP3    H250324   3.656   0.815  15.608 -0.9112  0.1981 -0.2580
 9637TIP3   OH250325   1.625   5.094   2.984 -0.3060 -0.4352  0.3468
 9637TIP3    H150326   1.642   5.163   2.919 -0.7140 -0.6017  0.0559
 9637TIP3    H250327   1.696   5.103   3.047  0.2422 -0.4300 -0.2579
 9638TIP3   OH250328   5.679   1.210  17.252 -0.0377  0.6319 -0.3156
 9638TIP3    H150329   5.715   1.263  17.181  0.1096  0.1120 -0.6365
 9638TIP3    H250330   5.745   1.143  17.267  0.8608  1.8659  1.6559
 9639TIP3   OH250331   4.456   2.566   0.998  0.3599  0.0050  0.2276
 9639TIP3    H150332   4.408   2.612   0.929 -0.5172 -2.4521 -0.9215
 9639TIP3    H250333   4.525   2.627   1.024 -1.1587  2.2169 -0.6328
 9640TIP3   OH250334   0.417   4.815  13.285  0.1380 -0.2267 -0.3664
 9640TIP3    H150335   0.379   4.847  13.367 -2.4530 -2.2099 -0.6824
 9640TIP3    H250336   0.429   4.721  13.298  0.2690 -0.4837 -2.0578
 9641TIP3   OH250337   3.952   0.339  15.131 -0.0788  0.2286 -0.1033
 9641TIP3    H150338   4.015   0.327  15.060 -1.1488  0.3715 -1.1118
 9641TIP3    H250339   3.957   0.258  15.182  0.2720 -0.1380 -0.7023
 9642TIP3   OH250340   6.070   2.407   5.262 -0.3622 -0.7065  0.0256
 9642TIP3    H150341   6.065   2.426   5.356  0.5424 -1.2886  0.2020
 9642TIP3    H250342   6.160   2.378   5.248  0.0357  0.9651 -1.3264
 9643TIP3   OH250343   2.518   1.868   6.139  0.0131 -0.8998  0.2386
 9643TIP3    H150344   2.498   1.821   6.058  0.5527 -1.5587  0.4806
 9643TIP3    H250345   2.611   1.891   6.131 -0.1078 -0.3414  0.3639
 9644TIP3   OH250346   3.199   6.755  13.571 -0.2747 -0.5208 -0.3434
 9644TIP3    H150347   3.229   6.669  13.541  1.5931  0.1923 -0.6873
 9644TIP3    H250348   3.216   6.755  13.665  0.9416 -0.0899 -0.5507
 9645TIP3   OH250349   1.699   0.748   0.151 -0.0821 -0.6083 -0.9004
 9645TIP3    H150350   1.619   0.696   0.164  0.1242 -0.6992  0.1326
 9645TIP3    H250351   1.754   0.725   0.226  0.1394  0.8811 -0.5847
 9646TIP3   OH250352   6.134   4.127  13.616 -0.4354  0.9027 -0.1433
 9646TIP3    H150353   6.048   4.164  13.639 -0.5117  0.8907 -0.3996
 9646TIP3    H250354   6.137   4.043  13.662 -0.9875  0.4355 -0.9340
 9647TIP3   OH250355   0.413   2.475  17.314  0.7465 -0.3309 -0.0340
 9647TIP3    H150356   0.340   2.415  17.326  0.8056 -0.1076  1.6915
 9647TIP3    H250357   0.491   2.422  17.329  0.8934 -0.2869 -0.6178
 9648TIP3   OH250358   2.531   0.728   6.170 -0.2271  0.4004  0.2237
 9648TIP3    H150359   2.545   0.772   6.086  1.4193  0.0699  0.3088
 9648TIP3    H250360   2.582   0.648   6.164 -1.2503 -0.3218  1.0132
 9649TIP3   OH250361   0.323   4.020   2.390  0.1863  0.0766  1.0113
 9649TIP3    H150362   0.381   4.034   2.465  0.7003  0.1240  0.6139
 9649TIP3    H250363   0.377   4.042   2.314 -0.9958  2.3267  0.7227
 9650TIP3   OH250364   3.133   3.830   0.930  0.5597 -0.5505 -0.0710
 9650TIP3    H150365   3.068   3.860   0.866 -1.6889  0.3596  2.4750
 9650TIP3    H250366   3.140   3.736   0.915 -3.9956 -1.4153  1.5781
 9651TIP3   OH250367   4.344   1.639  16.433 -0.3230 -0.5818 -0.2826
 9651TIP3    H150368   4.270   1.591  16.395 -1.6116 -0.4039  1.8519
 9651TIP3    H250369   4.379   1.690  16.360 -2.4037 -0.5664 -1.3369
 9652TIP3   OH250370   2.801   1.615  14.740  0.4881 -0.1088  0.1821
 9652TIP3    H150371   2.855   1.694  14.752  1.4387 -0.6453 -0.4242
 9652TIP3    H250372   2.713   1.649  14.722  0.9175  0.8213 -0.2642
 9653TIP3   OH250373   6.447   2.252  16.315  0.2048  0.1993 -0.4957
 9653TIP3    H150374   6.509   2.247  16.242 -0.0461 -0.0247 -0.6957
 9653TIP3    H250375   6.393   2.328  16.295  1.3534  1.3004  0.4306
 9654TIP3   OH250376   6.079   1.548  10.443  0.4084  0.6002  0.1638
 9654TIP3    H150377   6.163   1.550  10.489 -0.4151 -1.9521  1.9491
 9654TIP3    H250378   6.101   1.515  10.355  1.5360  2.2531 -0.2180
 9655TIP3   OH250379   6.317   5.600  15.046 -0.3215 -0.2866  1.0989
 9655TIP3    H150380   6.223   5.591  15.030 -0.3006  0.9807 -0.0040
 9655TIP3    H250381   6.322   5.654  15.125 -0.6937  3.3337 -1.0908
 9656TIP3   OH250382   0.899   3.359   4.118 -0.4595  0.8017 -0.5828
 9656TIP3    H150383   0.989   3.335   4.138 -0.5961  0.6828 -0.1080
 9656TIP3    H250384   0.906   3.432   4.055 -0.0326  1.2544 -0.0131
 9657TIP3   OH250385   1.343   5.692   4.946  0.4141  0.1183 -0.1655
 9657TIP3    H150386   1.417   5.651   4.902  0.5270  0.0486  0.0872
 9657TIP3    H250387   1.321   5.631   5.017  1.8064  1.3813  1.4433
 9658TIP3   OH250388   1.162   1.886  11.271  0.0833  0.2934  0.1786
 9658TIP3    H150389   1.214   1.966  11.275  0.9671 -0.1250 -2.0195
 9658TIP3    H250390   1.071   1.917  11.276  0.4059  1.4470 -0.7322
 9659TIP3   OH250391   3.224   0.059   2.893 -0.0066 -0.3701  0.8672
 9659TIP3    H150392   3.297   0.101   2.939 -0.7135  1.4071  0.4392
 9659TIP3    H250393   3.149   0.117   2.909 -0.8728 -1.1206 -0.3186
 9660TIP3   OH250394   2.285   3.573  14.775 -0.0239 -0.1145 -0.5193
 9660TIP3    H150395   2.327   3.511  14.715  1.7053  0.8490 -0.4039
 9660TIP3    H250396   2.260   3.647  14.719 -1.5986 -0.6531 -0.5740
 9661TIP3   OH250397   3.539   2.519   5.471 -0.7763  0.0062  0.4155
 9661TIP3    H150398   3.489   2.595   5.503 -2.3308 -0.6560 -0.3392
 9661TIP3    H250399   3.480   2.476   5.410  0.3195 -1.4828  0.3641
 9662TIP3   OH250400   4.204   6.060  14.519  0.3434 -0.0165 -0.3119
 9662TIP3    H150401   4.202   6.098  14.607  2.1140 -0.7560  0.0995
 9662TIP3    H250402   4.260   6.119  14.469  0.5013 -0.3573 -0.5421
 9663TIP3   OH250403   3.159   4.014   2.033  0.0998 -0.1330 -0.2258
 9663TIP3    H150404   3.144   3.934   1.983 -1.3687 -0.0927  0.0827
 9663TIP3    H250405   3.083   4.020   2.092  1.2160  0.4042  1.2307
 9664TIP3   OH250406   0.378   5.769  12.189  0.0038  0.6108  0.5666
 9664TIP3    H150407   0.446   5.828  12.156  0.9804 -1.5786 -1.6957
 9664TIP3    H250408   0.320   5.756  12.114  1.0206 -2.8249  0.1907
 9665TIP3   OH250409   5.123   1.302   6.245  0.2219  0.8892  0.1574
 9665TIP3    H150410   5.084   1.266   6.165 -1.2801 -0.8915  1.5809
 9665TIP3    H250411   5.189   1.238   6.270 -2.9028 -1.5979  3.0636
 9666TIP3   OH250412   0.106   6.414   4.498  0.3652  0.6339 -0.4732
 9666TIP3    H150413   0.161   6.457   4.564  1.4293  0.5530 -1.2751
 9666TIP3    H250414   0.017   6.423   4.532  0.9473 -0.2780  1.4516
 9667TIP3   OH250415   1.206   0.430   6.038 -0.3422  0.1856  0.2707
 9667TIP3    H150416   1.236   0.427   6.129  0.8585  1.5671 -0.0575
 9667TIP3    H250417   1.118   0.467   6.043 -0.1837  0.4891  0.8480
 9668TIP3   OH250418   2.143   4.347  16.026 -0.0220 -0.2569 -0.1903
 9668TIP3    H150419   2.220   4.393  16.059  0.2733 -1.3351  0.6751
 9668TIP3    H250420   2.171   4.256  16.019 -1.1914 -0.6507  0.0674
 9669TIP3   OH250421   1.640   3.669  17.225 -0.3827  0.5677 -0.6024
 9669TIP3    H150422   1.569   3.614  17.195  0.1477  0.6499 -2.0682
 9669TIP3    H250423   1.715   3.644  17.172  0.2639  1.6332 -0.2390
 9670TIP3   OH250424   1.937   0.470  16.715 -0.0981  0.1664  0.0879
 9670TIP3    H150425   2.016   0.446  16.763 -0.9182  1.2497  2.1009
 9670TIP3    H250426   1.932   0.406  16.644  2.2640 -0.2645  0.2379
 9671TIP3   OH250427   1.818   1.080  14.760  0.0746  0.1133  0.5168
 9671TIP3    H150428   1.897   1.130  14.741 -0.1086  0.2108  0.0024
 9671TIP3    H250429   1.748   1.128  14.716  0.0322 -1.1169 -0.8049
 9672TIP3   OH250430   1.349   3.440  16.552  0.2028 -0.1595 -0.1772
 9672TIP3    H150431   1.363   3.432  16.457  0.2868 -0.6148 -0.1283
 9672TIP3    H250432   1.285   3.372  16.572 -0.0774  0.1718  0.0356
 9673TIP3   OH250433   5.896   5.198   3.480 -0.4346 -0.0350 -0.0280
 9673TIP3    H150434   5.895   5.293   3.476 -0.5320 -0.0442 -0.2395
 9673TIP3    H250435   5.986   5.174   3.454 -0.2858  0.0153  0.4371
 9674TIP3   OH250436   5.753   5.228  10.416 -0.3562  0.1676 -0.2315
 9674TIP3    H150437   5.828   5.190  10.461  1.6629  2.8545 -1.0596
 9674TIP3    H250438   5.680   5.169  10.436  1.5133 -1.4922  2.2509
 9675TIP3   OH250439   3.066   2.117  17.033 -0.6142 -0.3426 -0.2466
 9675TIP3    H150440   3.023   2.119  16.948  0.1775 -0.7661 -0.6596
 9675TIP3    H250441   3.051   2.205  17.069 -1.6397 -0.4175 -0.4601
 9676TIP3   OH250442   1.356   4.298  15.374  0.5097 -0.0740  0.1484
 9676TIP3    H150443   1.313   4.359  15.434  0.3309 -0.9295  0.9081
 9676TIP3    H250444   1.390   4.229  15.430  2.6887  0.4392 -0.4577
 9677TIP3   OH250445   1.036   4.685  15.979  0.2693 -0.4396  0.0736
 9677TIP3    H150446   0.949   4.688  15.939  0.2782  0.9659  0.1214
 9677TIP3    H250447   1.060   4.592  15.977 -0.7454 -0.7024 -0.9678
 9678TIP3   OH250448   4.812   4.144  14.877 -0.1326  0.0651 -0.0754
 9678TIP3    H150449   4.890   4.093  14.855 -0.3991  0.5504 -2.3683
 9678TIP3    H250450   4.847   4.228  14.908  0.2613 -0.1434  0.0600
 9679TIP3   OH250451   4.868   5.911  14.724 -0.1228 -0.5238 -0.3936
 9679TIP3    H150452   4.927   5.957  14.783 -2.3715 -0.6437  2.1192
 9679TIP3    H250453   4.799   5.974  14.704  0.1301 -0.7727 -2.2952
 9680TIP3   OH250454   4.414   5.189   5.243  0.0393 -0.3801 -0.1834
 9680TIP3    H150455   4.472   5.114   5.251  0.4359 -0.0078  0.5685
 9680TIP3    H250456   4.377   5.182   5.155  1.6120 -0.3598 -0.8763
 9681TIP3   OH250457   5.783   1.479   3.131 -0.7027  0.6403  0.7659
 9681TIP3    H150458   5.777   1.472   3.227 -0.4350 -0.0273  0.7388
 9681TIP3    H250459   5.864   1.528   3.116 -0.7299  0.7210  0.8864
 9682TIP3   OH250460   1.843   3.037   6.270  0.3189  0.1635  0.2335
 9682TIP3    H150461   1.937   3.022   6.259  0.2934 -0.3694  0.7014
 9682TIP3    H250462   1.805   2.949   6.274 -0.6487  0.2777 -3.3348
 9683TIP3   OH250463   0.475   6.368   1.595 -0.2072  0.1729  0.2256
 9683TIP3    H150464   0.568   6.374   1.571 -0.2612 -0.8870 -0.2963
 9683TIP3    H250465   0.475   6.325   1.680 -0.2681 -1.1995 -0.4410
 9684TIP3   OH250466   4.880   3.142  16.840 -0.6499 -0.1855 -0.3477
 9684TIP3    H150467   4.872   3.055  16.801 -1.2608  0.6125 -2.1355
 9684TIP3    H250468   4.954   3.182  16.794 -0.2427  0.1797  0.6023
 9685TIP3   OH250469   3.789   1.381  16.929 -0.1296  0.2158 -0.4460
 9685TIP3    H150470   3.723   1.387  16.998  0.1631 -0.6095 -0.0788
 9685TIP3    H250471   3.872   1.375  16.975  0.1975  1.0780 -0.9064
 9686TIP3   OH250472   6.656   0.130   1.788 -0.7388  0.2050 -0.0555
 9686TIP3    H150473   6.739   0.153   1.745 -0.6075  0.7910  0.5002
 9686TIP3    H250474   6.610   0.213   1.796 -0.5732  0.1729  1.3231
 9687TIP3   OH250475   1.827   2.896  12.092  0.3524 -0.2823 -0.3609
 9687TIP3    H150476   1.782   2.837  12.032 -0.0605 -0.2273 -0.1073
 9687TIP3    H250477   1.757   2.937  12.143  0.5891  0.9092 -0.9645
 9688TIP3   OH250478   6.122   1.626  13.880  0.2547  0.0335  0.5238
 9688TIP3    H150479   6.060   1.680  13.928 -0.3527 -1.7854  1.8525
 9688TIP3    H250480   6.068   1.574  13.820  0.1974 -2.7012  2.7736
 9689TIP3   OH250481   0.373   1.197   0.122  0.0753  0.0214  0.0831
 9689TIP3    H150482   0.315   1.122   0.134 -0.7921  0.4776 -1.1771
 9689TIP3    H250483   0.449   1.161   0.076  0.7133 -0.5194  1.4948
 9690TIP3   OH250484   6.270   5.516   0.316  0.0643  0.1288 -0.0807
 9690TIP3    H150485   6.206   5.476   0.376 -0.6722  1.6669  0.1907
 9690TIP3    H250486   6.313   5.441   0.275 -0.5593 -0.9596  1.1543
 9691TIP3   OH250487   1.316   0.994   5.113  0.0910 -0.8454  0.4063
 9691TIP3    H150488   1.322   0.917   5.056 -0.6598 -0.8508  0.3215
 9691TIP3    H250489   1.246   1.047   5.074 -0.6138 -0.9695  1.4786
 9692TIP3   OH250490   4.202   4.485  13.033 -0.3497 -0.8112  0.3328
 9692TIP3    H150491   4.149   4.441  12.967  1.7983 -4.2180  0.6927
 9692TIP3    H250492   4.242   4.559  12.987 -1.3866 -1.1979 -1.2468
 9693TIP3   OH250493   4.023   2.539  11.903 -0.0455 -0.2180  0.6390
 9693TIP3    H150494   3.959   2.590  11.953 -1.4347 -1.5213  0.2675
 9693TIP3    H250495   3.971   2.489  11.841  1.4540 -0.4816 -0.4672
 9694TIP3   OH250496   6.255   4.600  14.231 -0.2662 -0.2674 -0.4137
 9694TIP3    H150497   6.201   4.670  14.265 -0.6319  0.0156 -1.5343
 9694TIP3    H250498   6.196   4.547  14.177  0.2162 -0.8823 -0.3593
 9695TIP3   OH250499   2.061   6.149  16.990 -0.4139  0.0134  0.1470
 9695TIP3    H150500   1.970   6.169  16.968 -0.8493 -1.0851  0.8669
 9695TIP3    H250501   2.056   6.076  17.052  0.9594 -0.0980  0.1715
 9696TIP3   OH250502   0.915   1.447  13.933  0.1966 -0.2240  0.8614
 9696TIP3    H150503   0.952   1.426  14.019 -0.0845  0.5733  1.1843
 9696TIP3    H250504   0.901   1.362  13.892 -1.0884 -0.6927  2.1934
 9697TIP3   OH250505   4.031   6.354  15.557 -0.1860 -0.4191  0.1939
 9697TIP3    H150506   4.054   6.376  15.648  1.3644 -1.3652  0.0623
 9697TIP3    H250507   4.076   6.419  15.504 -3.0365  1.6931  0.0896
 9698TIP3   OH250508   3.176   6.197  13.145 -0.7646  0.1418 -0.0893
 9698TIP3    H150509   3.196   6.174  13.236 -0.0892 -1.7639 -0.6629
 9698TIP3    H250510   3.211   6.124  13.094  1.8404  2.6113 -2.1923
 9699TIP3   OH250511   4.321   5.397  13.757 -0.8190 -0.1121  0.1564
 9699TIP3    H150512   4.230   5.427  13.765 -0.6820  0.2680  0.3234
 9699TIP3    H250513   4.315   5.302  13.758 -1.2109 -0.0885  0.2269
 9700TIP3   OH250514   2.602   2.371   5.011 -0.3695  0.0486  0.3963
 9700TIP3    H150515   2.533   2.322   5.057 -0.5308  1.5940  1.9213
 9700TIP3    H250516   2.676   2.369   5.072 -0.0398  0.8197  0.0267
 9701TIP3   OH250517   0.063   3.097  12.995 -0.1152  0.3290  0.0167
 9701TIP3    H150518  -0.030   3.072  13.001 -0.1532  0.6275  0.6463
 9701TIP3    H250519   0.062   3.191  12.978  0.0814  0.6521  1.6266
 9702TIP3   OH250520   4.712   4.446  13.271  0.0641 -0.5439  1.0400
 9702TIP3    H150521   4.652   4.395  13.217  1.2876 -2.3752  1.3037
 9702TIP3    H250522   4.657   4.513  13.311 -0.9224  0.8904 -2.3616
 9703TIP3   OH250523   1.650   1.765  11.052 -0.1789  0.3177 -0.4558
 9703TIP3    H150524   1.743   1.740  11.052 -0.2591 -0.1003  1.3798
 9703TIP3    H250525   1.639   1.815  10.972  1.4273 -0.3903 -1.1695
 9704TIP3   OH250526   6.199   5.238  14.042 -0.4506 -0.4923  0.7030
 9704TIP3    H150527   6.284   5.223  14.002 -0.9799 -0.4896 -0.4558
 9704TIP3    H250528   6.136   5.210  13.976 -1.3791  1.0916  0.8558
 9705TIP3   OH250529   2.829   5.337   2.600  0.2783 -0.5564 -0.1338
 9705TIP3    H150530   2.887   5.346   2.676  0.2058 -0.4378 -0.0918
 9705TIP3    H250531   2.859   5.258   2.556  0.7084 -0.2965 -0.3154
 9706TIP3   OH250532   1.266   2.051  11.010  0.0840  0.0070 -0.0514
 9706TIP3    H150533   1.297   2.140  11.031 -1.0931  1.0212 -2.2607
 9706TIP3    H250534   1.177   2.064  10.979 -0.4888 -2.1322  0.5415
 9707TIP3   OH250535   5.394   4.379  13.955 -0.1382  0.3764 -0.0461
 9707TIP3    H150536   5.407   4.351  14.045 -2.6788  0.4670  0.4391
 9707TIP3    H250537   5.381   4.473  13.960  1.4435  0.6576 -0.7694
 9708TIP3   OH250538   2.291   3.274   1.657  0.0248  0.2252  0.6427
 9708TIP3    H150539   2.291   3.331   1.580  0.1113 -0.1443  0.3665
 9708TIP3    H250540   2.379   3.283   1.693 -0.9315  2.9034  2.5894
 9709TIP3   OH250541   1.339   4.022  16.236 -0.2241  0.0974  0.2020
 9709TIP3    H150542   1.400   4.007  16.309  0.2210  0.0606 -0.1728
 9709TIP3    H250543   1.333   3.937  16.193  0.7495  0.4782 -0.7386
 9710TIP3   OH250544   5.549   4.022   0.187 -0.3591  0.1464  0.0649
 9710TIP3    H150545   5.491   3.996   0.258  0.3392  0.9141  0.9410
 9710TIP3    H250546   5.536   4.117   0.178  0.2315  0.2129 -0.1997
 9711TIP3   OH250547   4.023   0.184  12.107  0.3756 -0.0732  0.0955
 9711TIP3    H150548   4.004   0.278  12.104  0.4558 -0.0623 -0.1028
 9711TIP3    H250549   4.075   0.172  12.187 -1.0294 -0.2056  1.0225
 9712TIP3   OH250550   5.773   2.415   4.746  0.1883  0.0610 -0.5766
 9712TIP3    H150551   5.804   2.350   4.810  1.2950 -0.2586 -1.3968
 9712TIP3    H250552   5.752   2.363   4.669 -2.6513  0.2383 -0.0399
 9713TIP3   OH250553   5.675   3.601  17.293 -0.6296 -0.1407  0.4329
 9713TIP3    H150554   5.669   3.507  17.271  0.1387 -0.3247  0.9878
 9713TIP3    H250555   5.768   3.616  17.309 -0.7185  0.7859  0.0898
 9714TIP3   OH250556   5.900   1.222  15.190  0.4434  0.8560 -0.0926
 9714TIP3    H150557   5.851   1.217  15.108 -0.1058  0.9527  0.2270
 9714TIP3    H250558   5.833   1.235  15.258  0.8427  0.2910  0.4254
 9715TIP3   OH250559   6.592   3.478   5.728 -0.1281 -0.1467  0.0745
 9715TIP3    H150560   6.594   3.495   5.634 -0.6001 -0.1207  0.0666
 9715TIP3    H250561   6.518   3.530   5.760  0.7189  0.7547  0.6438
 9716TIP3   OH250562   6.288   5.686   5.982 -0.1367  0.9531 -0.1115
 9716TIP3    H150563   6.285   5.648   5.894 -1.8579  1.7802 -0.4639
 9716TIP3    H250564   6.196   5.700   6.005  0.3117  1.4949  1.5049
 9717TIP3   OH250565   3.459   2.138  13.693 -0.1231 -0.2364  0.1197
 9717TIP3    H150566   3.380   2.087  13.673 -2.0686  1.5411  2.6277
 9717TIP3    H250567   3.466   2.134  13.788  1.9118  1.0034  0.0656
 9718TIP3   OH250568   1.792   2.299  11.613  0.3723 -0.1543  0.2370
 9718TIP3    H150569   1.706   2.277  11.576  0.6400 -1.0031  0.1158
 9718TIP3    H250570   1.852   2.298  11.539  0.6493 -0.4483  0.4608
 9719TIP3   OH250571   3.024   3.272  12.419 -0.0243  0.0480  0.3305
 9719TIP3    H150572   2.997   3.345  12.475  0.0537 -0.6949  1.3594
 9719TIP3    H250573   2.995   3.194  12.465 -1.9372 -0.5508 -1.7186
 9720TIP3   OH250574   2.558   2.437  14.889  0.0586 -0.7811  0.0084
 9720TIP3    H150575   2.510   2.354  14.890  1.2657 -1.5994 -2.3464
 9720TIP3    H250576   2.612   2.434  14.968 -0.7025 -1.7428  0.5125
 9721TIP3   OH250577   2.536   5.355  13.742  0.0914 -1.0248  0.7368
 9721TIP3    H150578   2.520   5.263  13.718 -0.0929 -0.9478  0.5574
 9721TIP3    H250579   2.448   5.394  13.745  0.2038 -0.7268  0.2914
 9722TIP3   OH250580   0.577   4.531   5.397  0.0714  0.2624 -0.3831
 9722TIP3    H150581   0.552   4.584   5.322 -1.2408 -0.8342 -0.7575
 9722TIP3    H250582   0.538   4.445   5.380  1.5241 -0.6283  0.5396
 9723TIP3   OH250583   1.890   0.562  13.195 -0.0849  0.2039 -0.3957
 9723TIP3    H150584   1.814   0.524  13.239  1.6658 -2.0553  0.9165
 9723TIP3    H250585   1.943   0.487  13.170  1.6044  1.6885 -1.5156
 9724TIP3   OH250586   2.723   2.463  16.991  0.1743  0.0495  0.3405
 9724TIP3    H150587   2.652   2.483  17.052  0.2338  0.1021  0.3926
 9724TIP3    H250588   2.800   2.454  17.047  0.1100 -0.5256  0.3417
 9725TIP3   OH250589   0.503   0.835   5.116 -0.6124  0.2133 -0.7625
 9725TIP3    H150590   0.490   0.770   5.185 -0.3720 -0.0534 -0.9681
 9725TIP3    H250591   0.414   0.859   5.089 -0.7749  1.5330  0.7595
 9726TIP3   OH250592   5.726   6.643   5.781  0.7088 -0.1734  0.3050
 9726TIP3    H150593   5.647   6.589   5.772  0.9740 -0.5127 -0.0184
 9726TIP3    H250594   5.699   6.729   5.749  0.6784 -0.4857 -0.5321
 9727TIP3   OH250595   0.414   1.450  17.333  0.4418  0.5700  0.2482
 9727TIP3    H150596   0.405   1.355  17.319 -0.0668  0.4792  1.1622
 9727TIP3    H250597   0.496   1.459  17.381 -0.9225  0.3063  2.7638
 9728TIP3   OH250598   6.634   0.336  11.375  0.2182  0.2960 -1.2236
 9728TIP3    H150599   6.698   0.299  11.315 -0.9348 -0.9831 -1.7306
 9728TIP3    H250600   6.637   0.430  11.359  0.5514  0.0614 -2.6678
 9729TIP3   OH250601   3.260   0.884  11.857  0.0711  0.6353 -0.1869
 9729TIP3    H150602   3.257   0.837  11.940 -1.0181  0.9090 -0.0570
 9729TIP3    H250603   3.213   0.828  11.795 -1.7261  1.7515  0.0965
 9730TIP3   OH250604   0.280   1.275  15.456  0.0247 -0.2884 -0.0762
 9730TIP3    H150605   0.250   1.331  15.385  0.1362 -0.2436 -0.0883
 9730TIP3    H250606   0.364   1.313  15.483 -0.1368 -0.1545  0.2463
 9731TIP3   OH250607   1.272   1.857  15.489  0.1222  0.0857  0.5061
 9731TIP3    H150608   1.224   1.932  15.523  0.1420 -0.1319  1.0324
 9731TIP3    H250609   1.206   1.788  15.481  0.2491 -0.0645  0.7511
 9732TIP3   OH250610   4.754   1.804  12.026  0.1303 -0.2454  0.3490
 9732TIP3    H150611   4.799   1.725  11.994  0.8098  0.1127  0.4043
 9732TIP3    H250612   4.824   1.860  12.057 -0.4091  0.0992  0.9556
 9733TIP3   OH250613   0.860   3.268  15.664  0.4240 -0.4445 -0.2972
 9733TIP3    H150614   0.788   3.281  15.602 -1.5650  1.9481  2.2029
 9733TIP3    H250615   0.924   3.334  15.641 -0.4283  0.6153  0.2629
 9734TIP3   OH250616   2.639   1.520   2.608  0.1883  0.0080 -0.5939
 9734TIP3    H150617   2.680   1.606   2.611  0.0282  0.0756 -0.3122
 9734TIP3    H250618   2.562   1.531   2.552  0.9770 -0.3054 -1.7780
 9735TIP3   OH250619   1.864   5.689  16.060  0.1287  0.1420  0.8486
 9735TIP3    H150620   1.772   5.716  16.062  0.3854  1.3032 -0.8650
 9735TIP3    H250621   1.887   5.688  15.967  1.2789 -2.2517  1.0706
 9736TIP3   OH250622   3.566   0.960   5.532 -0.0598  0.4304 -1.0296
 9736TIP3    H150623   3.607   0.954   5.618 -1.1319 -1.8430 -0.6021
 9736TIP3    H250624   3.482   1.004   5.548  0.8402  2.3761 -1.4047
 9737TIP3   OH250625   2.738   5.986  17.066  0.6968  0.1342  0.0503
 9737TIP3    H150626   2.833   5.994  17.062  0.8320  0.2045  2.1539
 9737TIP3    H250627   2.714   6.031  17.147 -1.2121  0.6553 -0.7360
 9738TIP3   OH250628   2.137   4.206   1.955  0.2465 -0.5992  0.1584
 9738TIP3    H150629   2.203   4.275   1.948 -1.2867  1.1797  2.0222
 9738TIP3    H250630   2.073   4.227   1.887  0.1240 -0.5880  0.2777
 9739TIP3   OH250631   2.868   4.353  13.429 -0.6014  0.0871  0.1769
 9739TIP3    H150632   2.916   4.356  13.346 -1.1346 -0.3556 -0.1547
 9739TIP3    H250633   2.880   4.440  13.467 -0.5326  0.3626 -0.4681
 9740TIP3   OH250634   1.061   3.541  11.166  0.5234  0.2422 -0.1913
 9740TIP3    H150635   1.138   3.568  11.117  0.7751  0.2239  0.1858
 9740TIP3    H250636   1.057   3.601  11.241  0.1042  0.3181 -0.2671
 9741TIP3   OH250637   0.031   0.766  11.847 -0.1361  0.2105  0.2556
 9741TIP3    H150638  -0.001   0.760  11.757  0.8807  0.0922 -0.1109
 9741TIP3    H250639  -0.019   0.838  11.886 -0.6031  0.2433 -0.3868
 9742TIP3   OH250640   5.642   5.776   0.473  0.4932  0.2299 -0.1492
 9742TIP3    H150641   5.619   5.766   0.381 -1.2899 -0.5714  0.3312
 9742TIP3    H250642   5.738   5.781   0.474  0.5295  4.6023 -2.4090
 9743TIP3   OH250643   2.092   5.592  16.873 -0.0275 -0.5085  0.0568
 9743TIP3    H150644   2.186   5.575  16.866 -0.2091 -1.0244 -1.5916
 9743TIP3    H250645   2.069   5.567  16.962  1.1208 -1.9415 -0.0141
 9744TIP3   OH250646   3.377   5.556  12.521 -0.9149  0.2792 -0.1376
 9744TIP3    H150647   3.366   5.502  12.443 -0.3270 -0.4160  0.2466
 9744TIP3    H250648   3.322   5.633  12.505 -1.0048  0.0238 -1.1143
 9745TIP3   OH250649   0.037   4.844  12.903  0.1223  0.0393 -0.2809
 9745TIP3    H150650  -0.041   4.811  12.859  0.1292 -0.5381  0.1297
 9745TIP3    H250651   0.006   4.873  12.988  0.6173 -1.7891  0.5679
 9746TIP3   OH250652   1.289   2.947  13.346 -0.4456 -0.4166  0.5505
 9746TIP3    H150653   1.314   3.038  13.362 -0.9960 -0.1722  0.0411
 9746TIP3    H250654   1.350   2.917  13.279 -1.4287  0.1616 -0.6503
 9747TIP3   OH250655   6.661   3.409  14.405  0.0911 -0.2936  0.2292
 9747TIP3    H150656   6.701   3.437  14.323 -0.4835 -1.1022 -0.3430
 9747TIP3    H250657   6.731   3.419  14.470  0.5392  0.3983 -0.3417
 9748TIP3   OH250658   5.601   6.265   0.035 -0.6651 -0.0500 -0.1665
 9748TIP3    H150659   5.571   6.183  -0.004  0.6857 -0.8656  0.4401
 9748TIP3    H250660   5.523   6.305   0.072 -1.5516 -0.4586 -1.5264
 9749TIP3   OH250661   6.528   1.493   4.088  0.0227 -0.1067  0.9520
 9749TIP3    H150662   6.580   1.538   4.022 -1.6731  2.2716  1.0851
 9749TIP3    H250663   6.450   1.463   4.041  0.4309 -1.6063  1.1915
 9750TIP3   OH250664   2.850   5.729  11.352  0.5003  0.8450  0.3680
 9750TIP3    H150665   2.935   5.689  11.332 -1.1183 -2.0017 -1.5531
 9750TIP3    H250666   2.855   5.817  11.314  2.0762  0.2045 -1.0531
 9751TIP3   OH250667   3.356   4.372   2.262  0.1706  0.1117 -1.0217
 9751TIP3    H150668   3.364   4.312   2.337 -1.0561  0.7135 -0.3751
 9751TIP3    H250669   3.327   4.455   2.301 -0.4296  0.4470 -2.1520
 9752TIP3   OH250670   1.752   0.506   1.094  0.2157  0.0321 -0.1136
 9752TIP3    H150671   1.718   0.571   1.156 -0.8126 -1.3256  0.8142
 9752TIP3    H250672   1.846   0.522   1.092 -0.0811  2.0197 -0.5157
 9753TIP3   OH250673   6.362   4.377  17.254  0.7271  0.2687  0.0820
 9753TIP3    H150674   6.288   4.411  17.204 -0.6280 -1.5418  0.7452
 9753TIP3    H250675   6.438   4.390  17.197 -0.5196 -0.3455 -1.8068
 9754TIP3   OH250676   3.952   0.088  13.299  0.2554  0.1869 -0.4365
 9754TIP3    H150677   3.911   0.052  13.378 -1.4423  2.0566 -0.4089
 9754TIP3    H250678   4.029   0.032  13.285 -0.1991 -1.0828  1.6924
 9755TIP3   OH250679   1.037   1.119  14.762 -0.8090  0.1353 -0.1571
 9755TIP3    H150680   1.084   1.125  14.845  0.1733 -0.4615 -0.6524
 9755TIP3    H250681   1.063   1.198  14.714 -2.4999  1.2269  0.6355
 9756TIP3   OH250682   4.723   0.123  13.467 -0.1486 -0.6032  0.5051
 9756TIP3    H150683   4.627   0.119  13.471 -0.1675 -1.3641 -0.2107
 9756TIP3    H250684   4.743   0.101  13.376  0.6840  0.2827  0.4653
 9757TIP3   OH250685   3.542   6.411  15.358  0.1717 -0.2723 -0.2474
 9757TIP3    H150686   3.609   6.438  15.295  0.3873  1.6497  0.7442
 9757TIP3    H250687   3.465   6.392  15.304  1.2545 -1.8669 -1.3456
 9758TIP3   OH250688   1.190   6.429  16.537  0.9468  0.4516  0.2294
 9758TIP3    H150689   1.232   6.394  16.616  0.9254 -0.9512 -0.3508
 9758TIP3    H250690   1.204   6.362  16.471 -1.6464  0.2230 -0.1706
 9759TIP3   OH250691   3.249   1.568   3.384  0.5536  0.3044  0.5176
 9759TIP3    H150692   3.305   1.566   3.462 -0.1837  2.4714  1.1705
 9759TIP3    H250693   3.310   1.585   3.312  1.3283 -2.3574  0.4293
 9760TIP3   OH250694   2.536   5.464  12.612 -0.3187 -0.1541 -0.1119
 9760TIP3    H150695   2.462   5.404  12.612 -0.4692  0.0331  0.0032
 9760TIP3    H250696   2.593   5.431  12.543 -0.2896 -0.5672  0.1109
 9761TIP3   OH250697   2.449   5.117  13.725 -0.1361 -0.2801 -0.2639
 9761TIP3    H150698   2.373   5.069  13.693  0.5078 -2.0866  0.7907
 9761TIP3    H250699   2.448   5.105  13.820  2.1641 -1.4876 -0.3249
 9762TIP3   OH250700   6.543   0.663  14.625 -0.6607 -0.1592  0.6441
 9762TIP3    H150701   6.540   0.674  14.720  1.4518  1.5948  0.5833
 9762TIP3    H250702   6.483   0.730  14.592 -1.0394 -0.4591  0.7173
 9763TIP3   OH250703   5.659   0.137   4.741  0.4133  0.4454  0.3286
 9763TIP3    H150704   5.700   0.122   4.826  0.2864 -0.3425  0.2583
 9763TIP3    H250705   5.591   0.070   4.735  0.9031  0.0179 -0.7093
 9764TIP3   OH250706   3.888   0.759  12.126 -0.1132  0.3345 -0.0148
 9764TIP3    H150707   3.867   0.843  12.083  0.6816 -0.0205 -1.1455
 9764TIP3    H250708   3.983   0.754  12.123 -0.0413  0.2375  1.7493
 9765TIP3   OH250709   0.052   0.053  14.802  0.1771  0.0671 -0.4867
 9765TIP3    H150710   0.116   0.117  14.772  0.0330  0.5385  0.1949
 9765TIP3    H250711   0.020   0.088  14.885 -1.4654  0.1882 -1.1285
 9766TIP3   OH250712   3.884   1.788   5.913 -0.2356 -0.8166  0.3072
 9766TIP3    H150713   3.944   1.716   5.894  3.8575  1.6265  2.5424
 9766TIP3    H250714   3.853   1.771   6.002 -0.5726 -0.6181  0.2309
 9767TIP3   OH250715   2.715   2.159   5.246  0.3805  0.1744 -0.2489
 9767TIP3    H150716   2.758   2.073   5.245 -0.2703 -0.1524 -1.1339
 9767TIP3    H250717   2.760   2.209   5.178  2.2104  1.3004  1.6795
 9768TIP3   OH250718   4.828   6.338   4.945 -0.5686  0.0807  0.2617
 9768TIP3    H150719   4.796   6.352   4.855  2.7765 -0.4090 -1.1586
 9768TIP3    H250720   4.863   6.249   4.944 -0.0300  0.2460  1.9280
 9769TIP3   OH250721   6.554   0.923   4.593 -0.1986  0.2004 -0.0728
 9769TIP3    H150722   6.475   0.915   4.541 -0.2884  1.7982 -0.2402
 9769TIP3    H250723   6.524   0.949   4.680  0.1456  1.5548 -0.3314
 9770TIP3   OH250724   5.456   5.410  11.869  0.1873  0.6412  0.1170
 9770TIP3    H150725   5.408   5.369  11.796  2.5646  0.3005 -1.3851
 9770TIP3    H250726   5.501   5.337  11.912  1.1515  1.1669  0.0316
 9771TIP3   OH250727   1.047   3.206   3.546 -0.0070 -0.1740  0.4119
 9771TIP3    H150728   1.132   3.171   3.518 -0.0607 -0.9375  1.1566
 9771TIP3    H250729   1.049   3.199   3.642 -0.6420  0.4427  0.4796
 9772TIP3   OH250730   1.875   6.348   3.639 -0.1116  0.1054 -0.6226
 9772TIP3    H150731   1.892   6.259   3.607  1.3957  0.4098 -0.7049
 9772TIP3    H250732   1.952   6.370   3.692 -2.1567 -0.1191  2.7731
 9773TIP3   OH250733   0.514   6.168   3.637  0.3962 -0.1307  0.0106
 9773TIP3    H150734   0.422   6.179   3.614  0.0956 -1.2056  0.6702
 9773TIP3    H250735   0.553   6.254   3.620 -0.3766 -0.0952 -1.8287
 9774TIP3   OH250736   2.843   6.551  16.838  0.0199 -0.2539 -0.5491
 9774TIP3    H150737   2.905   6.617  16.869  0.2540 -0.4415 -0.6130
 9774TIP3    H250738   2.788   6.598  16.775  1.6921 -0.6482 -2.4103
 9775TIP3   OH250739   1.074   6.139  12.217  0.2975  0.3447  0.4383
 9775TIP3    H150740   1.037   6.054  12.195  0.6362  0.1627  0.5727
 9775TIP3    H250741   1.107   6.129  12.306  1.9261  0.0766 -0.1648
 9776TIP3   OH250742   2.157   2.348   2.096 -0.0919 -0.3543 -0.2193
 9776TIP3    H150743   2.147   2.443   2.104 -0.5324 -0.4198 -0.0084
 9776TIP3    H250744   2.243   2.331   2.135 -0.1482 -0.0784  0.0358
 9777TIP3   OH250745   2.074   1.481  16.831 -0.0278  0.0007  0.1323
 9777TIP3    H150746   2.090   1.549  16.897  0.9831 -0.7829  0.7370
 9777TIP3    H250747   2.108   1.401  16.871 -1.2505 -0.8776 -0.5443
 9778TIP3   OH250748   0.163   2.766  17.241  0.5908 -0.1703  0.2043
 9778TIP3    H150749   0.073   2.733  17.240 -0.2735  1.8798 -2.3309
 9778TIP3    H250750   0.211   2.705  17.297 -1.4641 -3.9122 -1.6906
 9779TIP3   OH250751   3.734   1.367  11.322 -0.6751  0.1183  0.3885
 9779TIP3    H150752   3.763   1.451  11.286 -0.3895  0.3291  1.0938
 9779TIP3    H250753   3.781   1.301  11.272  0.4190  0.4340  0.9699
 9780TIP3   OH250754   6.297   0.968   4.896 -0.0747 -0.2929 -0.1500
 9780TIP3    H150755   6.242   1.007   4.828  0.7503 -0.3312 -0.8490
 9780TIP3    H250756   6.333   1.043   4.944 -0.8817 -0.2692  0.4528
 9781TIP3   OH250757   0.574   3.081  13.213  0.2055 -0.2717 -0.2108
 9781TIP3    H150758   0.604   3.169  13.237 -0.1470 -0.6057  1.5941
 9781TIP3    H250759   0.482   3.092  13.191 -0.1019 -0.3192  0.9890
 9782TIP3   OH250760   0.425   5.673   3.822 -0.1296 -0.1384  0.2177
 9782TIP3    H150761   0.458   5.641   3.906  2.0587  3.5093  0.9467
 9782TIP3    H250762   0.338   5.706   3.842  0.2357  0.3848  0.9794
 9783TIP3   OH250763   1.355   5.664   0.682 -0.3201  0.8174 -0.0879
 9783TIP3    H150764   1.364   5.759   0.686 -1.0750  0.8606  1.0682
 9783TIP3    H250765   1.439   5.630   0.712 -0.8106  1.1666  1.8640
 9784TIP3   OH250766   3.446   1.255   6.384  0.3866  0.1713 -0.3151
 9784TIP3    H150767   3.363   1.293   6.413  0.6074 -0.5138  1.3418
 9784TIP3    H250768   3.472   1.197   6.456  1.7028 -0.5577 -1.3304
 9785TIP3   OH250769   4.978   4.474  12.390 -0.2876  0.2018 -0.1119
 9785TIP3    H150770   5.026   4.416  12.331  0.5775  1.7607 -1.0407
 9785TIP3    H250771   4.903   4.423  12.420 -0.0622 -1.0616 -1.5867
 9786TIP3   OH250772   2.454   3.514  14.094 -0.7447  0.3176 -0.0654
 9786TIP3    H150773   2.546   3.488  14.098 -0.9287 -0.2606  1.4092
 9786TIP3    H250774   2.414   3.455  14.030  0.0383  1.0592 -1.2573
 9787TIP3   OH250775   3.372   0.911   3.883  0.2186  0.4850  0.1154
 9787TIP3    H150776   3.358   0.819   3.905 -0.5134  0.4896 -0.3079
 9787TIP3    H250777   3.397   0.910   3.790 -0.5535  0.7603 -0.1070
 9788TIP3   OH250778   2.878   1.120   3.956 -0.0585 -0.2076  0.5990
 9788TIP3    H150779   2.825   1.101   3.879  0.7956  2.1429 -0.6885
 9788TIP3    H250780   2.967   1.099   3.931 -0.1019 -2.8721  2.2935
 9789TIP3   OH250781   1.193   5.152   3.563 -0.0699 -0.4140  0.0025
 9789TIP3    H150782   1.226   5.077   3.513 -0.4043 -0.1888 -0.5739
 9789TIP3    H250783   1.111   5.120   3.602  0.1366 -0.5576  0.3184
 9790TIP3   OH250784   3.615   2.929  14.341  0.0172  0.2741  0.0351
 9790TIP3    H150785   3.543   2.872  14.313  0.7446 -0.1959 -0.9116
 9790TIP3    H250786   3.678   2.871  14.383 -0.3815  0.7650  1.3933
 9791TIP3   OH250787   1.832   2.511  15.737  0.5173  0.4984 -0.0489
 9791TIP3    H150788   1.884   2.578  15.781 -0.0462  1.1670 -0.3733
 9791TIP3    H250789   1.878   2.496  15.654 -0.5419  2.1511 -0.9965
 9792TIP3   OH250790   4.571   1.087  15.825 -0.0028 -0.0459  0.1770
 9792TIP3    H150791   4.523   1.101  15.907 -0.2255 -0.7154  0.1723
 9792TIP3    H250792   4.584   1.174  15.789 -2.2164  0.0913 -0.4028
 9793TIP3   OH250793   2.888   4.147   0.243 -0.7988 -0.6557 -0.3955
 9793TIP3    H150794   2.877   4.233   0.204 -1.2675 -0.3595  0.3591
 9793TIP3    H250795   2.888   4.163   0.338  0.8383 -1.2790 -0.2547
 9794TIP3   OH250796   6.297   6.644  11.447  0.7211 -0.2171 -0.2606
 9794TIP3    H150797   6.214   6.637  11.400 -0.1384  1.6097  0.8757
 9794TIP3    H250798   6.342   6.717  11.406  0.5052  0.5972  0.8890
 9795TIP3   OH250799   1.629   3.528   6.484 -1.0458  0.4840  0.4570
 9795TIP3    H150800   1.565   3.485   6.541 -1.9068 -0.4442 -1.1476
 9795TIP3    H250801   1.714   3.507   6.524 -1.5558 -1.0817  0.8174
 9796TIP3   OH250802   6.363   4.209   1.333  0.1074 -0.0748  0.2928
 9796TIP3    H150803   6.268   4.210   1.328 -0.0322 -0.9265  2.0389
 9796TIP3    H250804   6.388   4.301   1.341 -0.5606  0.1561 -0.2061
 9797TIP3   OH250805   5.746   5.160  15.073  0.2509 -0.0139 -0.1614
 9797TIP3    H150806   5.720   5.251  15.056 -2.3502 -0.4302  1.1692
 9797TIP3    H250807   5.723   5.146  15.164 -0.3843 -2.3314 -0.6346
 9798TIP3   OH250808   0.291   2.521   1.755  0.2262  0.5061  0.1486
 9798TIP3    H150809   0.324   2.433   1.773  1.8349  1.0626  0.0477
 9798TIP3    H250810   0.197   2.516   1.775 -0.2973 -1.9197 -2.3150
 9799TIP3   OH250811   5.709   5.451  13.429 -0.1840 -0.2035  0.1993
 9799TIP3    H150812   5.709   5.537  13.388  1.2314  1.0388  2.5799
 9799TIP3    H250813   5.785   5.407  13.392 -0.1140  0.0888 -0.0125
 9800TIP3   OH250814   6.413   5.462   3.599 -0.4155  0.8413 -0.2249
 9800TIP3    H150815   6.333   5.504   3.569 -0.4725  2.6230  2.1181
 9800TIP3    H250816   6.470   5.534   3.625  0.9992 -0.4519  0.4259
 9801TIP3   OH250817   4.816   5.916   3.415 -0.3054  0.1717 -0.7653
 9801TIP3    H150818   4.741   5.951   3.463  0.6471  0.1349  0.7985
 9801TIP3    H250819   4.878   5.889   3.483  0.8335 -0.4672 -2.0112
 9802TIP3   OH250820   2.649   0.160  14.208  0.0256 -0.0654 -0.5178
 9802TIP3    H150821   2.707   0.178  14.282 -0.3429  0.4377 -0.3421
 9802TIP3    H250822   2.561   0.158  14.246 -0.1700  0.2159 -0.9462
 9803TIP3   OH250823   0.719   0.293   3.345  0.1967  0.1142 -0.3523
 9803TIP3    H150824   0.791   0.351   3.371  0.3370  0.7211 -1.9698
 9803TIP3    H250825   0.760   0.206   3.339 -0.1534 -0.3539  2.6992
 9804TIP3   OH250826   1.808   2.387   4.040  0.0482 -0.3094  0.2056
 9804TIP3    H150827   1.870   2.341   3.983 -0.7013 -0.8287 -0.2002
 9804TIP3    H250828   1.847   2.474   4.050  1.3572 -0.9383  0.7990
 9805TIP3   OH250829   3.007   2.219   0.104 -0.4629  0.8618  0.1680
 9805TIP3    H150830   3.038   2.151   0.164 -0.4900  0.9011  0.2273
 9805TIP3    H250831   3.072   2.221   0.034 -2.1193 -1.4605 -1.5446
 9806TIP3   OH250832   1.320   5.418  15.666  0.2214 -0.6372 -0.5871
 9806TIP3    H150833   1.345   5.395  15.756 -0.4441  1.2791  0.1470
 9806TIP3    H250834   1.302   5.334  15.624  0.3229 -1.5832  1.1420
 9807TIP3   OH250835   4.708   0.113  17.030  0.6671 -0.1060 -0.0253
 9807TIP3    H150836   4.699   0.044  16.964 -0.0787 -1.2806  1.2553
 9807TIP3    H250837   4.786   0.089  17.079  0.1842 -0.2909  0.6733
 9808TIP3   OH250838   4.160   0.124   6.168 -0.2072 -0.1733  0.3418
 9808TIP3    H150839   4.239   0.123   6.223 -0.6472  0.8930  1.0290
 9808TIP3    H250840   4.089   0.104   6.228 -0.6228  0.4081  0.0545
 9809TIP3   OH250841   4.108   4.569  16.438 -0.7069 -0.3021 -0.2672
 9809TIP3    H150842   4.049   4.595  16.367 -3.1336 -1.8610  1.0507
 9809TIP3    H250843   4.117   4.648  16.491 -1.9056 -0.0856 -0.3454
 9810TIP3   OH250844   0.936   3.188  15.293  0.0953  0.2916 -0.2733
 9810TIP3    H150845   0.857   3.140  15.317  0.3833  0.0745  0.2691
 9810TIP3    H250846   0.931   3.197  15.198 -0.1603 -0.4808 -0.3388
 9811TIP3   OH250847   4.215   6.499  16.213  0.2577  0.1806 -0.3727
 9811TIP3    H150848   4.147   6.487  16.147 -1.3414  1.6710  0.8937
 9811TIP3    H250849   4.176   6.560  16.276  3.0398  1.6288  0.0801
 9812TIP3   OH250850   5.795   5.700   6.646  0.2359 -0.6908  0.4041
 9812TIP3    H150851   5.864   5.679   6.709  0.1686 -0.8205  0.4327
 9812TIP3    H250852   5.802   5.795   6.635  0.7203 -0.7600  0.0633
 9813TIP3   OH250853   5.122   4.197  11.211 -0.2116  0.6845  0.4745
 9813TIP3    H150854   5.197   4.256  11.202 -1.7549  2.8914  1.0692
 9813TIP3    H250855   5.047   4.251  11.184 -1.6548 -1.2456  0.4624
 9814TIP3   OH250856   3.318   2.967  12.571  0.0666 -0.2463 -0.9804
 9814TIP3    H150857   3.372   2.902  12.616  0.9069  1.1640  0.1292
 9814TIP3    H250858   3.232   2.925  12.563 -0.2278 -0.5190  2.2442
 9815TIP3   OH250859   1.487   6.012   4.636 -0.0306  0.4399 -0.1121
 9815TIP3    H150860   1.539   6.061   4.572  0.1710 -0.5263 -0.7088
 9815TIP3    H250861   1.429   5.958   4.583 -0.6328  0.4350  0.5399
 9816TIP3   OH250862   4.032   3.178  13.672  0.1297 -0.5045 -0.7052
 9816TIP3    H150863   3.966   3.142  13.612  0.2842  0.1936 -1.2987
 9816TIP3    H250864   4.108   3.121  13.660 -0.7094 -2.0729  0.8619
 9817TIP3   OH250865   4.745   3.522   4.144 -0.4855  0.4434  1.1182
 9817TIP3    H150866   4.821   3.467   4.126  0.4091  1.5445  1.4344
 9817TIP3    H250867   4.782   3.606   4.170 -1.8104  1.8087 -1.0870
 9818TIP3   OH250868   3.775   0.347  15.593  0.2475  0.0397 -0.3103
 9818TIP3    H150869   3.847   0.284  15.599 -0.2811 -0.5666 -0.1169
 9818TIP3    H250870   3.817   0.432  15.581  0.9634 -0.4119 -1.0855
 9819TIP3   OH250871   1.967   5.268   5.760 -0.2326 -0.5082 -0.7950
 9819TIP3    H150872   1.985   5.177   5.738 -1.8995 -1.4103  1.2170
 9819TIP3    H250873   1.990   5.275   5.853 -0.4657  1.0398 -0.8176
 9820TIP3   OH250874   5.171   2.727  16.721 -0.2488  0.0450  0.2799
 9820TIP3    H150875   5.185   2.651  16.665 -0.2041 -0.6407  1.1859
 9820TIP3    H250876   5.100   2.700  16.780 -0.0153  0.5888  0.8177
 9821TIP3   OH250877   3.392   4.918  12.456 -0.1079  0.0070  0.5557
 9821TIP3    H150878   3.479   4.919  12.496 -0.6300  0.8436  1.7274
 9821TIP3    H250879   3.400   4.855  12.384  1.6579  0.5958  0.1706
 9822TIP3   OH250880   4.156   6.219   5.169  0.2615  0.0168 -0.0634
 9822TIP3    H150881   4.131   6.260   5.251  0.7989 -2.4067  1.4063
 9822TIP3    H250882   4.138   6.285   5.102 -0.7596  1.8384  1.9172
 9823TIP3   OH250883   6.173   3.473   1.013 -0.4352  0.7760 -0.4944
 9823TIP3    H150884   6.229   3.395   1.019  0.1185  1.1060 -1.1694
 9823TIP3    H250885   6.131   3.466   0.928 -2.2532  0.0134  0.4226
 9824TIP3   OH250886   4.325   5.079   2.258  0.0374  0.5066 -0.1677
 9824TIP3    H150887   4.388   5.036   2.200 -0.4826 -1.9083  0.9062
 9824TIP3    H250888   4.378   5.113   2.330  0.2528 -0.8664  0.3617
 9825TIP3   OH250889   5.216   4.774   3.909 -0.2888 -0.1513 -0.1986
 9825TIP3    H150890   5.215   4.857   3.861 -1.5597 -0.6296 -1.0652
 9825TIP3    H250891   5.201   4.799   4.000 -1.5653  0.5431 -0.5679
 9826TIP3   OH250892   3.994   0.985   4.972  0.2930  0.1518  0.3980
 9826TIP3    H150893   4.038   1.046   4.913  0.6171  0.3190  0.8029
 9826TIP3    H250894   4.065   0.948   5.025  0.0900 -0.5109  0.2227
 9827TIP3   OH250895   4.502   6.129  13.947  0.3081  0.0333 -0.1795
 9827TIP3    H150896   4.435   6.182  13.989  0.9942 -0.0779  1.1132
 9827TIP3    H250897   4.456   6.081  13.878 -0.7199  0.7215  0.0095
 9828TIP3   OH250898   4.541   6.051  14.965 -1.2494  0.3527 -0.0251
 9828TIP3    H150899   4.549   6.051  15.060 -1.1170  2.2354  0.0045
 9828TIP3    H250900   4.484   5.977  14.945 -1.4102  0.0385  1.5314
 9829TIP3   OH250901   4.141   2.083   3.106 -0.4624  0.0824 -0.0313
 9829TIP3    H150902   4.080   2.104   3.035 -0.7104  0.2072  0.2144
 9829TIP3    H250903   4.151   1.988   3.102 -2.0296 -0.1744  0.9897
 9830TIP3   OH250904   2.289   1.133   1.308 -0.3397 -0.0658 -0.3319
 9830TIP3    H150905   2.319   1.189   1.237  0.0225  1.3736  0.9237
 9830TIP3    H250906   2.347   1.153   1.381 -0.2219 -2.0684  0.1866
 9831TIP3   OH250907   0.145   6.297   0.602 -0.1900  0.0079  0.1731
 9831TIP3    H150908   0.119   6.354   0.674 -3.7037 -1.1051 -0.0267
 9831TIP3    H250909   0.198   6.229   0.643 -1.8725 -0.4404  1.7439
 9832TIP3   OH250910   3.653   0.104  12.149 -0.2784 -0.0017  0.2854
 9832TIP3    H150911   3.723   0.167  12.171 -0.3698  0.2440 -0.1292
 9832TIP3    H250912   3.587   0.117  12.218  0.5124 -0.9303  1.2628
 9833TIP3   OH250913   6.589   6.141   0.293 -0.0743 -0.2097  0.3411
 9833TIP3    H150914   6.579   6.089   0.214 -2.9424  0.0341  0.4365
 9833TIP3    H250915   6.621   6.078   0.359 -1.0926 -1.2973 -0.1598
 9834TIP3   OH250916   6.620   5.237   2.704 -0.1726 -0.5372  0.0055
 9834TIP3    H150917   6.619   5.272   2.793  1.1394  0.5430 -0.3663
 9834TIP3    H250918   6.707   5.197   2.695 -0.8384 -1.9722 -0.3175
 9835TIP3   OH250919   1.162   2.518   2.880  0.1116 -0.4430  0.4497
 9835TIP3    H150920   1.157   2.569   2.799 -2.0192 -0.7036  0.3484
 9835TIP3    H250921   1.224   2.566   2.935  1.7726 -0.3679 -1.3690
 9836TIP3   OH250922   5.056   3.633  12.049 -0.3743  0.2408  0.2449
 9836TIP3    H150923   5.017   3.673  12.126 -2.1064  2.1921 -1.5115
 9836TIP3    H250924   4.996   3.654  11.978  1.2239 -1.3126 -1.7012
 9837TIP3   OH250925   5.825   0.197  13.280  0.2510 -0.0363 -0.1233
 9837TIP3    H150926   5.808   0.284  13.316  0.3188  0.3142 -0.9042
 9837TIP3    H250927   5.769   0.138  13.331 -2.4250  0.9055 -1.7575
 9838TIP3   OH250928   1.156   3.802  15.518  0.7810  0.3645 -0.2364
 9838TIP3    H150929   1.066   3.779  15.493  0.0983 -1.1519  3.1658
 9838TIP3    H250930   1.147   3.884  15.566  0.6929 -1.1050  2.4448
 9839TIP3   OH250931   0.799   0.737  12.235  0.0321 -0.2542  0.3877
 9839TIP3    H150932   0.844   0.771  12.158  2.9491  0.3685  2.1920
 9839TIP3    H250933   0.765   0.815  12.279 -2.3327 -0.6667 -0.5703
 9840TIP3   OH250934   2.519   0.376   2.324  0.0492 -0.1952  0.3878
 9840TIP3    H150935   2.474   0.441   2.377 -0.0723 -0.4706  0.6280
 9840TIP3    H250936   2.599   0.419   2.294 -0.1143  0.1190  0.3998
 9841TIP3   OH250937   3.878   0.440   6.680  0.2613 -0.3372 -0.3301
 9841TIP3    H150938   3.942   0.505   6.650  1.3012  0.5530  3.2714
 9841TIP3    H250939   3.819   0.490   6.738  1.8290 -2.5899  3.5852
 9842TIP3   OH250940   0.604   4.301  16.136 -0.5313  0.3282  0.0933
 9842TIP3    H150941   0.686   4.262  16.168 -0.9170 -0.8931 -0.3819
 9842TIP3    H250942   0.623   4.326  16.045 -0.5896  0.3394  0.0837
 9843TIP3   OH250943   6.141   0.392   0.631 -0.0011 -0.6510 -0.3824
 9843TIP3    H150944   6.100   0.475   0.655 -1.0053 -1.5990  1.4410
 9843TIP3    H250945   6.167   0.404   0.540 -0.7385  1.4083 -0.3911
 9844TIP3   OH250946   1.663   5.678  14.095  0.0721 -0.2244  0.1515
 9844TIP3    H150947   1.724   5.665  14.167  0.4800 -0.8853 -0.2978
 9844TIP3    H250948   1.587   5.624  14.117  0.6353 -1.2951 -0.3985
 9845TIP3   OH250949   6.660   3.585   3.372  0.1538  0.2769  0.2045
 9845TIP3    H150950   6.629   3.514   3.315 -0.5238  1.4968 -1.0206
 9845TIP3    H250951   6.703   3.541   3.445 -1.9913 -1.4586  0.5207
 9846TIP3   OH250952   1.325   0.090   0.841 -0.3967  0.6834 -0.4458
 9846TIP3    H150953   1.282   0.012   0.806  0.8338 -0.0590 -0.3305
 9846TIP3    H250954   1.314   0.083   0.936  1.8001 -0.6584 -0.2261
 9847TIP3   OH250955   1.473   0.057  13.003 -0.1405 -0.2102  0.4605
 9847TIP3    H150956   1.429  -0.003  12.943  0.4376 -0.5418  0.3635
 9847TIP3    H250957   1.551   0.086  12.956  0.8668 -1.2532  1.3918
 9848TIP3   OH250958   1.201   1.866  17.270  0.3118  0.1253  0.4645
 9848TIP3    H150959   1.192   1.773  17.293 -0.2739 -0.1113 -0.6369
 9848TIP3    H250960   1.174   1.913  17.349 -1.8015 -0.6371  0.2600
 9849TIP3   OH250961   1.677   5.886   2.157  0.6762  0.1921 -0.5066
 9849TIP3    H150962   1.676   5.932   2.241  0.2467  1.6704 -1.3004
 9849TIP3    H250963   1.682   5.793   2.181 -2.6728  0.3119  1.2589
 9850TIP3   OH250964   0.261   3.346   5.069  0.2662  0.5530  0.3052
 9850TIP3    H150965   0.169   3.325   5.049  0.5149  0.8475 -1.2376
 9850TIP3    H250966   0.265   3.441   5.064  1.1210  0.4549 -1.9828
 9851TIP3   OH250967   6.235   4.909  16.635  0.6564 -0.1909  0.2097
 9851TIP3    H150968   6.274   4.996  16.644 -2.2216  1.3977 -1.3433
 9851TIP3    H250969   6.187   4.896  16.717 -0.6517  0.6904 -0.3860
 9852TIP3   OH250970   3.661   1.925  11.711 -0.0310 -0.4530 -0.2160
 9852TIP3    H150971   3.724   1.945  11.780  1.6949 -1.1421 -1.5328
 9852TIP3    H250972   3.669   1.997  11.649  1.8554 -2.0894 -1.9776
 9853TIP3   OH250973   2.571   5.960  14.820 -0.0986  0.3584 -0.1767
 9853TIP3    H150974   2.548   5.895  14.886  0.9175  1.0618  0.9044
 9853TIP3    H250975   2.506   6.029  14.831 -0.7318 -0.1220 -0.8270
 9854TIP3   OH250976   5.597   5.136   6.260  0.2309 -0.0556 -0.5304
 9854TIP3    H150977   5.588   5.221   6.217  2.3772 -0.2721 -1.5610
 9854TIP3    H250978   5.592   5.156   6.353 -1.4467  0.8698 -0.7807
 9855TIP3   OH250979   6.283   4.898   0.593  0.2288  0.0394  0.0198
 9855TIP3    H150980   6.246   4.837   0.657 -0.4994  0.2812 -0.1615
 9855TIP3    H250981   6.255   4.864   0.508 -0.1978  0.6180 -0.0821
 9856TIP3   OH250982   0.011   6.297   1.576 -0.0838  0.0584 -0.5022
 9856TIP3    H150983   0.069   6.293   1.501  1.2188 -0.2147  0.4808
 9856TIP3    H250984  -0.031   6.211   1.579  1.2495 -0.6035  0.1161
 9857TIP3   OH250985   1.832   4.982   0.038 -0.1200 -0.0867 -0.3857
 9857TIP3    H150986   1.762   4.963  -0.025 -1.1131 -0.9314  0.9231
 9857TIP3    H250987   1.813   4.926   0.113  0.9917  0.9315  0.7036
 9858TIP3   OH250988   6.643   2.816  15.521  0.1114  0.4238  0.3354
 9858TIP3    H150989   6.548   2.814  15.511  0.0252 -1.0781  1.1549
 9858TIP3    H250990   6.658   2.865  15.602  0.1795  2.4223 -0.8317
 9859TIP3   OH250991   0.083   0.726  15.635 -0.3926 -0.2213  0.5317
 9859TIP3    H150992   0.099   0.755  15.724 -0.8294 -0.1099  0.5757
 9859TIP3    H250993   0.078   0.806  15.584 -4.5145  0.1214  1.1006
 9860TIP3   OH250994   5.755   0.287  13.695 -0.2866 -0.3991  0.2995
 9860TIP3    H150995   5.774   0.342  13.619  0.5181 -0.7260  0.2565
 9860TIP3    H250996   5.840   0.270  13.734 -0.7239 -0.0199  1.4343
 9861TIP3   OH250997   1.664   0.576  16.697  0.5106  0.1316 -0.5422
 9861TIP3    H150998   1.638   0.529  16.776 -0.2464  0.1323 -0.7845
 9861TIP3    H250999   1.754   0.549  16.681  0.8336  0.5020  0.5893
 9862TIP3   OH251000   5.556   3.920   0.798  0.2789  0.1312  0.2541
 9862TIP3    H151001   5.461   3.910   0.798 -0.1612  3.2709  0.5274
 9862TIP3    H251002   5.582   3.903   0.889 -0.3298  1.2137  0.6501
 9863TIP3   OH251003   2.054   5.398   4.016  0.8911 -0.1146  0.2475
 9863TIP3    H151004   1.990   5.468   4.026  1.1354  0.3349 -1.0763
 9863TIP3    H251005   2.121   5.416   4.082 -0.4275 -0.7272  1.8141
 9864TIP3   OH251006   6.418   2.504  16.675  0.6251 -0.4053 -0.2848
 9864TIP3    H151007   6.479   2.576  16.685  1.4595 -0.8549 -1.7250
 9864TIP3    H251008   6.353   2.517  16.743  0.9931  1.4530 -0.2475
 9865TIP3   OH251009   1.360   5.139   2.823  0.2094 -0.1559  0.0261
 9865TIP3    H151010   1.362   5.225   2.865  3.2613  1.1028 -2.3255
 9865TIP3    H251011   1.384   5.077   2.893  1.7868  1.4102  0.9586
 9866TIP3   OH251012   3.978   5.165  13.808  0.2261  0.8903 -0.4190
 9866TIP3    H151013   3.998   5.258  13.804 -0.0298  1.0138  0.8699
 9866TIP3    H251014   3.946   5.151  13.897  0.6413 -0.5046 -0.4727
 9867TIP3   OH251015   5.442   3.406  13.095 -0.2217  0.2895  0.1860
 9867TIP3    H151016   5.462   3.327  13.046  1.5765  0.4864  0.5086
 9867TIP3    H251017   5.371   3.448  13.047  0.0174 -0.6249 -1.0008
 9868TIP3   OH251018   5.070   4.136   1.850  0.0987  0.0380  0.1355
 9868TIP3    H151019   5.054   4.042   1.862 -0.3119 -0.3400 -2.7311
 9868TIP3    H251020   5.127   4.141   1.773 -0.7396  2.1637 -0.4194
 9869TIP3   OH251021   1.804   3.930   3.054  0.0194  0.0099 -0.1215
 9869TIP3    H151022   1.875   3.904   2.996  0.8813  1.5921  0.1564
 9869TIP3    H251023   1.728   3.943   2.997  0.8305  1.4529 -0.9294
 9870TIP3   OH251024   5.084   3.325  16.180  0.3930 -0.5322 -0.1143
 9870TIP3    H151025   5.071   3.333  16.275  0.3641 -0.8236 -0.0925
 9870TIP3    H251026   5.140   3.248  16.170  1.5013  0.2744 -0.2535
 9871TIP3   OH251027   4.838   2.230  15.777  0.3294  0.8594 -0.2348
 9871TIP3    H151028   4.765   2.195  15.828  0.7948  0.8477  0.4318
 9871TIP3    H251029   4.797   2.276  15.705 -0.3338  0.6305 -0.0097
 9872TIP3   OH251030   3.066   1.240  13.709  0.0872 -0.3115  0.0438
 9872TIP3    H151031   3.093   1.171  13.649 -0.3950 -1.0437  0.6444
 9872TIP3    H251032   3.060   1.196  13.794 -0.8858  0.3168  0.3151
 9873TIP3   OH251033   1.090   4.250  16.830 -0.5388  0.3495  0.1748
 9873TIP3    H151034   1.178   4.288  16.830 -0.7984  0.9630  0.4755
 9873TIP3    H251035   1.044   4.295  16.901 -0.2181 -2.0799  2.0392
 9874TIP3   OH251036   4.093   4.862   2.102 -0.0394  0.0894  0.0961
 9874TIP3    H151037   4.009   4.868   2.057  0.8899  0.0105 -1.7607
 9874TIP3    H251038   4.075   4.810   2.180 -1.5676 -0.5189 -0.6152
 9875TIP3   OH251039   2.285   1.478  17.124  0.6056 -1.1388  0.2848
 9875TIP3    H151040   2.341   1.445  17.194 -0.4667 -3.7448  0.0236
 9875TIP3    H251041   2.312   1.428  17.047 -0.3437 -0.5777 -0.4291
 9876TIP3   OH251042   1.777   5.608  17.154  0.2069 -0.1639  0.6693
 9876TIP3    H151043   1.682   5.614  17.147 -0.1189 -3.6023  0.2556
 9876TIP3    H251044   1.795   5.614  17.248 -0.5840 -0.6363  0.8618
 9877TIP3   OH251045   3.197   0.402  16.553  0.3884 -0.2914 -0.5578
 9877TIP3    H151046   3.238   0.356  16.626  1.7679  2.0133  0.2347
 9877TIP3    H251047   3.211   0.344  16.478  3.3331 -0.6097  0.0984
 9878TIP3   OH251048   5.283   6.743   5.502  0.1025 -0.1869  0.8287
 9878TIP3    H151049   5.245   6.698   5.578 -2.2201 -0.0602 -0.1803
 9878TIP3    H251050   5.266   6.685   5.428 -0.7986  1.2223 -0.1251
 9879TIP3   OH251051   3.571   2.938  13.018 -0.3041  0.3912 -0.1235
 9879TIP3    H151052   3.645   2.996  12.997  0.7560 -0.8414  0.0606
 9879TIP3    H251053   3.498   2.973  12.968  0.1564  2.2123  0.4005
 9880TIP3   OH251054   1.131   2.588  11.358  0.0188  0.1182 -0.0784
 9880TIP3    H151055   1.114   2.534  11.281  1.0338  0.7108 -0.7519
 9880TIP3    H251056   1.166   2.527  11.423 -1.0887 -0.4318  0.0246
 9881TIP3   OH251057   3.152   6.243   0.089  0.9452  0.2689  0.2522
 9881TIP3    H151058   3.141   6.330   0.128 -2.0800  0.4531 -0.7475
 9881TIP3    H251059   3.071   6.197   0.110  1.8566 -1.8035 -0.5271
 9882TIP3   OH251060   2.059   5.598   2.217  0.1308  0.2850 -0.4924
 9882TIP3    H151061   2.132   5.536   2.214 -1.3083 -1.5012 -0.9169
 9882TIP3    H251062   2.035   5.601   2.310  1.0889  1.3412 -0.2639
 9883TIP3   OH251063   5.989   5.796  17.281  0.6414  0.1590 -0.2044
 9883TIP3    H151064   6.019   5.753  17.361  1.1070 -0.8480 -0.9021
 9883TIP3    H251065   5.906   5.753  17.260 -0.7594  2.0789  1.0256
 9884TIP3   OH251066   5.144   6.329  12.323 -0.1868  0.2111  0.0742
 9884TIP3    H151067   5.199   6.307  12.398  1.7090  0.4829 -1.1702
 9884TIP3    H251068   5.190   6.293  12.247 -2.5926 -1.0342 -0.9237
 9885TIP3   OH251069   6.004   2.764  17.142 -0.1458  0.1346 -0.1646
 9885TIP3    H151070   6.011   2.744  17.048  0.6989  0.4460 -0.1717
 9885TIP3    H251071   6.093   2.786  17.169 -0.4030  0.1633  0.6908
 9886TIP3   OH251072   1.982   1.367  17.183 -0.4580  0.0108  0.2141
 9886TIP3    H151073   1.994   1.311  17.107 -0.9281 -0.4289  0.4593
 9886TIP3    H251074   2.029   1.323  17.254 -1.8146 -0.7177  0.7006
 9887TIP3   OH251075   3.040   0.865   4.145 -0.5258 -0.4182 -0.0261
 9887TIP3    H151076   3.100   0.801   4.182 -1.1786 -1.0708 -0.0783
 9887TIP3    H251077   2.953   0.827   4.157 -0.8609  0.0414 -0.8712
 9888TIP3   OH251078   1.551   1.574   3.025 -0.4718 -0.0529  1.3553
 9888TIP3    H151079   1.576   1.536   2.942 -0.1618  0.9499  0.9682
 9888TIP3    H251080   1.456   1.585   3.019 -0.2195  2.1348  0.1527
 9889TIP3   OH251081   2.530   4.822   6.124  0.2218 -0.4968 -0.1519
 9889TIP3    H151082   2.594   4.865   6.181  0.5845  0.4748 -1.2770
 9889TIP3    H251083   2.541   4.864   6.039 -0.1727 -2.0714 -1.0098
 9890TIP3   OH251084   4.974   0.650   1.263  0.2791 -0.1786  0.1943
 9890TIP3    H151085   4.987   0.620   1.353  0.9859  4.5660  1.9701
 9890TIP3    H251086   5.062   0.660   1.228  0.0174 -1.4588 -0.9443
 9891TIP3   OH251087   1.103   1.340  11.549 -0.1012 -0.3374  0.2072
 9891TIP3    H151088   1.188   1.339  11.592  0.2423  0.2054 -0.4323
 9891TIP3    H251089   1.104   1.419  11.495 -1.0750 -0.2358  0.3070
 9892TIP3   OH251090   5.059   6.739   2.412  0.8268  0.0474  0.2125
 9892TIP3    H151091   4.997   6.776   2.475  0.6825  0.5303 -0.2053
 9892TIP3    H251092   5.094   6.661   2.456 -0.2699 -0.3869  0.3475
 9893TIP3   OH251093   2.768   1.470   3.612  0.8779  0.0746 -0.1655
 9893TIP3    H151094   2.861   1.491   3.607  0.6717  1.2856  0.7349
 9893TIP3    H251095   2.739   1.505   3.696 -0.5574  0.3939 -0.7627
 9894TIP3   OH251096   5.032   3.835  15.378 -0.3994  0.7170 -0.1425
 9894TIP3    H151097   5.062   3.864  15.292  1.6980  1.6326  0.8458
 9894TIP3    H251098   4.949   3.882  15.391 -0.0916  1.5676 -1.1057
 9895TIP3   OH251099   4.185   1.760  16.978  0.2291  0.1815  0.1291
 9895TIP3    H151100   4.136   1.796  17.053  0.9644  0.6545  0.3950
 9895TIP3    H251101   4.183   1.830  16.913 -1.6424 -0.7423 -0.9110
 9896TIP3   OH251102   5.451   0.634  12.517 -0.3081  0.5654  0.6848
 9896TIP3    H151103   5.456   0.604  12.608  0.7839 -0.0216  0.4523
 9896TIP3    H251104   5.368   0.682  12.511 -1.4747 -1.2864  1.4093
 9897TIP3   OH251105   2.764   0.142  13.652 -0.3807  0.2562  0.2149
 9897TIP3    H151106   2.722   0.152  13.737  0.0562 -2.8033  0.8964
 9897TIP3    H251107   2.857   0.148  13.670 -0.2670 -0.8656  0.0625
 9898TIP3   OH251108   6.455   1.856   5.725  0.1318 -0.3224  0.1484
 9898TIP3    H151109   6.543   1.882   5.754 -0.4606  2.8561 -0.4775
 9898TIP3    H251110   6.409   1.835   5.806  1.1518 -0.9554  0.5830
 9899TIP3   OH251111   0.445   1.950  13.180  0.3901  0.3487  0.0014
 9899TIP3    H151112   0.469   1.881  13.241  0.3131 -0.2376 -0.6177
 9899TIP3    H251113   0.515   1.949  13.114 -0.0220  0.3358 -0.4383
 9900TIP3   OH251114   5.400   1.678   3.193 -0.6186  0.4437 -0.2934
 9900TIP3    H151115   5.408   1.593   3.236 -1.3887  2.2831  3.9522
 9900TIP3    H251116   5.330   1.666   3.129 -0.8152 -2.0307  0.2896
 9901TIP3   OH251117   0.027   1.226   4.029  0.2076 -0.1751 -0.4210
 9901TIP3    H151118   0.093   1.239   4.097  0.6783  0.5046 -0.9931
 9901TIP3    H251119   0.010   1.314   3.995  0.2830 -0.5537 -1.4550
 9902TIP3   OH251120   2.427   5.217  11.283 -0.6749  0.1575  0.5798
 9902TIP3    H151121   2.508   5.220  11.334  0.7440 -0.0837 -1.5265
 9902TIP3    H251122   2.415   5.307  11.253 -0.9748  0.1191  0.5865
 9903TIP3   OH251123   5.050   0.864  13.884 -0.1521  0.5497  0.5560
 9903TIP3    H151124   5.031   0.806  13.810  1.5640 -0.5018  0.8700
 9903TIP3    H251125   5.018   0.817  13.961 -2.2143  1.7804  0.4996
 9904TIP3   OH251126   2.657   4.882  14.146 -0.5097 -0.4109  0.5882
 9904TIP3    H151127   2.634   4.974  14.131 -0.5216 -0.3683  0.8615
 9904TIP3    H251128   2.573   4.839  14.163 -0.5270 -0.5143  0.2623
 9905TIP3   OH251129   4.359   2.121  13.725  0.2201  0.8458 -0.1555
 9905TIP3    H151130   4.347   2.033  13.761  0.7273  1.5696  1.9185
 9905TIP3    H251131   4.401   2.107  13.640  0.5936 -0.9020  0.2908
 9906TIP3   OH251132   5.033   2.951  15.347  0.0673  0.0539 -0.3323
 9906TIP3    H151133   5.115   2.909  15.373 -0.4924 -2.5375 -2.3022
 9906TIP3    H251134   4.992   2.977  15.429  2.0357 -0.2350  0.8035
 9907TIP3   OH251135   4.512   0.070  15.539 -0.1594  0.3112 -0.1913
 9907TIP3    H151136   4.529   0.155  15.580  1.4305 -0.4833  0.8900
 9907TIP3    H251137   4.596   0.025  15.541 -0.5459 -0.6163 -2.4222
 9908TIP3   OH251138   3.808   3.442  14.719  0.0078 -0.2771  0.3206
 9908TIP3    H151139   3.902   3.431  14.734 -0.1344 -1.3375  0.5482
 9908TIP3    H251140   3.795   3.536  14.716  1.4992 -0.0340 -2.3891
 9909TIP3   OH251141   6.012   0.427  12.191 -0.1533  0.0652 -0.4243
 9909TIP3    H151142   6.069   0.416  12.267 -2.2233 -1.3932  1.0183
 9909TIP3    H251143   6.014   0.342  12.147 -1.2070 -0.0511 -0.2924
 9910TIP3   OH251144   3.706   4.828  14.873  0.2177  0.3918 -0.2988
 9910TIP3    H151145   3.628   4.883  14.875  0.2207  0.3814  0.5909
 9910TIP3    H251146   3.683   4.752  14.927  1.0272  0.6568  0.4377
 9911TIP3   OH251147   4.159   4.590   0.941 -0.0263 -0.1009 -0.4697
 9911TIP3    H151148   4.140   4.627   1.028  0.5916  0.3547 -0.5229
 9911TIP3    H251149   4.074   4.561   0.909 -0.0945 -1.4941  0.8455
 9912TIP3   OH251150   4.800   0.278  10.997  0.2142  0.2170 -0.0977
 9912TIP3    H151151   4.810   0.199  11.050  0.1192  0.5336  0.4080
 9912TIP3    H251152   4.842   0.347  11.050 -1.3249  0.8566  0.3510
 9913TIP3   OH251153   6.258   1.048  11.527  0.7033  0.2326 -0.2883
 9913TIP3    H151154   6.186   1.105  11.554  1.1638  1.2129 -1.0702
 9913TIP3    H251155   6.276   1.073  11.436  0.1579 -1.9645 -1.0635
 9914TIP3   OH251156   1.157   4.235   5.440 -0.2853 -0.1133 -0.4465
 9914TIP3    H151157   1.087   4.204   5.382 -0.3038 -0.7498 -0.0935
 9914TIP3    H251158   1.238   4.212   5.394 -0.2877  1.2492 -1.1858
 9915TIP3   OH251159   4.955   4.308  16.823  0.0342 -1.0428 -0.5516
 9915TIP3    H151160   5.005   4.386  16.798  0.6089 -1.1745  0.1381
 9915TIP3    H251161   5.021   4.245  16.852 -0.5322 -1.1622  0.5391
 9916TIP3   OH251162   1.412   5.330  14.763  0.4949  0.0331 -0.0481
 9916TIP3    H151163   1.330   5.284  14.747 -0.4442  1.9335 -0.9881
 9916TIP3    H251164   1.411   5.348  14.857 -0.4542  0.5361 -0.1430
 9917TIP3   OH251165   3.963   3.588   2.251 -0.7690  0.1560  0.0381
 9917TIP3    H151166   3.943   3.643   2.175 -2.5253  1.4924  1.3668
 9917TIP3    H251167   3.879   3.547   2.273 -0.8065  1.2724  2.3268
 9918TIP3   OH251168   5.795   6.578   2.832 -0.0719 -0.4058  0.0671
 9918TIP3    H151169   5.714   6.617   2.800  0.7571  0.2312 -1.3765
 9918TIP3    H251170   5.854   6.652   2.844  1.0631 -1.0352 -1.2964
 9919TIP3   OH251171   6.545   3.976   4.423 -0.1647 -0.4278 -0.2696
 9919TIP3    H151172   6.522   3.930   4.504 -1.7736 -1.0928 -1.0601
 9919TIP3    H251173   6.632   4.011   4.440 -0.7255  0.0763  2.0201
 9920TIP3   OH251174   6.401   6.058  12.270 -0.3697 -0.7684 -0.2221
 9920TIP3    H151175   6.468   6.110  12.227 -1.7387  0.4383 -1.0152
 9920TIP3    H251176   6.376   6.110  12.347 -0.8433 -0.8649 -0.3043
 9921TIP3   OH251177   0.386   2.534  15.271  0.5851  0.1615  0.1192
 9921TIP3    H151178   0.303   2.523  15.318  0.3334 -1.8366 -0.6906
 9921TIP3    H251179   0.449   2.558  15.339 -0.4667  0.7693  0.9021
 9922TIP3   OH251180   2.978   0.790  15.234 -0.5552 -0.1105 -0.3492
 9922TIP3    H151181   3.018   0.737  15.165 -0.7680  0.6609 -1.0774
 9922TIP3    H251182   2.947   0.869  15.190 -0.6322  0.4377  0.6440
 9923TIP3   OH251183   0.211   0.586  14.044  0.0471  0.0252  0.4153
 9923TIP3    H151184   0.181   0.555  14.129  1.5947  0.9074  1.3482
 9923TIP3    H251185   0.265   0.515  14.010 -1.2786 -0.6894 -0.2790
 9924TIP3   OH251186   0.145   1.333  12.019  0.4543 -0.3923 -0.1404
 9924TIP3    H151187   0.177   1.256  12.066  1.4839  0.8525  1.2981
 9924TIP3    H251188   0.107   1.298  11.938  0.7681 -2.4016  0.5327
 9925TIP3   OH251189   2.333   1.264   3.482  0.7942 -0.6339 -0.3834
 9925TIP3    H151190   2.420   1.301   3.470  1.2981 -1.5021  0.4132
 9925TIP3    H251191   2.273   1.331   3.451  1.6746  0.6898  0.6742
 9926TIP3   OH251192   0.272   4.724   3.492  0.0717  0.1782 -0.0499
 9926TIP3    H151193   0.212   4.660   3.454  0.6080 -0.9902  0.9933
 9926TIP3    H251194   0.257   4.804   3.441 -1.3311 -0.4791 -0.7374
 9927TIP3   OH251195   5.156   0.523  10.768  0.0631 -0.9087  0.4508
 9927TIP3    H151196   5.116   0.605  10.738  1.6130 -0.1016  0.4761
 9927TIP3    H251197   5.250   0.540  10.765  0.3742 -1.7308  3.1709
 9928TIP3   OH251198   2.012   5.772  11.886 -0.1276  0.0247  0.4875
 9928TIP3    H151199   2.025   5.795  11.794  0.1537 -1.1296  0.2178
 9928TIP3    H251200   1.947   5.702  11.885 -0.0022 -0.1115  1.1563
 9929TIP3   OH251201   0.898   1.305  16.327 -0.3647 -0.4267  0.2909
 9929TIP3    H151202   0.818   1.352  16.304 -0.1873 -0.9640 -1.5723
 9929TIP3    H251203   0.969   1.354  16.285  0.1925 -0.4587  1.1759
 9930TIP3   OH251204   2.649   3.886  17.355 -0.0122 -0.1021 -0.3587
 9930TIP3    H151205   2.554   3.884  17.365 -0.0112  0.7906 -0.0443
 9930TIP3    H251206   2.670   3.808  17.304 -1.0920  0.5587 -1.8961
 9931TIP3   OH251207   5.570   5.847   4.071 -0.5853  0.1553 -0.1944
 9931TIP3    H151208   5.561   5.907   3.997 -1.4570  0.0829 -0.1480
 9931TIP3    H251209   5.661   5.817   4.066 -0.0634  1.6570 -0.0752
 9932TIP3   OH251210   1.746   6.262   5.600 -0.2164  0.7290  0.3913
 9932TIP3    H151211   1.666   6.311   5.623  0.6856  1.7128  1.5860
 9932TIP3    H251212   1.802   6.270   5.677  0.0191 -2.2198  0.6419
 9933TIP3   OH251213   5.626   3.795   2.327 -0.4104 -0.7451  0.7973
 9933TIP3    H151214   5.649   3.854   2.399  1.9847 -0.8725  0.2118
 9933TIP3    H251215   5.674   3.714   2.347  1.8526 -0.1648 -1.8497
 9934TIP3   OH251216   1.242   6.207   2.633  0.2279  0.3121  0.2675
 9934TIP3    H151217   1.260   6.238   2.722  1.7949 -0.5409  0.2723
 9934TIP3    H251218   1.150   6.181   2.635 -0.6006  2.9524  0.8269
 9935TIP3   OH251219   4.133   5.355   5.976 -0.7791 -0.0133  0.1275
 9935TIP3    H151220   4.194   5.328   6.045  1.3735  0.0575 -1.6348
 9935TIP3    H251221   4.049   5.363   6.021  0.3544 -0.6754  2.5783
 9936TIP3   OH251222   2.299   5.068  16.863  0.6955  0.4962  0.0326
 9936TIP3    H151223   2.271   5.127  16.793  1.5001  1.8403  0.7902
 9936TIP3    H251224   2.382   5.105  16.893 -0.1439  0.5976  2.4024
 9937TIP3   OH251225   5.343   2.381   2.952  0.3762 -0.0827 -0.5859
 9937TIP3    H151226   5.307   2.419   2.872 -0.6539 -0.3135 -0.2555
 9937TIP3    H251227   5.365   2.456   3.007  1.4584  0.0846 -1.2293
 9938TIP3   OH251228   1.275   4.753  13.619  0.5630 -0.1586 -0.3739
 9938TIP3    H151229   1.222   4.774  13.542  1.4825 -0.8052 -1.2088
 9938TIP3    H251230   1.312   4.836  13.646 -0.6263  0.2568  0.0522
 9939TIP3   OH251231   2.565   6.668   3.734  0.0476  0.0176  0.8930
 9939TIP3    H151232   2.644   6.631   3.694  0.0732  0.5538  0.4335
 9939TIP3    H251233   2.519   6.592   3.770 -0.1244 -0.5339 -0.4273
 9940TIP3   OH251234   2.850   0.897   5.002  0.3570 -0.9536 -0.0923
 9940TIP3    H151235   2.860   0.967   5.066  1.1988 -0.9111 -0.2626
 9940TIP3    H251236   2.765   0.914   4.960 -0.0345 -0.7788  0.7490
 9941TIP3   OH251237   0.762   0.109  13.191  0.2965  0.5000  0.0382
 9941TIP3    H151238   0.796   0.097  13.102 -1.3701  0.3903 -0.6254
 9941TIP3    H251239   0.822   0.171  13.231  0.8059  0.9397 -1.3355
 9942TIP3   OH251240   4.033   1.417  14.997  0.6244 -0.1113 -0.4082
 9942TIP3    H151241   4.009   1.385  14.910  1.5494 -2.7377  0.1941
 9942TIP3    H251242   3.956   1.401  15.051  1.1669 -1.6776 -0.0549
 9943TIP3   OH251243   3.150   6.324   1.331  0.3865 -0.1328 -0.1735
 9943TIP3    H151244   3.119   6.257   1.271  1.9857  0.7045 -2.0627
 9943TIP3    H251245   3.216   6.280   1.384  1.0742 -0.2188 -1.0689
 9944TIP3   OH251246   0.955   0.866   5.476  0.2172  0.1268  0.6097
 9944TIP3    H151247   0.975   0.954   5.446 -3.3419  0.0445 -2.8257
 9944TIP3    H251248   0.865   0.871   5.508 -0.7802 -2.4348 -1.3826
 9945TIP3   OH251249   4.813   3.340  14.776  0.4187 -0.0415 -0.0155
 9945TIP3    H151250   4.891   3.311  14.728 -0.3557 -1.5030 -0.4570
 9945TIP3    H251251   4.760   3.385  14.711  0.7518  0.7021  0.2182
 9946TIP3   OH251252   3.451   6.472   2.590 -0.1041  0.1044  0.2126
 9946TIP3    H151253   3.530   6.476   2.535 -0.2778  5.0771 -0.1936
 9946TIP3    H251254   3.383   6.437   2.532  0.7742  0.6424 -1.2066
 9947TIP3   OH251255   5.796   2.200  10.567 -0.1708  0.4436 -0.2174
 9947TIP3    H151256   5.846   2.270  10.609 -0.0084  0.0257  0.2855
 9947TIP3    H251257   5.832   2.119  10.603 -0.9802  0.1229 -0.1008
 9948TIP3   OH251258   2.930   4.136  11.239 -0.1932 -0.5706 -0.1014
 9948TIP3    H151259   3.023   4.115  11.242 -0.1089 -0.1157  1.2711
 9948TIP3    H251260   2.887   4.054  11.218  0.2080 -2.0279  3.8217
 9949TIP3   OH251261   0.117   2.755   1.346  0.2900 -0.2589 -0.5373
 9949TIP3    H151262   0.053   2.826   1.355 -0.8066 -1.1671 -0.8854
 9949TIP3    H251263   0.070   2.677   1.375  1.4243 -0.8674 -0.3026
 9950TIP3   OH251264   6.004   2.869   2.626  0.0894 -0.2360  0.5098
 9950TIP3    H151265   6.059   2.793   2.606  0.5416  0.0405  0.6791
 9950TIP3    H251266   6.025   2.933   2.559  0.1002 -0.0646  0.6756
 9951TIP3   OH251267   4.291   0.686  14.895  0.2457 -0.4875  0.8108
 9951TIP3    H151268   4.337   0.674  14.978  0.7635 -0.4290  0.5343
 9951TIP3    H251269   4.353   0.733  14.839 -0.4372  0.2840  0.6869
 9952TIP3   OH251270   6.421   1.422  16.212 -0.7449  0.1290  0.4017
 9952TIP3    H151271   6.393   1.372  16.135  0.3460 -0.4959  0.3889
 9952TIP3    H251272   6.348   1.481  16.230  0.1307  2.7049 -3.1490
 9953TIP3   OH251273   3.183   4.759   6.678  0.3440  0.0338 -0.0022
 9953TIP3    H151274   3.274   4.733   6.694 -0.4052 -1.9819  1.3549
 9953TIP3    H251275   3.169   4.832   6.738 -0.0937 -2.4346  3.2000
 9954TIP3   OH251276   4.343   3.761  15.616  0.2293 -0.0088 -0.7373
 9954TIP3    H151277   4.286   3.779  15.541  1.8524  1.2277 -1.7331
 9954TIP3    H251278   4.431   3.775  15.583  0.9981  0.6962  1.4357
 9955TIP3   OH251279   1.982   6.345  15.652  0.2708  0.6999  0.7739
 9955TIP3    H151280   2.031   6.416  15.610 -0.1460  0.6094  0.1250
 9955TIP3    H251281   2.035   6.321  15.728  0.7129  1.3027  0.6631
 9956TIP3   OH251282   3.298   2.455  12.092  0.1775 -0.0927 -0.1165
 9956TIP3    H151283   3.289   2.360  12.096 -0.1898 -0.0538  0.0322
 9956TIP3    H251284   3.392   2.470  12.097  0.1809 -0.4007  1.1967
 9957TIP3   OH251285   0.403   0.049  12.527 -0.0499 -0.9245  0.3052
 9957TIP3    H151286   0.492   0.070  12.556 -0.2040  1.0432 -0.4901
 9957TIP3    H251287   0.415  -0.005  12.449  0.4576 -0.7179  0.2335
 9958TIP3   OH251288   5.132   3.067   0.315 -0.3505  0.2410 -0.3993
 9958TIP3    H151289   5.134   3.161   0.334 -2.1703  0.7480 -2.2905
 9958TIP3    H251290   5.108   3.026   0.398  3.8524  0.9921  1.4044
 9959TIP3   OH251291   6.538   2.233  15.043  0.8082  0.1480  0.0389
 9959TIP3    H151292   6.604   2.170  15.014 -1.1490 -1.7949 -0.4876
 9959TIP3    H251293   6.497   2.193  15.119 -1.8157 -0.2672 -1.4652
 9960TIP3   OH251294   1.736   2.516   5.603 -0.4849 -0.4067 -0.8297
 9960TIP3    H151295   1.672   2.568   5.651 -0.1641  0.2203 -1.0709
 9960TIP3    H251296   1.714   2.426   5.624 -2.2435 -0.2707 -1.8896
 9961TIP3   OH251297   3.002   3.809   3.032 -0.5432 -0.2647  0.8565
 9961TIP3    H151298   2.947   3.881   3.001  0.2395 -0.0063  0.0354
 9961TIP3    H251299   3.085   3.851   3.056  0.0902 -0.9486 -0.0972
 9962TIP3   OH251300   3.877   2.703  11.412  0.0607  0.4650  0.1277
 9962TIP3    H151301   3.907   2.742  11.494  0.9433 -2.1449  1.1593
 9962TIP3    H251302   3.908   2.612  11.416 -1.6010 -0.3030 -2.2156
 9963TIP3   OH251303   3.760   5.172   2.996  0.0980  0.1431  0.5585
 9963TIP3    H151304   3.727   5.089   2.961 -1.1092  0.6481  0.4439
 9963TIP3    H251305   3.852   5.175   2.969 -0.0927 -0.7384 -0.2232
 9964TIP3   OH251306   2.165   2.188  16.468  0.8031  0.2635 -0.2070
 9964TIP3    H151307   2.173   2.138  16.387  1.7210 -1.0675  0.6712
 9964TIP3    H251308   2.080   2.231  16.462  0.7198 -0.0722 -1.7253
 9965TIP3   OH251309   6.037   1.524   2.445 -0.2290 -0.2251  0.2113
 9965TIP3    H151310   5.996   1.469   2.378  1.1678 -0.0849 -0.7890
 9965TIP3    H251311   5.988   1.606   2.443 -1.1359 -0.7433  0.4180
 9966TIP3   OH251312   2.050   5.481  12.661  0.0718 -0.0495 -0.4794
 9966TIP3    H151313   1.970   5.464  12.710 -0.2416  0.5464 -0.7670
 9966TIP3    H251314   2.110   5.522  12.723  0.1460 -0.4738 -0.2700
 9967TIP3   OH251315   4.548   4.209   6.338 -0.4158 -0.6252  0.3481
 9967TIP3    H151316   4.515   4.199   6.427  0.5613 -1.1114  0.6626
 9967TIP3    H251317   4.636   4.244   6.348 -0.6259  0.2015 -0.4690
 9968TIP3   OH251318   1.790   6.195  17.215 -0.0129  0.0530  0.1054
 9968TIP3    H151319   1.795   6.286  17.244 -0.0972  0.3745 -0.8682
 9968TIP3    H251320   1.712   6.160  17.257 -0.1960  0.5444  0.1754
 9969TIP3   OH251321   2.332   5.782  13.417  0.7934 -0.7052  0.0931
 9969TIP3    H151322   2.360   5.809  13.504  0.2239 -2.0279  0.7181
 9969TIP3    H251323   2.249   5.829  13.403  0.2342 -1.4403  0.8191
 9970TIP3   OH251324   1.564   3.866  15.491  0.3417  0.8014 -0.0782
 9970TIP3    H151325   1.606   3.782  15.506 -2.1828 -0.4822  0.4674
 9970TIP3    H251326   1.594   3.894  15.404  0.3716 -1.2653 -0.7690
 9971TIP3   OH251327   6.750   1.787  14.842 -0.3187 -0.9597 -0.3123
 9971TIP3    H151328   6.757   1.693  14.857 -0.2860 -0.5902  2.6206
 9971TIP3    H251329   6.830   1.823  14.881 -0.9534  0.3791 -0.1796
 9972TIP3   OH251330   5.337   3.919   5.858  0.1012 -0.1677  0.2884
 9972TIP3    H151331   5.288   3.976   5.917  0.4962 -0.0706  0.5308
 9972TIP3    H251332   5.309   3.831   5.882  1.6934 -0.2771  2.0199
 9973TIP3   OH251333   1.783   2.797  15.596 -0.2713  0.0592  0.0687
 9973TIP3    H151334   1.748   2.735  15.660 -1.2064  0.2539 -0.2373
 9973TIP3    H251335   1.822   2.866  15.650 -0.9082  0.1440  0.4420
 9974TIP3   OH251336   4.349   1.808  11.251 -0.0061  0.2782  0.2003
 9974TIP3    H151337   4.436   1.773  11.273  0.3277 -0.6056 -2.2284
 9974TIP3    H251338   4.365   1.897  11.223  0.0639  0.2335  0.0987
 9975TIP3   OH251339   1.743   6.737   5.009 -0.2562  0.9463  0.1937
 9975TIP3    H151340   1.747   6.755   4.914  0.0010  0.7718  0.1717
 9975TIP3    H251341   1.790   6.655   5.020  0.0778  1.1776  0.5287
 9976TIP3   OH251342   5.267   4.831  12.077 -0.3413 -0.3871  0.4822
 9976TIP3    H151343   5.287   4.738  12.086 -0.6269 -0.6923 -1.5329
 9976TIP3    H251344   5.293   4.870  12.161 -0.9252 -2.3805  1.6399
 9977TIP3   OH251345   4.434   6.097   3.951 -0.2285  0.4133 -0.2895
 9977TIP3    H151346   4.381   6.071   4.026 -0.5993  2.6697  0.3033
 9977TIP3    H251347   4.510   6.140   3.990  0.6767 -0.3157 -1.1957
 9978TIP3   OH251348   0.585   4.400  11.019 -0.2386 -0.0181  0.1790
 9978TIP3    H151349   0.540   4.472  11.063 -0.2655  0.1624 -0.1505
 9978TIP3    H251350   0.558   4.405  10.928  0.2233 -0.0823  0.0323
 9979TIP3   OH251351   2.139   5.696   5.992 -0.1165 -0.1521  0.1612
 9979TIP3    H151352   2.195   5.626   6.026  2.3890  1.0902 -1.1305
 9979TIP3    H251353   2.128   5.756   6.066 -1.0174 -1.1386  0.8450
 9980TIP3   OH251354   6.493   0.776  11.431  0.2637 -0.5007 -0.4015
 9980TIP3    H151355   6.485   0.858  11.382 -1.8359 -0.2209  0.2624
 9980TIP3    H251356   6.472   0.801  11.522 -1.7793 -1.9323 -0.4072
 9981TIP3   OH251357   5.139   1.842  14.917 -0.2433 -0.1193  0.0980
 9981TIP3    H151358   5.228   1.871  14.897  0.7819 -2.7607  0.4560
 9981TIP3    H251359   5.084   1.889  14.854  1.5255  0.6788 -0.9396
 9982TIP3   OH251360   2.235   4.548   3.776  0.7363 -0.6426  0.1393
 9982TIP3    H151361   2.178   4.619   3.804  0.4061 -0.3171 -1.2478
 9982TIP3    H251362   2.324   4.582   3.789  0.6055  0.7983 -2.1183
 9983TIP3   OH251363   0.730   6.684  15.080 -0.0158 -0.4770  1.1741
 9983TIP3    H151364   0.727   6.681  14.984  2.8331 -1.1027  1.0164
 9983TIP3    H251365   0.708   6.774  15.102 -0.7799 -0.3419 -0.0495
 9984TIP3   OH251366   1.100   0.816  14.186 -0.1951 -0.2940 -0.4760
 9984TIP3    H151367   1.066   0.752  14.123 -0.4414  0.0630 -0.7113
 9984TIP3    H251368   1.194   0.800  14.188  0.2252  1.3029 -2.8108
 9985TIP3   OH251369   3.590   4.949  16.345  0.2476 -0.3813 -0.1023
 9985TIP3    H151370   3.604   4.867  16.390  1.4149 -0.3107 -0.3150
 9985TIP3    H251371   3.524   4.929  16.278  0.3456 -1.0787  0.0070
 9986TIP3   OH251372   6.118   0.034  16.311 -0.0640 -0.1567 -0.3260
 9986TIP3    H151373   6.054   0.013  16.243 -0.8030 -3.5296  1.1909
 9986TIP3    H251374   6.075   0.101  16.364 -0.9593 -0.0437 -1.1555
 9987TIP3   OH251375   0.527   2.784  14.807 -0.1314  0.0899 -0.0937
 9987TIP3    H151376   0.579   2.828  14.875 -1.3996  0.0043  0.9867
 9987TIP3    H251377   0.484   2.712  14.854  0.7284 -1.4026 -1.5042
 9988TIP3   OH251378   2.330   1.654   5.064 -0.3288 -0.7319 -0.4969
 9988TIP3    H151379   2.247   1.678   5.105  1.4523 -0.9141  3.6253
 9988TIP3    H251380   2.323   1.560   5.047 -0.3353 -1.1672  1.7033
 9989TIP3   OH251381   6.349   5.083  15.691  0.4358  0.6919  0.1220
 9989TIP3    H151382   6.303   5.000  15.699  1.4101  0.2154  1.0019
 9989TIP3    H251383   6.309   5.139  15.758 -0.4181  1.0533 -0.6624
 9990TIP3   OH251384   1.234   3.581  16.752  0.3341  0.4574  0.2642
 9990TIP3    H151385   1.301   3.638  16.789  1.2042 -1.1538  1.2342
 9990TIP3    H251386   1.281   3.524  16.692 -0.3019 -0.1468  0.3232
 9991TIP3   OH251387   0.383   0.717   1.412  0.4213 -0.2083 -0.1460
 9991TIP3    H151388   0.473   0.696   1.385  0.3565 -0.0129 -0.5286
 9991TIP3    H251389   0.370   0.808   1.383  0.6077  0.2882  1.2457
 9992TIP3   OH251390   6.240   1.790   2.597  0.2944 -0.6027  0.0666
 9992TIP3    H151391   6.150   1.800   2.627  1.2119  0.4146  2.7521
 9992TIP3    H251392   6.250   1.858   2.530 -0.2835  0.9945  1.5192
 9993TIP3   OH251393   0.565   0.139   2.540 -0.3784 -0.4900 -0.1991
 9993TIP3    H151394   0.615   0.206   2.587 -1.3294 -0.0165  0.1763
 9993TIP3    H251395   0.628   0.099   2.481  0.3608  0.3147  0.0187
 9994TIP3   OH251396   2.758   3.947   2.417  0.3985 -0.1845  0.0397
 9994TIP3    H151397   2.720   3.906   2.340  0.3020 -0.1713  0.0792
 9994TIP3    H251398   2.690   3.939   2.484 -0.3663  1.5996 -0.4395
 9995TIP3   OH251399   2.559   6.422   1.237 -0.4582  0.0131 -0.3154
 9995TIP3    H151400   2.604   6.442   1.155  0.6793 -0.3784  0.1987
 9995TIP3    H251401   2.498   6.495   1.250  0.0407  0.5630 -1.0086
 9996TIP3   OH251402   3.609   5.665  15.229  0.3137 -0.4125  0.2022
 9996TIP3    H151403   3.634   5.756  15.245 -0.1487 -0.2885  0.2285
 9996TIP3    H251404   3.514   5.667  15.221  0.1520 -1.1024  1.6303
 9997TIP3   OH251405   2.150   3.887  15.015 -0.8491  0.3078  0.0484
 9997TIP3    H151406   2.129   3.826  14.944 -0.5052 -0.7643  0.8475
 9997TIP3    H251407   2.235   3.923  14.992 -0.1189 -1.0439  0.5583
 9998TIP3   OH251408   1.815   2.767   6.101  0.0468 -0.4713  0.2657
 9998TIP3    H151409   1.766   2.786   6.181 -0.7282 -2.9065  0.4447
 9998TIP3    H251410   1.801   2.844   6.045 -1.5899  0.1190  1.4274
 9999TIP3   OH251411   3.915   5.105  10.976 -0.5504  0.1918 -0.9615
 9999TIP3    H151412   3.933   5.126  11.067 -0.6675 -0.0340 -0.8850
 9999TIP3    H251413   3.829   5.141  10.959 -0.8762 -0.4690 -0.7466
10000TIP3   OH251414   0.666   3.973   3.175  0.0437 -0.2533  0.3094
10000TIP3    H151415   0.624   3.990   3.260  0.4949  0.6532  0.3659
10000TIP3    H251416   0.749   4.022   3.180 -0.8907  1.6484 -1.4721
10001TIP3   OH251417   6.375   1.947  11.082  0.4287 -0.6247  0.1557
10001TIP3    H151418   6.443   2.014  11.086  0.5029 -0.4994 -1.9780
10001TIP3    H251419   6.404   1.887  11.013 -2.3054  0.3877 -2.1057
10002TIP3   OH251420   2.779   1.100   5.358  0.5371 -0.0693 -0.4138
10002TIP3    H151421   2.767   1.084   5.264  1.4036 -3.0084 -0.1177
10002TIP3    H251422   2.867   1.137   5.365  0.6793 -0.3478 -0.7137
10003TIP3   OH251423   1.893   6.690   3.701  0.0083  0.1459 -0.4137
10003TIP3    H151424   1.931   6.716   3.617  0.8123  3.2899  0.7967
10003TIP3    H251425   1.943   6.612   3.727  0.9421  0.1678 -1.9920
10004TIP3   OH251426   1.844   3.320   1.742  0.1340 -0.6717 -0.1072
10004TIP3    H151427   1.881   3.337   1.655 -0.6960 -0.7041 -0.4680
10004TIP3    H251428   1.760   3.278   1.726 -0.9775  1.1317  0.6639
10005TIP3   OH251429   5.743   4.549  11.319  0.4803  0.4892  0.0215
10005TIP3    H151430   5.698   4.581  11.240  0.8982 -0.5773 -0.6599
10005TIP3    H251431   5.835   4.573  11.305  0.6002  0.0493  0.0560
10006TIP3   OH251432   1.734   2.509   1.487 -0.0212 -0.5749  0.9567
10006TIP3    H151433   1.743   2.603   1.503 -0.6777 -0.0011 -1.5652
10006TIP3    H251434   1.812   2.487   1.436 -0.2662 -1.2218  0.8593
10007TIP3   OH251435   6.038   4.472  14.125 -0.3920  0.4666  0.6271
10007TIP3    H151436   6.058   4.402  14.062 -0.2860  0.4557  0.6718
10007TIP3    H251437   5.943   4.478  14.125 -0.8029 -2.5416  3.6642
10008TIP3   OH251438   3.900   2.056   5.078  0.2021  0.2802  0.0842
10008TIP3    H151439   3.964   2.096   5.138  0.4999 -1.0709  0.6926
10008TIP3    H251440   3.877   1.973   5.119 -0.6750 -0.0198 -0.9796
10009TIP3   OH251441   4.771   3.002   2.372  0.6201 -0.0380  0.0666
10009TIP3    H151442   4.729   3.084   2.346  0.3938  0.2993  1.4554
10009TIP3    H251443   4.817   2.973   2.293 -1.9074 -0.2658 -1.4221
10010TIP3   OH251444   2.199   3.064   1.507  0.5514  0.5117  0.9329
10010TIP3    H151445   2.157   3.002   1.566  0.9006  0.9828  1.7058
10010TIP3    H251446   2.204   3.145   1.558 -0.4143  1.3477 -0.2469
10011TIP3   OH251447   6.163   6.200  13.750  0.4618 -0.3183  0.8876
10011TIP3    H151448   6.164   6.111  13.714  1.2083  0.5364 -1.3925
10011TIP3    H251449   6.073   6.229  13.740  0.8492  0.2728 -1.4448
10012TIP3   OH251450   4.511   2.288  14.866  0.0073 -0.2527  0.4091
10012TIP3    H151451   4.536   2.331  14.948 -0.2054 -0.5182  0.6151
10012TIP3    H251452   4.430   2.241  14.887 -0.2635 -0.0110 -0.0551
10013TIP3   OH251453   2.273   6.184  13.005  0.3277  0.3143  0.1993
10013TIP3    H151454   2.291   6.278  13.009 -0.6174  0.4657  1.5280
10013TIP3    H251455   2.331   6.145  13.070 -0.2306  0.1529  0.6097
10014TIP3   OH251456   6.423   4.411  16.686  0.7567  0.3402  0.0578
10014TIP3    H151457   6.449   4.320  16.701 -1.0765 -0.3615 -0.6000
10014TIP3    H251458   6.336   4.404  16.645 -0.4056  2.4190  1.9471
10015TIP3   OH251459   4.935   0.231  16.910 -0.2168  0.1990 -0.6082
10015TIP3    H151460   4.865   0.194  16.965  0.8995 -1.2025 -0.0639
10015TIP3    H251461   4.983   0.289  16.969  1.0618 -1.4063  0.0065
10016TIP3   OH251462   1.469   5.189  12.331 -0.4371  0.7412  0.1092
10016TIP3    H151463   1.500   5.269  12.374  1.3599  0.1499  0.0032
10016TIP3    H251464   1.499   5.197  12.240 -1.1763  0.4134 -0.1716
10017TIP3   OH251465   4.017   1.592  15.580  0.4042 -0.5385 -0.2282
10017TIP3    H151466   4.072   1.655  15.534  0.4752  2.1167  3.1158
10017TIP3    H251467   4.029   1.613  15.673 -3.0221 -2.6406  0.8701
10018TIP3   OH251468   1.380   2.547  13.692 -0.1863 -0.2925 -0.1850
10018TIP3    H151469   1.434   2.567  13.615  0.9000  0.8876  0.8251
10018TIP3    H251470   1.305   2.606  13.684  0.3496  0.4390  0.0701
10019TIP3   OH251471   5.699   4.680   6.316 -0.1773 -0.3257 -0.0182
10019TIP3    H151472   5.778   4.642   6.277 -0.1079 -1.1245  0.8726
10019TIP3    H251473   5.698   4.770   6.284  0.4357 -0.6579 -1.0140
10020TIP3   OH251474   0.928   3.676   2.621 -0.1717 -0.0308 -0.2666
10020TIP3    H151475   0.929   3.595   2.569 -0.8516  0.8037 -1.6417
10020TIP3    H251476   0.884   3.651   2.702 -0.5144 -1.0062 -0.7264
10021TIP3   OH251477   5.774   6.473  15.762 -0.2627 -0.2120 -0.2798
10021TIP3    H151478   5.712   6.400  15.760 -3.5623  2.2768  1.5137
10021TIP3    H251479   5.830   6.455  15.838 -0.0845 -1.4536 -0.6653
10022TIP3   OH251480   6.099   4.291   1.781  0.3341  0.2104 -0.2948
10022TIP3    H151481   6.133   4.337   1.704  0.8447  0.4560  0.0680
10022TIP3    H251482   6.176   4.246   1.817  0.0107 -0.2417 -0.1684
10023TIP3   OH251483   4.459   0.776  11.424 -0.2122 -0.5171 -0.2219
10023TIP3    H151484   4.506   0.693  11.430 -0.2812 -0.6195 -1.0129
10023TIP3    H251485   4.486   0.813  11.340  0.3106  0.5736  0.4079
10024TIP3   OH251486   5.407   5.171  13.153  0.0794 -0.7309 -0.0494
10024TIP3    H151487   5.410   5.255  13.108 -2.0890 -0.9150 -0.6671
10024TIP3    H251488   5.490   5.128  13.131  1.9804  1.8325  1.6089
10025TIP3   OH251489   0.288   0.537  16.313 -0.9770  0.6143 -0.5704
10025TIP3    H151490   0.317   0.612  16.261  0.1419 -0.2403 -1.2258
10025TIP3    H251491   0.346   0.466  16.286  0.5580  0.4048  2.7288
10026TIP3   OH251492   1.515   3.090  15.312  0.6316  0.0461 -0.1544
10026TIP3    H151493   1.598   3.119  15.350  0.3241  0.9094 -0.1255
10026TIP3    H251494   1.534   3.076  15.220  1.1418 -1.1064  0.1085
10027TIP3   OH251495   4.260   1.500  15.116  0.1373 -0.1694  0.2894
10027TIP3    H151496   4.275   1.562  15.188 -0.1672  2.1623 -1.5371
10027TIP3    H251497   4.165   1.494  15.110  0.1038 -2.9502  2.0859
10028TIP3   OH251498   1.716   1.236  11.436 -0.0144 -0.0276  0.2577
10028TIP3    H151499   1.741   1.271  11.522  0.2780  1.0590 -0.2573
10028TIP3    H251500   1.792   1.185  11.408 -0.3079 -0.8136  0.8621
10029TIP3   OH251501   5.963   5.204  12.398 -0.1758 -0.1039  0.4330
10029TIP3    H151502   5.898   5.134  12.406 -0.4461  0.2191  1.0892
10029TIP3    H251503   6.027   5.185  12.465  0.7843 -0.7961 -0.6443
10030TIP3   OH251504   5.004   3.180   1.920 -0.2217 -0.1779  0.4214
10030TIP3    H151505   4.919   3.190   1.965 -0.2825  0.0190  0.2610
10030TIP3    H251506   4.984   3.125   1.844 -0.6586  1.7111 -0.8859
10031TIP3   OH251507   1.173   5.151  16.355 -0.1699 -0.3424  0.4787
10031TIP3    H151508   1.202   5.093  16.285 -0.8152  0.5924 -0.6004
10031TIP3    H251509   1.244   5.215  16.365 -0.3188 -0.1458  0.2856
10032TIP3   OH251510   2.390   3.540   0.907 -0.4435  0.1222 -0.2238
10032TIP3    H151511   2.367   3.484   0.833  2.1022 -2.0686  0.5012
10032TIP3    H251512   2.308   3.548   0.957 -1.2705 -1.6847 -1.1954
10033TIP3   OH251513   3.953   0.343  11.213  0.3626 -0.1635 -0.5576
10033TIP3    H151514   4.040   0.383  11.220 -0.5910  1.8837  0.3618
10033TIP3    H251515   3.932   0.347  11.120  1.1311 -0.4525 -0.7516
10034TIP3   OH251516   0.384   1.613   1.160  0.2142  0.2579 -0.2104
10034TIP3    H151517   0.465   1.647   1.122 -0.4658  1.9263 -0.2792
10034TIP3    H251518   0.315   1.654   1.108 -0.7420  2.1160  2.3216
10035TIP3   OH251519   5.449   4.359  17.322 -0.0467 -0.0234 -0.2420
10035TIP3    H151520   5.355   4.356  17.301  0.5138  0.8741 -3.3886
10035TIP3    H251521   5.484   4.278  17.284  0.4945 -0.3373  0.8905
10036TIP3   OH251522   6.181   5.777  13.899  0.5322  0.4118  0.5977
10036TIP3    H151523   6.189   5.696  13.849 -0.7463  1.1735 -0.9318
10036TIP3    H251524   6.121   5.756  13.971 -0.2960  0.1598 -0.1610
10037TIP3   OH251525   4.513   4.579   6.431 -0.0528  0.2104  0.1407
10037TIP3    H151526   4.589   4.530   6.461 -0.7001 -0.7369  0.2645
10037TIP3    H251527   4.522   4.665   6.473  1.7675  0.6868 -1.0932
10038TIP3   OH251528   3.136   0.660  13.572 -0.5037  0.2172 -0.5761
10038TIP3    H151529   3.117   0.661  13.665 -1.0198  0.5542 -0.6842
10038TIP3    H251530   3.210   0.720  13.562 -0.6691  0.4468 -0.4310
10039TIP3   OH251531   1.860   1.371  14.518 -0.4803  0.1215  0.0156
10039TIP3    H151532   1.837   1.432  14.448  1.9990  0.2083 -0.8396
10039TIP3    H251533   1.885   1.427  14.592 -0.8247  0.0724  0.1717
10040TIP3   OH251534   5.602   3.344   0.837 -0.2249  0.3193 -0.2240
10040TIP3    H151535   5.524   3.321   0.888 -0.5195  0.0279 -0.7963
10040TIP3    H251536   5.574   3.335   0.746  0.8068 -0.9327 -0.4409
10041TIP3   OH251537   3.594   5.709   2.255  0.3225  0.6541  0.1963
10041TIP3    H151538   3.563   5.707   2.164  2.4168  0.0949 -0.5595
10041TIP3    H251539   3.567   5.795   2.287 -1.0681  0.5926 -0.6947
10042TIP3   OH251540   2.685   4.008   4.227  0.9164 -0.1078 -0.3652
10042TIP3    H151541   2.738   3.941   4.184  1.4358 -0.2513  0.4934
10042TIP3    H251542   2.601   4.004   4.180  1.3695 -0.4534 -1.1780
10043TIP3   OH251543   0.777   4.842  13.050 -0.4967  0.3819 -0.6808
10043TIP3    H151544   0.851   4.788  13.079 -1.2828 -0.2414  0.1895
10043TIP3    H251545   0.805   4.877  12.965  1.2689  1.0812  0.1331
10044TIP3   OH251546   1.923   5.587   1.932  0.5370  0.1231  0.1544
10044TIP3    H151547   1.849   5.528   1.923  0.8255 -0.0947 -0.9255
10044TIP3    H251548   1.941   5.589   2.026 -0.7398  0.0738  0.4227
10045TIP3   OH251549   5.581   3.558  13.540  0.0732  0.6030 -0.1825
10045TIP3    H151550   5.619   3.492  13.482  0.1165 -0.6455  1.2077
10045TIP3    H251551   5.511   3.598  13.489  0.4017 -0.1420 -1.2355
10046TIP3   OH251552   4.186   1.644   4.913  0.1112  0.2963 -0.6146
10046TIP3    H151553   4.163   1.692   4.993  2.6695  2.2809 -0.9712
10046TIP3    H251554   4.109   1.589   4.897 -1.4409  1.4902  1.9224
10047TIP3   OH251555   3.957   0.180  16.253 -0.0360  0.0388 -0.2081
10047TIP3    H151556   3.880   0.125  16.237  0.0407  0.1518 -0.9900
10047TIP3    H251557   3.986   0.207  16.166  0.8312  0.0835  0.0893
10048TIP3   OH251558   5.823   5.446   2.390 -0.1965  0.3186  0.4862
10048TIP3    H151559   5.820   5.351   2.404  1.2663  0.1946  0.1130
10048TIP3    H251560   5.846   5.482   2.476  0.8396  0.1981  0.2658
10049TIP3   OH251561   3.586   1.506   4.762  0.4336  0.3589 -0.2430
10049TIP3    H151562   3.661   1.561   4.738  0.7050 -0.6093 -1.7146
10049TIP3    H251563   3.625   1.425   4.794  0.0258 -0.0198 -0.6921
10050TIP3   OH251564   0.452   2.546  12.684 -0.2383 -0.5161 -0.8214
10050TIP3    H151565   0.533   2.526  12.637 -0.3696  0.5598 -1.5546
10050TIP3    H251566   0.383   2.506  12.632 -0.4474  1.2348 -1.9764
10051TIP3   OH251567   4.815   5.292   1.724  0.0321 -0.0853 -0.3189
10051TIP3    H151568   4.827   5.328   1.636 -1.5511 -0.8528 -0.8851
10051TIP3    H251569   4.722   5.301   1.741  0.5380  1.5573  1.9962
10052TIP3   OH251570   3.867   3.282  15.997 -0.4171 -0.2847 -0.1503
10052TIP3    H151571   3.935   3.334  15.955 -1.3019  1.2021  0.1635
10052TIP3    H251572   3.858   3.204  15.942 -0.2793  0.7414 -1.6856
10053TIP3   OH251573   5.731   2.860  14.350 -0.4287  0.1209 -0.4403
10053TIP3    H151574   5.757   2.849  14.258 -0.4120 -2.0798 -0.2304
10053TIP3    H251575   5.740   2.772  14.388 -1.1187  0.8378  1.4957
10054TIP3   OH251576   3.975   2.207  16.157 -0.2299 -0.5440  0.0274
10054TIP3    H151577   4.044   2.253  16.110  0.6518 -2.5678 -0.7244
10054TIP3    H251578   3.894   2.240  16.118  0.4484 -1.5661 -2.4030
10055TIP3   OH251579   0.623   3.104   2.997 -0.0971 -0.4057 -0.2929
10055TIP3    H151580   0.600   3.145   3.080 -0.1735  0.5035 -0.7529
10055TIP3    H251581   0.565   3.028   2.991 -0.7531  0.0625  0.0391
10056TIP3   OH251582   0.030   1.309  15.137  0.0025  0.4971 -0.1353
10056TIP3    H151583   0.034   1.221  15.101  1.3300  0.6912 -0.4992
10056TIP3    H251584  -0.054   1.311  15.184  1.2112 -1.9670  2.4559
10057TIP3   OH251585   6.168   2.106   0.380  0.3769  0.5254  0.2256
10057TIP3    H151586   6.173   2.144   0.292  1.1939  2.0861  0.9142
10057TIP3    H251587   6.247   2.052   0.387  0.5249  0.7373  0.1708
10058TIP3   OH251588   6.101   3.669  11.704 -0.7546  0.1121  0.2102
10058TIP3    H151589   6.076   3.669  11.612 -0.3193  1.0030  0.0901
10058TIP3    H251590   6.171   3.733  11.711 -2.0196  1.4294  1.4932
10059TIP3   OH251591   1.635   4.480   1.187  0.0320  0.3700 -0.1648
10059TIP3    H151592   1.567   4.520   1.133 -3.0058 -2.7271  0.9378
10059TIP3    H251593   1.595   4.474   1.274  1.6773 -1.6649  0.5331
10060TIP3   OH251594   0.304   5.241   4.661 -0.7896  0.2995 -0.1147
10060TIP3    H151595   0.302   5.310   4.727 -1.5965  1.3092 -1.1550
10060TIP3    H251596   0.373   5.181   4.690  1.4267  2.6349 -0.2333
10061TIP3   OH251597   4.773   6.560  17.041  0.3781  0.6953  0.4231
10061TIP3    H151598   4.727   6.477  17.053  0.5279  0.7918  1.7978
10061TIP3    H251599   4.863   6.542  17.067  0.6390  1.0399 -0.2374
10062TIP3   OH251600   6.368   5.735  15.264 -0.3938  0.4505  1.0186
10062TIP3    H151601   6.386   5.824  15.234  0.3444  1.0878  3.1625
10062TIP3    H251602   6.453   5.702  15.295 -0.9357 -0.4377  1.6327
10063TIP3   OH251603   1.368   4.896   3.929 -0.0337 -0.1742 -0.3228
10063TIP3    H151604   1.375   4.921   4.021  0.3198 -0.5941 -0.2291
10063TIP3    H251605   1.353   4.801   3.931 -1.9782  0.0916 -0.6530
10064TIP3   OH251606   6.419   0.420   2.589  0.4517 -0.4104 -0.4004
10064TIP3    H151607   6.472   0.476   2.532  0.0476  0.0932 -0.2961
10064TIP3    H251608   6.455   0.435   2.676 -1.3673  1.8678  0.0772
10065TIP3   OH251609   0.688   4.718   1.193  0.5664 -0.7033 -0.0046
10065TIP3    H151610   0.618   4.709   1.258  1.1859 -1.1972  0.6099
10065TIP3    H251611   0.645   4.697   1.109  0.3764 -2.9531  0.5699
10066TIP3   OH251612   2.622   2.233   5.534  0.2360  0.1174  0.2658
10066TIP3    H151613   2.661   2.173   5.470  1.8809  1.5833 -0.1997
10066TIP3    H251614   2.696   2.286   5.565 -1.1960  2.3615  0.0959
10067TIP3   OH251615   4.621   1.324  14.485 -0.2595 -0.4635 -0.3822
10067TIP3    H151616   4.689   1.268  14.524  1.2038  0.8393 -0.9165
10067TIP3    H251617   4.553   1.264  14.456  0.6469 -1.8360  0.2474
10068TIP3   OH251618   3.332   4.875  10.526 -0.6177  0.2690  0.4130
10068TIP3    H151619   3.356   4.938  10.595  0.3878 -0.4438  0.7335
10068TIP3    H251620   3.352   4.790  10.564 -2.0698 -0.2694  0.0190
10069TIP3   OH251621   1.251   5.109   4.647 -0.1339 -0.2894  0.2256
10069TIP3    H151622   1.245   5.078   4.557 -0.3348  1.0578 -0.2384
10069TIP3    H251623   1.298   5.040   4.693 -0.0112 -0.9836 -0.9121
10070TIP3   OH251624   5.573   1.560  10.990 -0.0720 -0.3940 -0.4124
10070TIP3    H151625   5.533   1.611  11.060 -0.2486 -1.0722 -0.0143
10070TIP3    H251626   5.612   1.484  11.034  0.2871 -0.5503 -0.9829
10071TIP3   OH251627   2.097   0.347  14.619  0.3051  0.2819  0.0745
10071TIP3    H151628   2.003   0.366  14.616  0.1203 -0.6800 -1.7144
10071TIP3    H251629   2.114   0.326  14.711 -1.3192  0.0774  0.3600
10072TIP3   OH251630   4.985   3.191  12.210  0.5407 -0.0064  0.1206
10072TIP3    H151631   4.999   3.231  12.296  0.0094 -0.7051  0.5378
10072TIP3    H251632   4.992   3.097  12.225  0.6244 -0.1298 -0.6385
10073TIP3   OH251633   5.520   2.391  13.684 -0.1250 -0.0829 -0.0566
10073TIP3    H151634   5.542   2.462  13.624 -0.8163 -0.6642 -1.0487
10073TIP3    H251635   5.578   2.403  13.759  1.5016  0.1067 -1.2710
10074TIP3   OH251636   4.865   4.964  15.619  0.9799  0.1836 -0.1447
10074TIP3    H151637   4.868   4.924  15.706  0.7252  0.6942  0.1009
10074TIP3    H251638   4.914   4.903  15.563 -0.2293 -0.9653  0.0126
10075TIP3   OH251639   0.138   2.519   3.657  0.1217 -0.4292 -0.2553
10075TIP3    H151640   0.047   2.530   3.683  0.4045 -0.2214  0.7102
10075TIP3    H251641   0.135   2.471   3.575 -0.9359  1.2973 -1.2938
10076TIP3   OH251642   3.537   4.738   4.194  0.0636 -0.8506 -0.3063
10076TIP3    H151643   3.523   4.832   4.184 -2.1682 -0.9135  1.3917
10076TIP3    H251644   3.596   4.730   4.270  0.7095 -0.8403 -0.7953
10077TIP3   OH251645   0.709   1.797  14.269 -0.1375  0.0681  0.3072
10077TIP3    H151646   0.669   1.864  14.325  1.2468  2.0713 -0.9781
10077TIP3    H251647   0.644   1.781  14.201 -0.1087  0.8295  0.0901
10078TIP3   OH251648   6.349   3.433   0.696  0.6142  0.1300  0.4079
10078TIP3    H151649   6.416   3.401   0.756 -0.2353  0.8559  1.7745
10078TIP3    H251650   6.355   3.374   0.621  1.9163 -0.6002  1.0423
10079TIP3   OH251651   5.635   0.661   2.717 -0.0457 -0.0319 -0.7704
10079TIP3    H151652   5.698   0.726   2.685 -0.5130  0.3366 -0.9581
10079TIP3    H251653   5.688   0.583   2.733  0.5150  0.3741 -0.5949
10080TIP3   OH251654   2.236   5.191   0.098 -0.1085 -0.5405 -0.4780
10080TIP3    H151655   2.328   5.165   0.102  0.0527 -0.1378 -1.2569
10080TIP3    H251656   2.188   5.108   0.102  0.0577 -0.6547  3.6364
10081TIP3   OH251657   3.163   3.465  15.403  0.4531 -0.1095 -0.5396
10081TIP3    H151658   3.230   3.408  15.367  0.0416  0.7450 -2.7994
10081TIP3    H251659   3.211   3.524  15.462  1.2429 -1.1283 -0.1297
10082TIP3   OH251660   5.540   5.715  13.688  0.1075 -0.1676  0.1880
10082TIP3    H151661   5.489   5.730  13.768  0.2083 -0.2187  0.2630
10082TIP3    H251662   5.484   5.746  13.617  0.6001  1.2370  0.3807
10083TIP3   OH251663   0.211   0.190  11.857  0.8415  0.3360  1.0946
10083TIP3    H151664   0.253   0.104  11.848  1.0333  0.5150  0.2422
10083TIP3    H251665   0.281   0.248  11.887  0.4890  0.0047  2.6472
10084TIP3   OH251666   0.389   1.780   5.327  0.1051  0.0787  0.7585
10084TIP3    H151667   0.477   1.759   5.296  0.3649 -0.2835  1.6961
10084TIP3    H251668   0.402   1.811   5.416 -0.6637  0.6360  0.6814
10085TIP3   OH251669   2.497   0.548   1.052 -0.3143 -0.2276  0.1700
10085TIP3    H151670   2.460   0.489   0.987  0.1767 -0.8487  0.4392
10085TIP3    H251671   2.468   0.635   1.025 -1.1447 -0.5986 -0.1686
10086TIP3   OH251672   6.018   2.530  12.797 -0.0026 -0.3983 -0.7886
10086TIP3    H151673   5.923   2.519  12.796 -0.1633  0.2501  1.4341
10086TIP3    H251674   6.051   2.452  12.842  0.3481  0.0540 -0.2341
10087TIP3   OH251675   3.586   4.650  13.309 -0.2422  0.0747 -0.2194
10087TIP3    H151676   3.672   4.620  13.338 -0.6694  0.1991  1.2366
10087TIP3    H251677   3.595   4.745  13.301 -0.1820  0.0621 -0.3021
10088TIP3   OH251678   3.752   1.212  11.554  0.3993  0.3348 -0.1205
10088TIP3    H151679   3.781   1.250  11.472  0.7298 -0.3637 -0.3374
10088TIP3    H251680   3.780   1.274  11.621  0.2250  0.8525 -0.5195
10089TIP3   OH251681   1.762   2.240   5.677  0.0016  0.5747  0.3134
10089TIP3    H151682   1.830   2.174   5.689 -0.5594  0.0311  0.6085
10089TIP3    H251683   1.688   2.191   5.639 -0.0580  1.2476 -0.4472
10090TIP3   OH251684   5.491   3.110  13.114  0.2471 -0.3002  0.4515
10090TIP3    H151685   5.499   3.016  13.132 -1.0458 -0.5324 -0.0370
10090TIP3    H251686   5.580   3.144  13.124  0.6564 -1.4858  1.1107
10091TIP3   OH251687   4.299   1.624  12.573  0.2179 -0.1088  0.6400
10091TIP3    H151688   4.242   1.644  12.647  0.8387 -0.2555  1.1635
10091TIP3    H251689   4.376   1.679  12.586 -0.0038  0.4380 -0.3229
10092TIP3   OH251690   2.236   4.841   6.090  0.4768 -0.1879 -0.1661
10092TIP3    H151691   2.207   4.921   6.046 -0.1226 -0.8687 -1.0366
10092TIP3    H251692   2.331   4.848   6.092  0.3917  1.6628  1.9345
10093TIP3   OH251693   4.559   0.251   3.730  0.5688 -0.2881 -0.2783
10093TIP3    H151694   4.618   0.262   3.805  0.4625  0.5530 -0.3127
10093TIP3    H251695   4.495   0.186   3.759  0.2885  0.3329  0.5093
10094TIP3   OH251696   3.004   2.705   4.180 -0.1341  0.5057  0.2390
10094TIP3    H151697   3.061   2.693   4.104  0.5968  1.8299  0.5488
10094TIP3    H251698   2.942   2.632   4.175 -0.5482  0.9057 -2.0101
10095TIP3   OH251699   5.303   5.037  16.349  0.0897 -1.0003  0.1525
10095TIP3    H151700   5.314   4.942  16.339  0.7677 -1.0391  1.0761
10095TIP3    H251701   5.226   5.046  16.405 -0.5835 -0.9602 -0.7607
10096TIP3   OH251702   3.532   3.456  16.176 -0.0787 -0.2282  0.1457
10096TIP3    H151703   3.513   3.546  16.152  0.4940 -0.5801 -1.8160
10096TIP3    H251704   3.624   3.457  16.202  0.2956 -0.4507 -1.1259
10097TIP3   OH251705   4.631   4.689  15.447  0.2604  0.0068  0.6529
10097TIP3    H151706   4.568   4.618  15.437  1.0404 -0.6390  0.2379
10097TIP3    H251707   4.627   4.712  15.540 -0.2386 -0.3463  0.7223
10098TIP3   OH251708   4.948   6.352   1.770  0.1720  0.0432  0.4956
10098TIP3    H151709   5.023   6.407   1.747  0.7256 -1.4126 -1.4524
10098TIP3    H251710   4.901   6.340   1.688  1.1236 -3.8169  0.2929
10099TIP3   OH251711   1.328   2.170   3.790  0.1191 -0.1678 -0.1690
10099TIP3    H151712   1.348   2.086   3.748  0.7231 -0.7289  1.1932
10099TIP3    H251713   1.325   2.150   3.883  1.1004  1.4918  0.2488
10100TIP3   OH251714   2.856   0.289   0.166  0.1527  0.2202  0.0276
10100TIP3    H151715   2.859   0.367   0.221  1.3960  0.8939 -0.9492
10100TIP3    H251716   2.809   0.316   0.087  0.5834 -0.0097 -0.3115
10101TIP3   OH251717   4.214   1.148   3.675  0.1684 -0.5343 -0.5989
10101TIP3    H151718   4.259   1.145   3.759  0.9870 -2.1169 -1.0543
10101TIP3    H251719   4.129   1.186   3.695  0.2851 -1.0270  0.9759
10102TIP3   OH251720   3.707   6.446  14.545 -0.3225 -0.2904 -0.7785
10102TIP3    H151721   3.754   6.374  14.503 -2.2621 -3.2699  1.6780
10102TIP3    H251722   3.615   6.419  14.540 -1.2438  2.5435 -0.5106
10103TIP3   OH251723   5.737   6.157  15.068 -0.7547  0.5279  0.4778
10103TIP3    H151724   5.661   6.179  15.013  0.3921 -2.4122 -2.6786
10103TIP3    H251725   5.812   6.194  15.022  0.1438 -0.9109  0.7124
10104TIP3   OH251726   2.021   0.770   0.208  0.3015 -0.2752 -0.1703
10104TIP3    H151727   2.038   0.677   0.194 -2.1682 -0.6184 -1.3803
10104TIP3    H251728   2.069   0.814   0.138  1.9237 -0.5306  0.7214
10105TIP3   OH251729   0.412   3.767  15.327 -0.0516 -0.0086  0.4640
10105TIP3    H151730   0.402   3.744  15.420 -0.3166 -0.9796  0.2142
10105TIP3    H251731   0.443   3.686  15.286 -0.9393  0.1093 -0.4681
10106TIP3   OH251732   2.765   4.270   2.425  0.4083 -0.0909  0.3379
10106TIP3    H151733   2.684   4.293   2.471  0.0415  1.5973 -1.0656
10106TIP3    H251734   2.764   4.174   2.423 -0.9820 -0.1382  1.3272
10107TIP3   OH251735   3.438   1.830   0.815 -0.1395 -0.4497  0.0003
10107TIP3    H151736   3.382   1.891   0.862 -2.6444  1.5625 -4.8594
10107TIP3    H251737   3.379   1.762   0.782  1.6914 -2.5379  0.7392
10108TIP3   OH251738   0.276   1.865   2.474  0.5762 -0.5191 -0.4182
10108TIP3    H151739   0.339   1.857   2.546  0.4959 -0.6089 -0.3584
10108TIP3    H251740   0.326   1.904   2.403  0.3449  0.7023  0.0795
10109TIP3   OH251741   2.297   3.058   4.581  0.1459  0.0835  0.4081
10109TIP3    H151742   2.326   3.145   4.609 -0.3089  1.3856 -2.7896
10109TIP3    H251743   2.365   3.029   4.520 -1.6904  0.1138 -1.7698
10110TIP3   OH251744   4.536   1.144   4.864 -0.0429  0.4479 -0.3844
10110TIP3    H151745   4.542   1.214   4.799  0.8704  0.5671 -0.1870
10110TIP3    H251746   4.617   1.152   4.914 -0.3067 -0.2455  0.1562
10111TIP3   OH251747   5.658   5.801   2.383  0.1407  0.0356 -0.6444
10111TIP3    H151748   5.740   5.784   2.430 -0.9364 -1.0012  0.9784
10111TIP3    H251749   5.669   5.888   2.345  1.3839  0.6050  0.9373
10112TIP3   OH251750   0.920   4.729  15.731 -0.7908  0.9964  0.4731
10112TIP3    H151751   0.925   4.789  15.656  0.1067 -0.3177 -0.5644
10112TIP3    H251752   0.840   4.679  15.716  0.3027 -0.5132 -0.6431
10113TIP3   OH251753   6.597   4.578  14.580 -0.1967  0.9763 -0.3531
10113TIP3    H151754   6.556   4.553  14.497  0.8707  0.1977 -0.6621
10113TIP3    H251755   6.524   4.589  14.641 -0.9300  0.7269 -1.1784
10114TIP3   OH251756   0.188   0.922   5.800 -0.0485  0.5499  0.2545
10114TIP3    H151757   0.156   0.848   5.852 -1.0862  0.3120 -0.6772
10114TIP3    H251758   0.248   0.883   5.737 -0.6050  0.4778 -0.2448
10115TIP3   OH251759   3.896   3.411   0.612 -0.2122 -0.2531  0.4880
10115TIP3    H151760   3.926   3.453   0.693  1.7397  0.2027 -0.4205
10115TIP3    H251761   3.915   3.475   0.544 -2.4098 -0.3713 -0.3211
10116TIP3   OH251762   4.070   4.652   4.793  0.1186 -0.3696  0.4293
10116TIP3    H151763   4.090   4.568   4.752 -0.4924  1.2654 -3.6680
10116TIP3    H251764   4.000   4.689   4.739 -0.5302  2.2511  2.8552
10117TIP3   OH251765   5.922   1.907  13.134 -0.0926  0.3756  0.2188
10117TIP3    H151766   5.865   1.969  13.180  0.8115  1.2789  0.1549
10117TIP3    H251767   5.908   1.824  13.179 -0.0900  0.9874  1.3876
10118TIP3   OH251768   5.061   6.719   1.182  0.4616 -0.8729 -0.0340
10118TIP3    H151769   5.033   6.740   1.271  1.3433 -0.1558  0.0832
10118TIP3    H251770   4.991   6.754   1.126  0.5040 -0.2164  0.3158
10119TIP3   OH251771   4.774   0.524   3.899 -0.1403 -0.1210 -0.6499
10119TIP3    H151772   4.772   0.435   3.935  0.3205  0.1278  0.0144
10119TIP3    H251773   4.705   0.570   3.945 -1.8664 -0.6716 -2.5327
10120TIP3   OH251774   0.318   2.268   1.849  1.4294 -0.1262  0.3089
10120TIP3    H151775   0.283   2.255   1.937  0.3758  2.2503  0.3297
10120TIP3    H251776   0.248   2.240   1.790  1.4059  0.0105  0.2702
10121TIP3   OH251777   1.700   3.762  14.002 -0.3334  0.3717 -0.6198
10121TIP3    H151778   1.685   3.842  13.951  0.9048 -0.3836 -2.2522
10121TIP3    H251779   1.651   3.695  13.957 -1.1397  0.1221  0.5874
10122TIP3   OH251780   3.859   0.269   0.400 -0.7910 -0.0144  0.7033
10122TIP3    H151781   3.873   0.216   0.479 -2.1139 -0.4124  0.6911
10122TIP3    H251782   3.946   0.275   0.360 -0.2785 -0.6159  1.6861
10123TIP3   OH251783   4.668   1.869   1.411  0.4633  0.2363 -0.1948
10123TIP3    H151784   4.634   1.958   1.416 -1.4614 -0.4503 -0.2487
10123TIP3    H251785   4.696   1.858   1.320 -1.3999  0.0882 -0.7796
10124TIP3   OH251786   5.508   0.010  11.431 -0.1625 -0.1708  0.3359
10124TIP3    H151787   5.575   0.032  11.366  0.4087 -0.0023  0.9755
10124TIP3    H251788   5.449   0.085  11.432  0.9370  0.7191  1.4237
10125TIP3   OH251789   4.084   4.499  14.579  0.0842 -0.1172  0.5811
10125TIP3    H151790   4.178   4.518  14.575 -0.1360  0.8823  0.0804
10125TIP3    H251791   4.076   4.411  14.541  0.7102  0.1641 -0.2228
10126TIP3   OH251792   0.528   5.614   5.626  0.0857  0.3472  0.1641
10126TIP3    H151793   0.561   5.699   5.656 -0.7720  0.7894 -0.0907
10126TIP3    H251794   0.494   5.573   5.705  1.6344 -0.3241  0.5190
10127TIP3   OH251795   1.353   1.762   5.483  0.0720  0.0086  0.0332
10127TIP3    H151796   1.336   1.752   5.577 -1.4640  0.3809 -0.1699
10127TIP3    H251797   1.341   1.674   5.447  1.0634 -0.2164  0.2241
10128TIP3   OH251798   6.026   4.924   0.344 -0.0578 -0.3583 -0.0146
10128TIP3    H151799   6.081   4.992   0.304 -2.3974  2.2271  0.7987
10128TIP3    H251800   5.959   4.906   0.278  0.4426 -1.8132 -0.1485
10129TIP3   OH251801   0.852   5.976  12.355 -0.1833 -0.1109 -0.3195
10129TIP3    H151802   0.778   5.916  12.343 -0.8635  1.3079 -5.3317
10129TIP3    H251803   0.923   5.938  12.304  0.5439  1.5310 -0.6068
10130TIP3   OH251804   5.040   3.415  13.651  0.0962 -0.3957 -0.7718
10130TIP3    H151805   5.041   3.409  13.746 -0.3602 -0.9192 -0.7921
10130TIP3    H251806   5.049   3.509  13.632 -1.2585 -0.1213 -0.1735
10131TIP3   OH251807   0.737   6.438  15.421  0.5203 -0.0524  0.3312
10131TIP3    H151808   0.765   6.525  15.448  0.7808 -0.1234  0.2869
10131TIP3    H251809   0.645   6.433  15.448  0.1802  0.6397 -0.6226
10132TIP3   OH251810   0.084   0.333  13.589 -0.2493 -0.8694 -0.5377
10132TIP3    H151811   0.144   0.262  13.610 -0.7104 -0.9236  0.6399
10132TIP3    H251812   0.061   0.372  13.673 -1.5450 -0.5973 -0.9907
10133TIP3   OH251813   4.777   4.311  12.459 -0.1441  0.2801 -0.1460
10133TIP3    H151814   4.751   4.349  12.542 -1.2965 -0.4895 -0.1401
10133TIP3    H251815   4.696   4.280  12.419  0.5133 -0.3286 -1.0698
10134TIP3   OH251816   5.963   3.312  11.520 -0.4554  0.1203  0.3208
10134TIP3    H151817   5.892   3.373  11.497 -0.5737  0.1388  0.7417
10134TIP3    H251818   5.918   3.228  11.533 -0.1188 -0.4630 -1.8647
10135TIP3   OH251819   0.434   4.346  13.600  0.2825  0.9839 -0.3665
10135TIP3    H151820   0.344   4.314  13.600  0.8324 -0.8744  1.7625
10135TIP3    H251821   0.430   4.425  13.653 -0.0742  0.7476 -0.0280
10136TIP3   OH251822   2.397   1.922   4.208 -0.2097 -0.0001 -0.4058
10136TIP3    H151823   2.415   2.014   4.227 -0.7247  0.0569 -0.1683
10136TIP3    H251824   2.316   1.924   4.157  0.3313 -0.2584 -1.2966
10137TIP3   OH251825   5.397   0.980   0.421 -0.3640 -0.2006 -0.0634
10137TIP3    H151826   5.459   0.920   0.462 -0.0614 -0.6285 -1.1180
10137TIP3    H251827   5.351   1.021   0.495  1.0475  0.0094  0.7491
10138TIP3   OH251828   3.372   4.759  11.762  0.2032  0.9308 -0.0395
10138TIP3    H151829   3.428   4.832  11.789  2.3621 -1.0020  1.0225
10138TIP3    H251830   3.405   4.734  11.676  2.0815 -1.1430  1.1975
10139TIP3   OH251831   6.202   1.753   4.008  0.1255 -0.0226 -0.3818
10139TIP3    H151832   6.142   1.716   4.074 -0.1826 -0.1201 -0.7157
10139TIP3    H251833   6.266   1.802   4.060 -0.5198  0.4899 -0.0430
10140TIP3   OH251834   0.339   5.329   5.159  0.1470  0.6788  0.0244
10140TIP3    H151835   0.430   5.333   5.131 -0.0744 -1.9913 -1.3671
10140TIP3    H251836   0.343   5.311   5.253  1.1082 -0.6624 -0.2511
10141TIP3   OH251837   5.237   6.092   4.300 -0.0140  0.2704  0.1063
10141TIP3    H151838   5.145   6.113   4.313  0.2835  1.5608  0.2376
10141TIP3    H251839   5.244   6.073   4.207 -0.6862 -1.3787  0.3537
10142TIP3   OH251840   4.384   5.535   5.706 -0.1642 -0.4457  0.6688
10142TIP3    H151841   4.353   5.598   5.641  1.3256  0.7443  1.0668
10142TIP3    H251842   4.453   5.581   5.753  1.7701 -2.7497  0.2592
10143TIP3   OH251843   2.116   4.922  15.800  0.0242  0.0153 -0.1392
10143TIP3    H151844   2.086   4.833  15.822  1.1949 -0.2998  0.2619
10143TIP3    H251845   2.206   4.924  15.830 -0.7111  2.1945  2.2247
10144TIP3   OH251846   2.753   4.895   2.418 -0.0433 -0.2482  0.0078
10144TIP3    H151847   2.755   4.898   2.323  2.0758  0.9242  0.0478
10144TIP3    H251848   2.830   4.944   2.446  0.6917 -2.4610  2.2854
10145TIP3   OH251849   5.474   5.881  11.787  0.4471 -0.0968  0.1148
10145TIP3    H151850   5.489   5.834  11.706  1.0011  0.2306  0.0250
10145TIP3    H251851   5.500   5.820  11.856 -0.1256 -0.4142  0.0574
10146TIP3   OH251852   0.099   0.589  13.429 -0.7110  0.3053  0.1283
10146TIP3    H151853   0.064   0.515  13.479 -0.8110 -0.1252 -0.5515
10146TIP3    H251854   0.022   0.642  13.408 -0.9473 -0.4322 -1.0258
10147TIP3   OH251855   2.867   1.567  13.423 -0.4490  1.0103 -0.1662
10147TIP3    H151856   2.940   1.517  13.459 -0.5108 -0.9170 -2.4078
10147TIP3    H251857   2.856   1.641  13.482  3.4934  1.5822  0.1276
10148TIP3   OH251858   6.196   5.245  12.885  0.0341  0.2456 -0.0613
10148TIP3    H151859   6.194   5.304  12.961  0.1776  0.8890 -0.5435
10148TIP3    H251860   6.288   5.242  12.859 -0.0493  0.2290 -0.3589
10149TIP3   OH251861   1.978   5.799   1.754 -0.4423  0.1367 -0.4795
10149TIP3    H151862   1.885   5.822   1.746 -0.3181  1.0201  0.3902
10149TIP3    H251863   1.982   5.744   1.832 -0.1113  0.9070  0.0588
10150TIP3   OH251864   2.532   0.807   4.341  0.2015 -0.4494  0.6540
10150TIP3    H151865   2.620   0.795   4.306 -0.4279 -1.0339 -0.7802
10150TIP3    H251866   2.543   0.872   4.411  1.8104 -0.7546  0.7179
10151TIP3   OH251867   5.761   6.199   0.265  0.4479  0.5344 -0.2883
10151TIP3    H151868   5.714   6.242   0.194 -0.9541 -2.1974 -1.1190
10151TIP3    H251869   5.695   6.187   0.334  0.7582 -0.4311 -0.1492
10152TIP3   OH251870   1.195   3.751  16.463 -0.1478 -0.0878 -0.2246
10152TIP3    H151871   1.110   3.708  16.473 -0.3232  0.1540 -0.6450
10152TIP3    H251872   1.201   3.809  16.539 -0.8663  0.7412 -0.7912
10153TIP3   OH251873   4.784   0.455  17.153  0.1249  0.1948 -0.0431
10153TIP3    H151874   4.828   0.497  17.079 -0.2028 -0.4189 -0.5900
10153TIP3    H251875   4.849   0.458  17.223  0.5953  0.4010 -0.4776
10154TIP3   OH251876   3.088   3.611  16.459 -0.6479 -0.3659  0.1825
10154TIP3    H151877   3.069   3.696  16.420 -0.3862 -0.6416 -0.5634
10154TIP3    H251878   3.184   3.609  16.465 -0.6575 -0.5839  0.2599
10155TIP3   OH251879   4.600   4.898  15.292  0.3682 -0.5693 -0.5633
10155TIP3    H151880   4.619   4.818  15.341 -0.3040 -0.4198 -0.0315
10155TIP3    H251881   4.607   4.968  15.357 -0.6326 -0.3794 -0.6303
10156TIP3   OH251882   3.980   3.065   2.282  0.1819  0.1613 -0.4280
10156TIP3    H151883   3.902   3.109   2.314  1.1797  1.0426  0.8864
10156TIP3    H251884   4.052   3.102   2.334  1.4044 -1.0365 -1.1977
10157TIP3   OH251885   0.337   5.724   0.138 -0.0553 -0.5717 -0.3639
10157TIP3    H151886   0.261   5.776   0.166  0.1308 -1.2382  1.4906
10157TIP3    H251887   0.342   5.738   0.043 -1.6787  0.5558 -0.3179
10158TIP3   OH251888   1.852   5.150   3.319 -0.1611  0.1804 -0.1660
10158TIP3    H151889   1.788   5.116   3.382 -1.2450 -2.8241 -2.6509
10158TIP3    H251890   1.933   5.106   3.341  0.7677  2.6745  1.8853
10159TIP3   OH251891   6.652   2.528  16.431  0.8481  0.0166  0.3874
10159TIP3    H151892   6.706   2.509  16.355  1.2858  0.4138  0.5923
10159TIP3    H251893   6.683   2.467  16.498  0.7869 -0.0072  0.3945
10160TIP3   OH251894   3.502   1.627  14.895 -0.0401  0.1232  0.5055
10160TIP3    H151895   3.427   1.684  14.912  0.1061  0.5408 -0.2105
10160TIP3    H251896   3.469   1.539  14.909 -1.0997  0.1948 -1.2454
10161TIP3   OH251897   3.439   2.442  11.708  0.2323 -0.4387  0.1351
10161TIP3    H151898   3.490   2.431  11.628  2.3263  3.4656  0.6768
10161TIP3    H251899   3.351   2.465  11.678  0.5817 -0.5925 -1.0262
10162TIP3   OH251900   1.820   0.556   0.297  0.2350 -0.0398 -0.0038
10162TIP3    H151901   1.789   0.493   0.362 -0.2012 -0.4267 -0.5825
10162TIP3    H251902   1.870   0.505   0.234  0.4330  0.2921 -0.1209
10163TIP3   OH251903   2.553   4.181   1.071  0.9698 -0.2766 -0.4407
10163TIP3    H151904   2.507   4.265   1.074  0.5422 -0.5226  0.3667
10163TIP3    H251905   2.589   4.171   1.160  1.2866 -0.7934 -0.6229
10164TIP3   OH251906   1.356   2.713  15.921 -0.3315 -0.1535  0.3930
10164TIP3    H151907   1.303   2.792  15.913 -1.4270 -0.9023 -0.0284
10164TIP3    H251908   1.317   2.652  15.858 -0.5713 -1.5908  1.8586
10165TIP3   OH251909   4.242   5.257  16.322  0.7568 -0.9628  0.0155
10165TIP3    H151910   4.186   5.181  16.306 -0.1553 -0.1087 -0.9521
10165TIP3    H251911   4.252   5.260  16.417  0.2097 -1.8713  0.1068
10166TIP3   OH251912   5.560   0.680  16.008 -0.2767  0.0281  0.6115
10166TIP3    H151913   5.567   0.771  16.036  0.1215  0.1476  0.1298
10166TIP3    H251914   5.636   0.665  15.952 -0.0231 -0.7655  1.1406
10167TIP3   OH251915   4.482   0.128  14.070 -0.1250 -0.3528 -0.5957
10167TIP3    H151916   4.488   0.117  13.976 -1.5547  0.9251 -0.8741
10167TIP3    H251917   4.388   0.129  14.088  0.0667 -2.9065  1.1647
10168TIP3   OH251918   4.363   5.109  15.882  0.0791  0.0223  0.6087
10168TIP3    H151919   4.331   5.122  15.792 -0.7660  0.5794  0.9740
10168TIP3    H251920   4.454   5.082  15.871 -0.6537 -2.2917 -0.4996
10169TIP3   OH251921   2.293   4.690  12.501  0.2931 -0.0211  0.3280
10169TIP3    H151922   2.277   4.777  12.467 -2.0044  0.3624  2.0882
10169TIP3    H251923   2.377   4.696  12.546 -0.2671  1.5868  1.2284
10170TIP3   OH251924   2.024   4.846  13.781  0.6100 -0.0839  0.0177
10170TIP3    H151925   2.072   4.806  13.855 -0.2351  0.0796  0.6729
10170TIP3    H251926   2.004   4.934  13.811 -2.3000 -0.9293  0.8349
10171TIP3   OH251927   3.645   5.429   0.579  0.1374  0.2621 -0.2041
10171TIP3    H151928   3.649   5.340   0.543 -1.5655  0.5158 -1.1105
10171TIP3    H251929   3.627   5.485   0.504 -0.6585  1.1508  0.6156
10172TIP3   OH251930   2.737   6.411   0.617  0.0665  0.6423 -0.1248
10172TIP3    H151931   2.768   6.491   0.658 -0.0249 -0.0018  1.2957
10172TIP3    H251932   2.672   6.376   0.679  1.3466 -1.3937  0.1651
10173TIP3   OH251933   6.743   1.256  16.260 -0.1169 -0.1750 -0.7591
10173TIP3    H151934   6.731   1.263  16.165 -0.1379  0.9006 -0.6848
10173TIP3    H251935   6.667   1.205  16.290 -1.4336  1.5410 -1.0292
10174TIP3   OH251936   4.765   0.448  15.413 -0.1922  0.0245  0.1774
10174TIP3    H151937   4.761   0.368  15.360  0.1373  0.3517 -0.3579
10174TIP3    H251938   4.717   0.513  15.361 -0.9582  0.0279  0.8799
10175TIP3   OH251939   5.656   5.590   4.930 -0.4424  0.7131  0.1454
10175TIP3    H151940   5.566   5.562   4.912 -0.8168  2.2055 -0.4080
10175TIP3    H251941   5.708   5.551   4.860 -0.4094 -1.2340  1.1807
10176TIP3   OH251942   1.845   4.242  11.895 -0.5222  0.2546  0.0340
10176TIP3    H151943   1.826   4.202  11.980  0.8768  0.8588  0.6498
10176TIP3    H251944   1.811   4.331  11.902 -0.4403  0.2925 -0.0537
10177TIP3   OH251945   0.981   6.496   1.597 -0.0849  0.4496 -0.2639
10177TIP3    H151946   0.899   6.541   1.616 -1.4638 -2.2667  0.7501
10177TIP3    H251947   1.047   6.565   1.599 -2.4644  3.0748 -2.9495
10178TIP3   OH251948   6.627   3.035   3.250 -0.1573  0.1880  0.3068
10178TIP3    H151949   6.671   3.031   3.335 -1.4088 -0.9696  0.9479
10178TIP3    H251950   6.691   3.074   3.191  1.2273 -0.2126  1.4866
10179TIP3   OH251951   4.197   0.530   1.109  0.8764 -0.1732  0.3166
10179TIP3    H151952   4.292   0.520   1.102  1.2309  1.2343  2.4694
10179TIP3    H251953   4.172   0.473   1.182  0.3627  0.8496  0.9614
10180TIP3   OH251954   6.000   2.479  14.951  0.3475  0.3025 -0.4226
10180TIP3    H151955   6.072   2.498  15.010 -0.3875 -0.5261  0.7843
10180TIP3    H251956   5.984   2.385  14.962 -0.6390  0.3863 -0.9835
10181TIP3   OH251957   4.514   1.661   5.498  0.2779  0.1179  0.0772
10181TIP3    H151958   4.605   1.688   5.509 -0.0293  1.1466  0.1960
10181TIP3    H251959   4.465   1.718   5.558 -0.4299 -0.5004  0.0993
10182TIP3   OH251960   3.819   0.110   0.997  0.6538  0.3739 -0.1140
10182TIP3    H151961   3.853   0.191   1.036  0.6778 -0.0475  0.7813
10182TIP3    H251962   3.894   0.073   0.950  0.6993  0.7651 -0.3532
10183TIP3   OH251963   5.472   3.637   5.340 -0.2479  0.0304  0.3978
10183TIP3    H151964   5.537   3.577   5.304 -1.3360 -0.0434 -1.6158
10183TIP3    H251965   5.463   3.611   5.431  1.3977 -0.9693  0.3097
10184TIP3   OH251966   5.355   2.180   1.867  0.1362 -0.1993  0.5932
10184TIP3    H151967   5.318   2.160   1.781  0.7403 -0.3405  0.3599
10184TIP3    H251968   5.341   2.274   1.878  0.1892 -0.1541  0.2768
10185TIP3   OH251969   2.361   3.914   2.980  0.0522 -0.1995  0.5548
10185TIP3    H151970   2.318   3.853   3.040 -1.1977 -1.1123 -1.1841
10185TIP3    H251971   2.298   3.985   2.969  0.5417  0.2756  0.8086
10186TIP3   OH251972   1.515   4.227  13.657  0.0848 -0.2614  0.1253
10186TIP3    H151973   1.485   4.137  13.670  0.9776 -0.6418 -0.4035
10186TIP3    H251974   1.455   4.280  13.711 -0.2642 -1.1871  0.6693
10187TIP3   OH251975   1.911   3.582  13.906  0.0060 -0.1271 -0.0834
10187TIP3    H151976   1.823   3.611  13.927 -0.8231 -0.3545 -2.8051
10187TIP3    H251977   1.953   3.566  13.990 -2.7567 -0.6281  1.2860
10188TIP3   OH251978   5.363   4.960   5.867  0.0943 -0.2503  0.1418
10188TIP3    H151979   5.431   4.905   5.906  1.9402  1.5040 -0.4138
10188TIP3    H251980   5.371   4.943   5.773  0.0139  0.2417  0.0467
10189TIP3   OH251981   5.212   1.115   5.253  0.2897  0.1062 -0.2441
10189TIP3    H151982   5.170   1.032   5.232  1.9686 -0.6935 -0.5680
10189TIP3    H251983   5.170   1.143   5.334 -0.1734 -1.1345 -0.0328
10190TIP3   OH251984   1.461   6.719  12.064  0.1052 -0.4612 -0.0648
10190TIP3    H151985   1.460   6.626  12.041  1.6948 -0.0694 -2.0063
10190TIP3    H251986   1.551   6.747  12.048 -0.2863  1.3652  0.7097
10191TIP3   OH251987   1.318   0.810  15.564 -0.1785  0.8443 -0.2458
10191TIP3    H151988   1.413   0.806  15.580  0.0930 -0.6811 -1.8421
10191TIP3    H251989   1.285   0.727  15.597 -0.4589  0.1237 -2.2002
10192TIP3   OH251990   4.920   2.821  17.087 -0.3958  0.0677 -0.4212
10192TIP3    H151991   4.900   2.895  17.030  0.5622  0.9297  0.3311
10192TIP3    H251992   4.981   2.856  17.152 -1.0437 -1.0244  0.8237
10193TIP3   OH251993   5.474   1.364   0.901  0.2409  0.6053  0.0257
10193TIP3    H151994   5.398   1.367   0.843  0.6690 -0.0017 -0.5925
10193TIP3    H251995   5.474   1.448   0.946 -0.3455  0.9255 -0.5561
10194TIP3   OH251996   4.463   4.990   0.275 -0.4224  0.4727  0.3601
10194TIP3    H151997   4.426   4.941   0.201  1.6706  0.3180 -0.6604
10194TIP3    H251998   4.408   4.965   0.350 -0.5082 -2.1052 -0.4570
10195TIP3   OH251999   5.904   3.159   6.975 -0.5048 -0.2648 -0.4849
10195TIP3    H152000   5.872   3.070   6.959  0.5146 -1.0267  1.3349
10195TIP3    H252001   6.000   3.151   6.967 -0.1598 -0.0380  2.3408
10196TIP3   OH252002   3.122   4.322  17.299  0.1821  0.0525 -0.9485
10196TIP3    H152003   3.093   4.337  17.389  1.0960 -1.6304 -0.3295
10196TIP3    H252004   3.048   4.275  17.259 -0.1487  0.6337 -1.0252
10197TIP3   OH252005   2.684   5.990  15.645 -0.2210  0.1365  0.0730
10197TIP3    H152006   2.590   5.968  15.648 -0.1673 -0.0466  1.9971
10197TIP3    H252007   2.688   6.081  15.674  0.2888 -0.3327  1.5616
10198TIP3   OH252008   3.087   5.129  12.859 -0.0858  1.0283  0.3833
10198TIP3    H152009   3.034   5.195  12.904 -1.1774  0.2080  0.3338
10198TIP3    H252010   3.126   5.077  12.930  2.1509  2.6725  0.5030
10199TIP3   OH252011   3.190   3.900  15.277  0.2085  0.1974  0.0280
10199TIP3    H152012   3.096   3.916  15.273  0.4285  1.3595 -1.0965
10199TIP3    H252013   3.228   3.965  15.217  1.8091  0.5229  1.3158
10200TIP3   OH252014   5.235   4.217  14.203 -0.3241  0.4203  0.3060
10200TIP3    H152015   5.251   4.125  14.224 -2.3308  0.1023  0.6042
10200TIP3    H252016   5.313   4.262  14.235  0.3465 -1.0676  0.8898
10201TIP3   OH252017   0.208   6.082  11.717  0.1710  0.5494 -0.1458
10201TIP3    H152018   0.126   6.055  11.675  0.7698 -1.3388 -0.1928
10201TIP3    H252019   0.273   6.080  11.647  0.6059  0.2296  0.2563
10202TIP3   OH252020   1.843   3.956  11.342  0.0553  0.0483 -0.0925
10202TIP3    H152021   1.860   4.039  11.297  1.8814  0.0580  0.5389
10202TIP3    H252022   1.791   3.905  11.280 -1.7863  1.9190 -0.2033
10203TIP3   OH252023   1.635   6.336  12.739  0.5212 -0.6062 -0.0831
10203TIP3    H152024   1.724   6.351  12.772  0.6831 -0.3871 -0.6021
10203TIP3    H252025   1.648   6.300  12.651  0.1109  1.0619 -0.8844
10204TIP3   OH252026   2.288   6.735   2.054 -0.5851  1.0628  0.8995
10204TIP3    H152027   2.312   6.781   1.973 -0.7428 -0.0033  0.2244
10204TIP3    H252028   2.371   6.713   2.094 -0.4876  0.8971  0.6121
10205TIP3   OH252029   2.359   5.504  13.375 -0.3729  0.0294  0.0605
10205TIP3    H152030   2.386   5.595  13.383 -1.0415  0.2657 -0.3526
10205TIP3    H252031   2.377   5.466  13.461  0.1875  0.4663  0.1428
10206TIP3   OH252032   0.430   2.790  11.392  0.0537 -0.5266  0.3406
10206TIP3    H152033   0.384   2.817  11.472  0.2090 -1.5271  0.7810
10206TIP3    H252034   0.503   2.736  11.423  0.2022 -0.8014 -0.4640
10207TIP3   OH252035   1.150   5.590  15.191 -0.1863 -0.2310 -0.3395
10207TIP3    H152036   1.188   5.542  15.265 -0.5235 -0.9803 -0.6402
10207TIP3    H252037   1.186   5.678  15.199 -0.9769 -0.0082  1.2968
10208TIP3   OH252038   1.808   6.627   3.015  0.4026  0.1713  0.6802
10208TIP3    H152039   1.883   6.621   2.956 -0.6961 -4.8883 -0.7486
10208TIP3    H252040   1.836   6.582   3.094 -0.7639 -1.0562  0.4406
10209TIP3   OH252041   1.882   3.212  12.189 -0.3402  0.3638 -0.6574
10209TIP3    H152042   1.794   3.247  12.203 -0.4452 -0.1713  0.0541
10209TIP3    H252043   1.931   3.286  12.151 -1.0696  0.6840 -1.0076
10210TIP3   OH252044   3.900   0.816   0.837  0.0000  0.1508  0.1319
10210TIP3    H152045   3.831   0.774   0.888 -0.2349  0.4747  0.0868
10210TIP3    H252046   3.979   0.767   0.858  0.0848  0.8138  1.5011
10211TIP3   OH252047   0.076   2.610   4.649  0.5018  0.0463  0.2322
10211TIP3    H152048   0.074   2.695   4.605 -0.8166 -0.4313 -0.6809
10211TIP3    H252049   0.028   2.551   4.591  1.1899 -1.2825  0.9625
10212TIP3   OH252050   3.739   0.102  13.035  0.7670 -0.1221  0.0083
10212TIP3    H152051   3.766   0.040  13.103 -1.7419  2.1659  3.4057
10212TIP3    H252052   3.795   0.179  13.050 -1.3214  1.2590  1.1601
10213TIP3   OH252053   0.187   2.202   5.877 -0.3502  0.3489 -0.0510
10213TIP3    H152054   0.201   2.283   5.828  2.3875  0.1493  0.2478
10213TIP3    H252055   0.156   2.232   5.963  1.9924  1.2895  0.5599
10214TIP3   OH252056   2.005   5.160  17.191  0.3289 -0.0843 -0.6698
10214TIP3    H152057   2.085   5.109  17.202  0.2403 -0.0677  0.0701
10214TIP3    H252058   1.949   5.104  17.137  0.4246 -0.5578 -0.2795
10215TIP3   OH252059   3.429   4.546  12.732  0.2302 -0.3545  0.2050
10215TIP3    H152060   3.517   4.580  12.716  1.0536 -1.7384  1.5087
10215TIP3    H252061   3.399   4.592  12.810  0.0157 -0.2909  0.0872
10216TIP3   OH252062   0.060   3.726  17.224  0.0647  0.2350  0.1644
10216TIP3    H152063   0.062   3.646  17.171 -0.3199 -0.8235  1.6954
10216TIP3    H252064   0.147   3.731  17.263  0.5930  1.4082 -1.0705
10217TIP3   OH252065   3.859   3.501  13.120 -0.2337 -0.6150 -0.2191
10217TIP3    H152066   3.844   3.439  13.192  0.4664  0.7310  1.1445
10217TIP3    H252067   3.822   3.584  13.152 -1.2538 -0.3115 -2.0391
10218TIP3   OH252068   0.367   3.528  15.694  0.1940 -0.3199  0.0298
10218TIP3    H152069   0.376   3.490  15.606  0.9239 -1.2567  0.4843
10218TIP3    H252070   0.419   3.470  15.750  0.6174  0.8641  0.9117
10219TIP3   OH252071   4.462   2.530   4.300 -0.6439  0.3924  1.1035
10219TIP3    H152072   4.450   2.524   4.395 -0.8775 -0.5746  1.0182
10219TIP3    H252073   4.547   2.573   4.289  0.5238 -1.6196  1.7901
10220TIP3   OH252074   2.165   5.777  13.903 -0.0887 -0.1664 -0.1075
10220TIP3    H152075   2.177   5.855  13.848  3.0313  0.3870  1.1713
10220TIP3    H252076   2.105   5.722  13.853 -1.6659  2.5872 -1.5223
10221TIP3   OH252077   4.397   4.908   1.178  0.3286  0.1853  0.0157
10221TIP3    H152078   4.386   4.912   1.273 -1.7387 -0.8108 -0.1247
10221TIP3    H252079   4.357   4.989   1.145  0.8714  0.4392 -0.0360
10222TIP3   OH252080   1.986   1.428   6.474  0.0391 -0.2387 -0.7869
10222TIP3    H152081   1.900   1.396   6.502 -0.9388  0.7041 -2.5523
10222TIP3    H252082   1.998   1.509   6.524 -0.1268 -0.3267 -0.6001
10223TIP3   OH252083   4.364   3.842   5.354 -0.0816 -0.2462 -0.5542
10223TIP3    H152084   4.424   3.881   5.291  0.3597  2.7083  1.4739
10223TIP3    H252085   4.293   3.906   5.362 -0.3189 -0.6763  1.5414
10224TIP3   OH252086   6.018   3.318  16.575  0.2806  0.0761  0.2996
10224TIP3    H152087   5.943   3.259  16.583 -1.5556  2.2529  0.1333
10224TIP3    H252088   6.055   3.322  16.663 -0.0560 -0.6812  0.4866
10225TIP3   OH252089   4.204   2.055   2.030 -0.0095 -0.0284  0.0483
10225TIP3    H152090   4.158   2.046   2.113 -1.2086  0.3780 -0.5484
10225TIP3    H252091   4.199   1.968   1.990  0.4188 -0.1799  0.3211
10226TIP3   OH252092   1.510   1.762   4.350  0.1602  0.3290 -0.1600
10226TIP3    H152093   1.522   1.832   4.286 -0.0423 -1.0979 -1.8532
10226TIP3    H252094   1.590   1.711   4.344  0.4282  0.5599  1.2721
10227TIP3   OH252095   6.577   6.193   4.813 -0.2904 -0.0113  0.2778
10227TIP3    H152096   6.662   6.151   4.826 -0.8631 -0.8695  1.3983
10227TIP3    H252097   6.530   6.133   4.755 -0.0644  0.5840 -0.5442
10228TIP3   OH252098   5.844   1.681  14.175 -0.2139  0.5248  0.0603
10228TIP3    H152099   5.886   1.653  14.093 -0.0977 -1.3832  0.7264
10228TIP3    H252100   5.755   1.706  14.148 -0.0718  0.2355 -0.7195
10229TIP3   OH252101   4.875   0.396  15.935 -0.4182 -0.2928 -0.1948
10229TIP3    H152102   4.934   0.439  15.997  1.2469 -1.4974 -0.8730
10229TIP3    H252103   4.814   0.465  15.907  0.8158  1.0536  0.3552
10230TIP3   OH252104   4.673   1.127   3.249 -0.4658  0.5764  0.3223
10230TIP3    H152105   4.600   1.076   3.286 -0.7318  0.3258 -0.5255
10230TIP3    H252106   4.712   1.069   3.184  1.6478  0.0055  1.9735
10231TIP3   OH252107   5.052   4.646  14.081 -0.0460  0.0069  0.8890
10231TIP3    H152108   5.050   4.601  14.165  0.0813  0.5139  1.1596
10231TIP3    H252109   4.986   4.715  14.089  0.2090  0.2743  0.6934
10232TIP3   OH252110   5.920   0.032   0.385 -0.0239  0.2489 -0.0926
10232TIP3    H152111   5.979  -0.042   0.390  0.3799  0.3092 -2.4976
10232TIP3    H252112   5.833  -0.007   0.381 -0.2176  0.1474  3.0914
10233TIP3   OH252113   6.475   2.833   3.513 -0.1030  0.4391  0.0141
10233TIP3    H152114   6.446   2.743   3.507  2.4939 -0.5413  0.8362
10233TIP3    H252115   6.492   2.859   3.422 -1.3455  0.3186 -0.2677
10234TIP3   OH252116   0.960   5.163   3.699 -0.3777 -0.6151  0.4592
10234TIP3    H152117   0.952   5.189   3.607 -0.5263 -0.9495  0.3779
10234TIP3    H252118   0.980   5.245   3.744 -2.5670  0.0048  0.4502
10235TIP3   OH252119   1.429   5.139  14.198 -0.3622 -0.3861 -0.1991
10235TIP3    H152120   1.436   5.060  14.252  0.5335  0.2509  0.6696
10235TIP3    H252121   1.472   5.206  14.250  0.0402  0.3849 -1.4911
10236TIP3   OH252122   4.235   2.506   1.880  0.2749  0.7414  0.2438
10236TIP3    H152123   4.248   2.480   1.971  1.9894  2.7498  0.6591
10236TIP3    H252124   4.205   2.597   1.886  0.3356  0.8700 -1.1964
10237TIP3   OH252125   0.087   5.850  13.664 -0.3563  0.0352 -0.1146
10237TIP3    H152126   0.180   5.857  13.687  0.8523 -3.6317 -2.9349
10237TIP3    H252127   0.042   5.837  13.747  1.5270  2.0564  1.3399
10238TIP3   OH252128   2.264   6.564   5.445 -0.0157  0.3605 -0.2116
10238TIP3    H152129   2.281   6.494   5.382 -0.3071 -1.4151  1.5820
10238TIP3    H252130   2.304   6.641   5.405  1.7371 -1.1316 -1.5765
10239TIP3   OH252131   3.935   4.610   4.124  0.4060 -0.0310 -0.4285
10239TIP3    H152132   4.017   4.644   4.088  0.0382 -0.2343 -1.5264
10239TIP3    H252133   3.955   4.521   4.152  0.7034  0.1327 -0.1189
10240TIP3   OH252134   1.635   1.356   3.875 -0.1571  0.0484 -0.1607
10240TIP3    H152135   1.640   1.419   3.803  0.1807  1.1063  0.7705
10240TIP3    H252136   1.587   1.401   3.944  0.2888 -0.6233  0.6102
10241TIP3   OH252137   2.397   3.664   4.015  0.2548 -0.2231  0.2793
10241TIP3    H152138   2.304   3.662   4.039 -0.3088 -0.6914 -1.7257
10241TIP3    H252139   2.412   3.580   3.972  1.3930  0.2031 -0.1888
10242TIP3   OH252140   5.787   1.324  11.782  0.1363 -0.5983  0.5287
10242TIP3    H152141   5.838   1.283  11.852 -1.8451 -0.9028  1.8678
10242TIP3    H252142   5.853   1.351  11.718  1.8212 -2.5148  1.3296
10243TIP3   OH252143   3.638   6.081  13.002  0.1798 -0.1306  0.0419
10243TIP3    H152144   3.683   6.144  13.058  1.9870 -1.4205  0.1210
10243TIP3    H252145   3.707   6.045  12.946 -0.6605 -2.4358  0.3703
10244TIP3   OH252146   4.127   4.198   2.266  0.0435 -1.0283 -0.0078
10244TIP3    H152147   4.121   4.199   2.170  0.8407  1.2342 -0.1032
10244TIP3    H252148   4.044   4.234   2.296 -0.3179 -1.9990  0.1796
10245TIP3   OH252149   0.122   4.118   2.975  0.3539  0.3652 -0.4251
10245TIP3    H152150   0.189   4.151   3.035 -0.2349  0.2900  0.2798
10245TIP3    H252151   0.103   4.029   3.005 -0.7182  0.7084 -0.0463
10246TIP3   OH252152   3.901   0.519   3.633 -0.3119 -0.0697 -0.0327
10246TIP3    H152153   3.996   0.529   3.637 -0.1299 -0.0955 -2.4528
10246TIP3    H252154   3.867   0.581   3.698  1.3241  1.8523 -0.9093
10247TIP3   OH252155   2.385   4.004  14.929  0.0054  0.4167 -0.0170
10247TIP3    H152156   2.433   4.083  14.953  0.0367  0.0388  1.2160
10247TIP3    H252157   2.400   3.995  14.835  2.4203  0.3107  0.3089
10248TIP3   OH252158   1.341   6.395   0.083 -0.2454 -0.1752  0.3416
10248TIP3    H152159   1.253   6.393   0.046 -0.6828 -2.6027  1.3220
10248TIP3    H252160   1.398   6.412   0.008 -1.5154  2.8556 -0.1185
10249TIP3   OH252161   6.093   1.388   2.694  0.2327 -0.2650  0.0624
10249TIP3    H152162   6.092   1.444   2.616  0.3152  0.1739  0.3764
10249TIP3    H252163   6.029   1.320   2.675  0.5132 -0.3690 -0.5416
10250TIP3   OH252164   6.083   0.654  12.573  0.0341 -0.3844  0.0575
10250TIP3    H152165   6.139   0.657  12.651  0.8229 -1.2171 -0.4545
10250TIP3    H252166   5.998   0.687  12.604  0.3068 -0.7561  1.2912
10251TIP3   OH252167   4.055   4.205  13.847 -0.4536 -0.7002  0.0099
10251TIP3    H152168   3.967   4.239  13.859 -0.3191 -0.6201  0.8629
10251TIP3    H252169   4.093   4.257  13.777 -2.0090 -2.5450 -2.3637
10252TIP3   OH252170   0.926   2.298   5.553  0.4210 -0.0582  0.6089
10252TIP3    H152171   0.896   2.216   5.590 -0.6099  0.1836  0.3292
10252TIP3    H252172   1.011   2.277   5.514 -0.9881 -1.6558 -1.8022
10253TIP3   OH252173   2.256   0.066  13.651  0.5846 -0.3311  0.0139
10253TIP3    H152174   2.194   0.040  13.720  0.0890  1.2384  0.2012
10253TIP3    H252175   2.291   0.150  13.681  2.0351 -0.6875 -0.6076
10254TIP3   OH252176   4.107   3.605  14.893  0.4957  0.2473 -0.2020
10254TIP3    H152177   4.127   3.532  14.835 -0.7666 -0.0048 -0.3495
10254TIP3    H252178   4.097   3.680  14.835 -0.9850 -0.0493 -0.3647
10255TIP3   OH252179   2.793   0.505   4.090  0.7023  0.1731  0.4547
10255TIP3    H152180   2.759   0.506   4.179 -0.1621 -1.1996  0.1655
10255TIP3    H252181   2.812   0.413   4.072 -2.3700 -0.1730 -1.9057
10256TIP3   OH252182   2.775   2.081  13.530 -0.1217  0.0272  0.4337
10256TIP3    H152183   2.839   2.120  13.471  0.8792 -1.5224  0.4440
10256TIP3    H252184   2.803   1.990  13.540 -2.4677 -0.7905  0.2401
10257TIP3   OH252185   0.519   6.166   5.772  0.6400 -0.1588  0.5412
10257TIP3    H152186   0.548   6.240   5.718 -0.2061 -0.5982 -0.5337
10257TIP3    H252187   0.427   6.154   5.749  0.1185 -0.0653  2.4256
10258TIP3   OH252188   4.704   4.283  16.700 -0.3007 -0.1879 -0.3931
10258TIP3    H152189   4.654   4.318  16.773 -1.5692  1.0970 -1.8209
10258TIP3    H252190   4.795   4.287  16.730 -0.7934  0.1362  1.1663
10259TIP3   OH252191   1.106   1.810  11.576  0.0931  0.2817  0.1972
10259TIP3    H152192   1.121   1.884  11.517  2.3905  0.8006  1.3312
10259TIP3    H252193   1.095   1.849  11.662 -2.5301 -0.5185  0.2983
10260TIP3   OH252194   4.663   3.504   2.177  0.1597  0.5601  0.1626
10260TIP3    H152195   4.670   3.588   2.133 -0.3411  0.6810  0.3095
10260TIP3    H252196   4.607   3.452   2.120  1.8499 -0.2866 -0.8346
10261TIP3   OH252197   5.086   0.107   3.571 -0.1587  0.0329 -0.2813
10261TIP3    H152198   5.021   0.140   3.633  0.9084  3.0300 -0.5710
10261TIP3    H252199   5.166   0.099   3.623  0.3626  1.0852 -0.8696
10262TIP3   OH252200   5.866   0.383   6.528  0.0159 -0.0166 -0.2770
10262TIP3    H152201   5.822   0.442   6.589  1.2720  1.1596 -0.4446
10262TIP3    H252202   5.957   0.413   6.527  0.7762 -2.1607 -0.1646
10263TIP3   OH252203   4.513   2.416  15.895  0.3413  0.6987  0.4919
10263TIP3    H152204   4.574   2.344  15.909 -1.4163 -1.1037 -0.6543
10263TIP3    H252205   4.557   2.474  15.833  0.6340 -0.9716 -0.9280
10264TIP3   OH252206   3.507   1.535  16.856 -0.3533  0.4856  0.5737
10264TIP3    H152207   3.600   1.520  16.840 -0.4071  0.5389  0.1927
10264TIP3    H252208   3.502   1.624  16.890 -0.3034  0.6531  0.1595
10265TIP3   OH252209   1.348   2.784   3.532  0.5939 -0.2062  0.6684
10265TIP3    H152210   1.439   2.815   3.533  0.2237  0.9631  1.3375
10265TIP3    H252211   1.353   2.693   3.561  1.5563 -0.1634  0.6713
10266TIP3   OH252212   5.166   5.086   4.988 -0.7485 -0.1394 -0.1418
10266TIP3    H152213   5.226   5.145   4.942 -1.2247  0.0901 -0.4711
10266TIP3    H252214   5.170   5.115   5.079  0.7887 -1.0810  0.1335
10267TIP3   OH252215   1.300   3.142  11.020 -0.2072 -0.1438  0.0141
10267TIP3    H152216   1.206   3.161  11.030  0.0753  1.7771 -0.6642
10267TIP3    H252217   1.340   3.178  11.098  0.0809 -0.1302 -0.1412
10268TIP3   OH252218   2.581   1.517   1.327 -0.6908  0.1381  0.5125
10268TIP3    H152219   2.608   1.453   1.261  1.7332  1.9532 -0.4196
10268TIP3    H252220   2.485   1.512   1.328 -0.9562  0.5374 -3.7972
10269TIP3   OH252221   3.871   1.068   3.739  0.2760  0.0733 -0.1524
10269TIP3    H152222   3.907   1.147   3.700 -0.7905  0.0601 -1.2371
10269TIP3    H252223   3.841   1.016   3.665  1.9593 -1.9045  0.4430
10270TIP3   OH252224   1.422   6.098   2.184  0.4753 -0.0048 -0.4665
10270TIP3    H152225   1.486   6.034   2.216  1.5695  0.3937 -1.7554
10270TIP3    H252226   1.346   6.087   2.241  1.2218 -1.3713  0.3153
10271TIP3   OH252227   0.789   0.312   2.934 -0.1285 -0.1584  0.1573
10271TIP3    H152228   0.803   0.306   2.840  1.0619  0.6339  0.2605
10271TIP3    H252229   0.876   0.332   2.970 -0.4745 -0.8764  1.4684
10272TIP3   OH252230   2.605   3.084  15.633  0.0633 -0.1005  0.0614
10272TIP3    H152231   2.539   3.019  15.659  0.6321 -0.7238 -0.0297
10272TIP3    H252232   2.597   3.089  15.538 -0.1412  0.1363  0.0916
10273TIP3   OH252233   4.867   2.630  14.851  0.0353 -0.1182 -0.0718
10273TIP3    H152234   4.834   2.546  14.818  2.2967 -0.4753 -1.6570
10273TIP3    H252235   4.957   2.611  14.877  0.4503  1.7544 -0.0589
10274TIP3   OH252236   2.786   3.038  11.743  0.0217 -0.6013  1.2862
10274TIP3    H152237   2.797   3.118  11.795  2.6332 -1.1999  1.7745
10274TIP3    H252238   2.823   2.968  11.797  2.8897 -1.2574 -1.2189
10275TIP3   OH252239   1.378   5.577   2.574 -0.2858  0.0318 -0.1840
10275TIP3    H152240   1.334   5.590   2.658  2.5706  3.2318  1.0613
10275TIP3    H252241   1.452   5.520   2.595  0.4296  0.8344 -0.4353
10276TIP3   OH252242   5.156   6.693   2.158 -0.4041 -0.0928 -0.4055
10276TIP3    H152243   5.098   6.622   2.130 -0.6150  0.1986 -0.7157
10276TIP3    H252244   5.124   6.717   2.245  0.3842 -1.1419  0.1885
10277TIP3   OH252245   0.395   6.513   5.511  0.1593 -0.2884 -0.1236
10277TIP3    H152246   0.474   6.461   5.528  0.9923  0.8635 -0.3599
10277TIP3    H252247   0.351   6.517   5.596 -0.4255 -2.1214 -0.2825
10278TIP3   OH252248   5.654   0.472   3.185 -0.2439 -0.4289 -0.0919
10278TIP3    H152249   5.670   0.399   3.125 -1.7427 -0.0709 -0.9492
10278TIP3    H252250   5.665   0.550   3.132 -1.4916 -0.1033  0.0983
10279TIP3   OH252251   2.943   3.936  11.556 -0.6208  0.4649 -0.0692
10279TIP3    H152252   2.977   3.997  11.621  2.5732  0.8760 -1.9345
10279TIP3    H252253   2.970   3.850  11.587 -0.7443  0.4623  0.0365
10280TIP3   OH252254   4.803   2.865  14.069 -0.0843 -0.3795 -0.5446
10280TIP3    H152255   4.827   2.774  14.052 -0.3770 -0.6981  0.7093
10280TIP3    H252256   4.712   2.872  14.040  0.4742  0.0190 -2.3556
10281TIP3   OH252257   4.697   3.721  16.991  0.2937  0.0294  0.0922
10281TIP3    H152258   4.722   3.652  16.929 -1.6995  0.8642 -1.7480
10281TIP3    H252259   4.747   3.798  16.964  1.1278 -0.1662  0.9997
10282TIP3   OH252260   1.074   5.110   1.738 -0.2681  0.2506  0.1725
10282TIP3    H152261   1.043   5.197   1.713  0.3082  0.6368  0.7606
10282TIP3    H252262   1.142   5.127   1.803 -0.4484 -0.6595  0.6107
10283TIP3   OH252263   4.655   3.088  15.459  0.1747  0.5002 -0.2144
10283TIP3    H152264   4.662   3.174  15.418  1.9145 -0.3387 -1.8015
10283TIP3    H252265   4.571   3.053  15.427 -1.0656  1.9667  1.2919
10284TIP3   OH252266   5.096   5.038  16.555 -0.1704 -0.3245  0.2950
10284TIP3    H152267   5.044   5.006  16.628  1.4382 -0.4043  1.4613
10284TIP3    H252268   5.155   5.103  16.594  1.2471 -0.9113 -0.7754
10285TIP3   OH252269   3.239   4.240   6.094  0.4233  0.2188 -0.4439
10285TIP3    H152270   3.320   4.191   6.104 -0.0228 -0.3351  0.7162
10285TIP3    H252271   3.170   4.173   6.088 -0.4278  0.5101  3.1571
10286TIP3   OH252272   3.523   5.398  17.297 -0.1899 -0.0154 -0.0979
10286TIP3    H152273   3.458   5.430  17.360 -0.0140 -3.5173  2.1693
10286TIP3    H252274   3.471   5.377  17.220 -1.6987 -1.6767  1.2658
10287TIP3   OH252275   2.082   6.465  12.332 -0.4426 -0.1152  0.4765
10287TIP3    H152276   2.165   6.490  12.291 -0.9734 -1.3431 -1.4852
10287TIP3    H252277   2.019   6.465  12.260 -1.3400 -2.8335  1.1292
10288TIP3   OH252278   1.967   4.764  13.124 -0.4407 -0.1578  0.2249
10288TIP3    H152279   2.047   4.787  13.170  1.4130  0.5486 -3.0525
10288TIP3    H252280   1.961   4.669  13.131 -0.1546 -0.0839  1.7068
10289TIP3   OH252281   5.899   0.990  12.724  0.2910 -0.6507  0.2845
10289TIP3    H152282   5.909   1.068  12.778 -2.1759 -1.0325  1.3901
10289TIP3    H252283   5.952   0.923  12.769 -1.3139 -0.8265  2.0266
10290TIP3   OH252284   6.001   0.435   1.613 -0.4735 -0.5528 -0.2823
10290TIP3    H152285   6.053   0.458   1.536 -2.2637 -2.3929 -2.1885
10290TIP3    H252286   5.995   0.516   1.663  0.9812  0.6683 -1.9468
10291TIP3   OH252287   4.932   1.762   3.008  0.0503  0.2457 -0.1886
10291TIP3    H152288   5.000   1.807   3.058  4.0535 -3.7830 -1.3177
10291TIP3    H252289   4.923   1.812   2.927  1.5203  1.0220  0.0959
10292TIP3   OH252290   1.869   3.222  16.370 -0.0898  0.0543  0.4256
10292TIP3    H152291   1.896   3.131  16.386 -1.8712 -1.1056 -2.3056
10292TIP3    H252292   1.824   3.247  16.450  1.5430 -0.9782  1.7362
10293TIP3   OH252293   4.654   0.717   3.061 -0.0297  0.2217 -0.0711
10293TIP3    H152294   4.582   0.731   2.999  0.3597  2.1762 -0.1404
10293TIP3    H252295   4.666   0.622   3.061 -2.1837 -0.1243 -0.5175
10294TIP3   OH252296   3.827   0.051   3.683 -0.3217  0.3094  0.4371
10294TIP3    H152297   3.865   0.020   3.766  1.1729 -0.0547 -0.3386
10294TIP3    H252298   3.756   0.109   3.709  1.3458  1.7444  2.0233
10295TIP3   OH252299   0.296   6.573   1.678  0.0878  0.5896 -0.5213
10295TIP3    H152300   0.340   6.512   1.619  2.9665  0.0437  1.9090
10295TIP3    H252301   0.235   6.518   1.727  1.9016 -0.2656  0.9144
10296TIP3   OH252302   4.189   4.206   4.541  0.5259 -0.3751 -0.1067
10296TIP3    H152303   4.118   4.230   4.481 -0.0016  0.1405  0.7055
10296TIP3    H252304   4.260   4.176   4.483 -0.3306 -0.8617 -0.9260
10297TIP3   OH252305   3.066   3.225  16.644  0.2177 -0.1328 -0.2317
10297TIP3    H152306   3.100   3.272  16.568  1.6636 -0.4413  0.1833
10297TIP3    H252307   2.988   3.180  16.613  0.3018  0.4393 -1.3002
10298TIP3   OH252308   4.583   3.655   5.741 -0.8044  0.7690  0.4245
10298TIP3    H152309   4.516   3.704   5.788 -0.0677  2.3066 -0.0354
10298TIP3    H252310   4.666   3.694   5.770 -0.2450  0.4641 -0.7071
10299TIP3   OH252311   3.358   5.719   1.094 -0.1896  0.0891  0.1172
10299TIP3    H152312   3.374   5.673   1.011  0.5201  0.0656  0.2653
10299TIP3    H252313   3.363   5.651   1.161 -1.3326  0.0066  0.1369
10300TIP3   OH252314   2.497   6.636  13.973 -0.2087  0.4077  0.0562
10300TIP3    H152315   2.455   6.678  14.048 -0.9175  2.5748 -1.4643
10300TIP3    H252316   2.545   6.707  13.929  1.8437 -1.1910 -0.4799
10301TIP3   OH252317   1.346   5.965   2.512  0.6899 -0.2685 -0.1143
10301TIP3    H152318   1.339   6.043   2.566 -0.2733 -0.0838 -0.4743
10301TIP3    H252319   1.269   5.913   2.534  1.3250 -1.1367  0.1329
10302TIP3   OH252320   3.149   1.117  13.352  0.7257 -0.7207 -0.1661
10302TIP3    H152321   3.211   1.044  13.346  0.6383 -0.8517  0.4443
10302TIP3    H252322   3.064   1.075  13.367  0.2173 -0.6293 -2.4125
10303TIP3   OH252323   1.811   3.623   5.965 -0.0728  0.1096 -0.1055
10303TIP3    H152324   1.756   3.678   5.909 -0.7586 -0.8260 -0.3688
10303TIP3    H252325   1.897   3.626   5.923 -0.3307  0.2448 -0.6345
10304TIP3   OH252326   2.426   4.270   3.762  0.2920  0.2040  0.5795
10304TIP3    H152327   2.451   4.350   3.716  0.4223  0.3172  0.8488
10304TIP3    H252328   2.455   4.199   3.704 -1.0040  0.3584 -0.2843
10305TIP3   OH252329   4.321   2.313  12.779 -0.5759 -0.1748 -0.4759
10305TIP3    H152330   4.231   2.319  12.812 -0.5122 -3.1416  0.5713
10305TIP3    H252331   4.313   2.329  12.685 -1.4776  3.7661  0.0874
10306TIP3   OH252332   1.553   0.340   0.290  0.0194 -0.2354 -0.7556
10306TIP3    H152333   1.587   0.388   0.215 -1.8358  0.8187 -0.9693
10306TIP3    H252334   1.459   0.356   0.288 -0.3783 -2.1465  0.4291
10307TIP3   OH252335   6.354   6.173  13.394 -0.0780  0.9282 -0.1315
10307TIP3    H152336   6.419   6.105  13.412 -1.4449 -0.5046 -0.4239
10307TIP3    H252337   6.391   6.252  13.434  0.7040 -0.3748  1.9017
10308TIP3   OH252338   4.510   1.685   4.058 -0.6365  0.5058  0.3243
10308TIP3    H152339   4.471   1.638   4.132 -0.5566 -1.6322 -0.8886
10308TIP3    H252340   4.436   1.728   4.015 -0.8957  0.5728  0.8291
10309TIP3   OH252341   0.787   2.007  13.999 -0.1888  0.0444 -0.2128
10309TIP3    H152342   0.867   1.954  14.002  0.4837  1.0357 -0.0061
10309TIP3    H252343   0.722   1.954  14.045  0.6596 -0.2740  0.6776
10310TIP3   OH252344   2.811   3.260   1.175  0.4087 -0.0855  0.2618
10310TIP3    H152345   2.870   3.328   1.144  0.0767  0.3705  0.6267
10310TIP3    H252346   2.730   3.274   1.127  0.7016 -0.9307 -0.5000
10311TIP3   OH252347   5.136   1.102  16.040 -0.1417  0.1880  0.2586
10311TIP3    H152348   5.087   1.146  15.971  0.3012 -2.4637 -1.9268
10311TIP3    H252349   5.090   1.124  16.121 -2.8085  0.6647 -1.2837
10312TIP3   OH252350   1.999   5.295  13.358 -0.8579 -0.1319  0.1135
10312TIP3    H152351   2.031   5.266  13.273  0.0074  0.4547  0.2272
10312TIP3    H252352   1.959   5.380  13.341 -0.6484  0.0043  0.2989
10313TIP3   OH252353   1.752   6.063   0.535  0.6406 -0.2747  0.3555
10313TIP3    H152354   1.751   6.091   0.626 -1.6359 -0.8682  0.5813
10313TIP3    H252355   1.790   6.137   0.487  0.8154  0.5014  1.6467
10314TIP3   OH252356   2.475   0.101   6.399  0.0318 -0.4167 -0.7672
10314TIP3    H152357   2.481   0.017   6.443 -2.8310  0.8152  2.3872
10314TIP3    H252358   2.513   0.163   6.462 -1.5277  1.0980 -1.2617
10315TIP3   OH252359   2.036   5.209   0.445  0.3849  0.2167 -0.2354
10315TIP3    H152360   2.000   5.278   0.390  0.0240  0.7493  0.6443
10315TIP3    H252361   2.129   5.231   0.454  0.5175 -0.0594 -0.8943
10316TIP3   OH252362   0.859   4.148  17.258  0.1715  0.6285  0.2172
10316TIP3    H152363   0.927   4.157  17.325 -0.2721 -0.0589  0.7801
10316TIP3    H252364   0.785   4.199  17.292 -0.3834 -0.4795  0.7225
10317TIP3   OH252365   1.253   3.496   5.459 -0.3409  0.1553  0.0582
10317TIP3    H152366   1.248   3.546   5.378 -2.4849 -1.8566 -1.1797
10317TIP3    H252367   1.249   3.404   5.432 -1.8639 -0.5890  2.4165
10318TIP3   OH252368   2.091   4.373   4.489 -0.3924 -0.2600 -0.5172
10318TIP3    H152369   2.033   4.373   4.565 -2.4552  0.7109 -1.9783
10318TIP3    H252370   2.169   4.419   4.518 -1.4448  0.7713  0.8219
10319TIP3   OH252371   4.379   4.020  12.490  0.0802 -0.3417  0.3768
10319TIP3    H152372   4.290   3.998  12.515 -0.5211 -0.2347 -1.4885
10319TIP3    H252373   4.373   4.107  12.452  1.1406  0.0173  0.9749
10320TIP3   OH252374   2.550   0.448   3.456 -1.2044 -0.6234 -0.0605
10320TIP3    H152375   2.603   0.490   3.523  1.2360 -1.6930 -1.1657
10320TIP3    H252376   2.581   0.486   3.373 -2.0026 -1.4740 -0.7802
10321TIP3   OH252377   3.694   6.356   2.497 -0.2914 -0.4816 -0.1919
10321TIP3    H152378   3.744   6.379   2.418  0.8812  2.1002  1.1868
10321TIP3    H252379   3.750   6.293   2.543  0.6835  0.6623  0.2302
10322TIP3   OH252380   5.265   4.422   1.369 -0.4562  0.1390 -0.0135
10322TIP3    H152381   5.336   4.485   1.379 -0.2562  0.4550 -2.6216
10322TIP3    H252382   5.189   4.476   1.345 -1.0871 -0.3608  0.8359
10323TIP3   OH252383   5.351   3.744  15.083  0.4214 -0.3420 -1.0445
10323TIP3    H152384   5.359   3.700  15.167 -0.7365  0.6666 -0.3764
10323TIP3    H252385   5.405   3.822  15.091 -0.9593  0.6195 -0.5897
10324TIP3   OH252386   4.432   4.019   3.955  0.1610  0.3578 -0.0870
10324TIP3    H152387   4.374   3.943   3.946  0.0939 -0.0134  2.5472
10324TIP3    H252388   4.403   4.080   3.888  0.5363 -2.0716 -2.6760
10325TIP3   OH252389   0.342   1.845  16.241 -0.0308  0.1637  0.2057
10325TIP3    H152390   0.399   1.770  16.258 -0.1312 -0.0015 -0.1641
10325TIP3    H252391   0.318   1.835  16.149 -0.3376  0.4522  0.2557
10326TIP3   OH252392   5.710   5.698   0.212 -0.2599  0.3400  0.1647
10326TIP3    H152393   5.788   5.752   0.205  1.0669 -1.4877  0.2834
10326TIP3    H252394   5.716   5.637   0.138 -1.8836  0.5253 -0.1677
10327TIP3   OH252395   2.715   0.178  15.256  0.0771 -0.0933 -0.0462
10327TIP3    H152396   2.773   0.249  15.229  0.7031 -0.2717  0.7814
10327TIP3    H252397   2.760   0.098  15.229 -0.5989 -0.1884 -0.9241
10328TIP3   OH252398   3.618   2.084   2.119  0.1777 -0.1781  0.0792
10328TIP3    H152399   3.524   2.069   2.129  0.1868 -0.4981 -0.2975
10328TIP3    H252400   3.651   2.004   2.079 -0.0434  1.3097 -3.4783
10329TIP3   OH252401   0.490   1.974   2.674  0.8317  0.3519 -0.1735
10329TIP3    H152402   0.539   1.967   2.756  0.2132 -2.8214  0.0471
10329TIP3    H252403   0.558   1.981   2.607  1.5349 -1.1506  0.3319
10330TIP3   OH252404   3.059   2.515   5.453 -0.1952 -0.2811  0.0775
10330TIP3    H152405   3.080   2.475   5.538 -2.3049 -0.4090  0.5859
10330TIP3    H252406   3.021   2.600   5.476  0.5957  0.3379 -0.8355
10331TIP3   OH252407   1.198   4.035   2.997 -0.4415  0.4055 -0.1071
10331TIP3    H152408   1.136   3.962   2.995 -0.1348  0.1009  0.8211
10331TIP3    H252409   1.174   4.089   2.922  0.3875 -1.5269 -1.8490
10332TIP3   OH252410   5.049   6.339  15.744 -0.5694  0.1882  0.4020
10332TIP3    H152411   5.109   6.348  15.670 -1.3163  1.4082 -0.0914
10332TIP3    H252412   5.101   6.365  15.820 -0.4116  1.0999 -0.0017
10333TIP3   OH252413   5.215   2.196  12.715 -0.2389 -0.0637  0.3937
10333TIP3    H152414   5.253   2.255  12.650 -1.6338 -0.7579 -1.1145
10333TIP3    H252415   5.184   2.254  12.784  1.8763  0.6408  0.8396
10334TIP3   OH252416   3.866   2.720   3.695 -0.1718  0.8763 -0.2664
10334TIP3    H152417   3.839   2.630   3.708  0.2291  0.9705  1.4444
10334TIP3    H252418   3.950   2.727   3.739  1.3787  1.3249 -3.0377
10335TIP3   OH252419   0.961   5.394   0.546 -0.4504 -0.2439 -0.0996
10335TIP3    H152420   0.885   5.427   0.498  0.4633  1.1684 -0.6321
10335TIP3    H252421   0.994   5.470   0.594  0.9832 -0.6604 -0.3734
10336TIP3   OH252422   2.438   5.412  14.066  0.1263  0.6168 -0.0265
10336TIP3    H152423   2.374   5.482  14.075 -1.0442 -0.5700  1.4931
10336TIP3    H252424   2.394   5.334  14.102  2.4081 -0.2507  1.1192
10337TIP3   OH252425   5.043   5.356  14.022 -0.0059  0.6663  0.4848
10337TIP3    H152426   5.061   5.263  14.035 -0.1541  0.5185 -0.3185
10337TIP3    H252427   5.115   5.400  14.067 -0.7807  0.2257  2.2713
10338TIP3   OH252428   5.605   6.134   1.741 -0.2412 -0.4364  0.1899
10338TIP3    H152429   5.542   6.129   1.813 -0.0917 -0.4883  0.3174
10338TIP3    H252430   5.571   6.073   1.675  1.2383 -2.7823  1.4777
10339TIP3   OH252431   2.386   4.766   2.145  0.1339 -0.1389  0.2683
10339TIP3    H152432   2.460   4.753   2.205  0.4099 -0.5816 -0.1574
10339TIP3    H252433   2.337   4.684   2.150 -0.4280  0.2098  0.6685
10340TIP3   OH252434   2.628   2.859   3.655  0.4014 -0.2217 -0.3566
10340TIP3    H152435   2.673   2.936   3.620  1.7612 -0.5135  0.6747
10340TIP3    H252436   2.571   2.894   3.724  0.0154  0.0075 -0.7903
10341TIP3   OH252437   4.513   1.631   3.183 -0.1704 -0.0154  0.1892
10341TIP3    H152438   4.538   1.554   3.234  0.6007 -0.7016 -1.1674
10341TIP3    H252439   4.525   1.605   3.092 -0.3288  1.5698 -0.3236
10342TIP3   OH252440   1.289   0.964  12.125  0.4858  0.2281  0.1540
10342TIP3    H152441   1.232   1.036  12.099  0.0535 -0.1042  0.1780
10342TIP3    H252442   1.281   0.960  12.220  0.0365 -0.2447  0.0970
10343TIP3   OH252443   2.432   2.069  11.997  0.3604  0.0359  0.1597
10343TIP3    H152444   2.407   2.005  12.064  0.8127 -0.1765  0.1302
10343TIP3    H252445   2.453   2.149  12.046 -1.3796  0.5582  0.1143
10344TIP3   OH252446   3.832   1.655  11.813 -0.7997 -0.7979  0.2973
10344TIP3    H152447   3.745   1.691  11.799 -0.6764 -0.4053  0.5339
10344TIP3    H252448   3.862   1.631  11.726  0.4822  2.8152 -0.4532
10345TIP3   OH252449   4.309   4.432  13.291  0.2951  0.4174  0.2322
10345TIP3    H152450   4.338   4.345  13.264  0.5411  0.6695 -0.3240
10345TIP3    H252451   4.257   4.464  13.218 -0.6043  0.3526  0.8331
10346TIP3   OH252452   0.403   1.993  11.809  0.1228 -0.4438 -0.4824
10346TIP3    H152453   0.477   2.012  11.867 -1.0143 -0.6247  1.1248
10346TIP3    H252454   0.395   1.897  11.812 -0.1613 -0.4269 -0.6586
10347TIP3   OH252455   5.997   3.363  13.733 -0.2538 -0.5022  0.1851
10347TIP3    H152456   6.018   3.381  13.825  1.3198 -1.4222  0.0273
10347TIP3    H252457   6.002   3.268  13.725  1.3947 -0.3438 -1.2401
10348TIP3   OH252458   6.571   5.076  11.917  0.1350 -0.3594 -0.0792
10348TIP3    H152459   6.502   5.143  11.908 -1.7905 -2.1376  0.7894
10348TIP3    H252460   6.644   5.123  11.958 -0.2299  1.7513 -1.6167
10349TIP3   OH252461   1.442   2.471   5.001 -0.0864 -0.1764  0.2470
10349TIP3    H152462   1.506   2.438   4.939 -1.0622 -1.0496 -0.3443
10349TIP3    H252463   1.402   2.546   4.958  0.0697 -0.0453  0.3304
10350TIP3   OH252464   6.062   0.782  12.332 -0.2741 -0.1747  0.2370
10350TIP3    H152465   6.051   0.765  12.426 -0.8096  1.0527  0.4159
10350TIP3    H252466   6.154   0.804  12.323 -0.1578 -0.5667  0.4231
10351TIP3   OH252467   5.047   1.297  11.918 -0.0257  0.3496  0.3247
10351TIP3    H152468   5.110   1.311  11.989  0.3622  0.2821  0.0004
10351TIP3    H252469   5.016   1.207  11.930  1.9947 -0.6163 -1.0903
10352TIP3   OH252470   0.210   5.879  14.042 -0.2478  0.0312 -0.1937
10352TIP3    H152471   0.222   5.926  14.125  2.1355  2.6302 -1.8334
10352TIP3    H252472   0.126   5.910  14.010 -1.0175 -0.7061  1.0382
10353TIP3   OH252473   6.273   1.362  11.223  0.2535  0.5711 -0.2325
10353TIP3    H152474   6.334   1.373  11.150  0.0312 -0.3610 -0.5758
10353TIP3    H252475   6.274   1.268  11.242  1.6951  0.9927  2.2207
10354TIP3   OH252476   4.010   2.617   5.563 -0.3802 -0.1315  0.4484
10354TIP3    H152477   4.075   2.686   5.578 -0.1210 -0.1333 -0.6089
10354TIP3    H252478   4.020   2.558   5.638  2.7706 -1.6069 -0.9333
10355TIP3   OH252479   5.361   0.030   0.072 -0.3018 -1.0133 -0.6996
10355TIP3    H152480   5.320  -0.031   0.133 -0.7199 -0.9337 -0.8969
10355TIP3    H252481   5.397   0.100   0.127 -0.7540 -0.8959 -0.5527
10356TIP3   OH252482   2.282   0.569   5.211 -0.7336  0.0116 -0.4154
10356TIP3    H152483   2.370   0.532   5.203 -1.1584 -1.0639 -0.3097
10356TIP3    H252484   2.296   0.664   5.212  0.5548 -0.1465  1.1176
10357TIP3   OH252485   5.183   6.243   0.388 -1.1968  0.2472 -0.0026
10357TIP3    H152486   5.165   6.174   0.451  1.2963  0.3774  0.9611
10357TIP3    H252487   5.158   6.324   0.433  1.3009  0.4169  1.2804
10358TIP3   OH252488   4.230   4.276   6.369 -0.2152 -0.4181  0.6250
10358TIP3    H152489   4.137   4.295   6.375 -0.3818 -0.5957 -0.9016
10358TIP3    H252490   4.235   4.181   6.359 -0.1052 -0.2220 -1.9345
10359TIP3   OH252491   3.948   0.225   5.219  0.1501 -0.3324 -0.0107
10359TIP3    H152492   3.975   0.183   5.138  2.4195 -1.5971  1.3165
10359TIP3    H252493   3.957   0.319   5.202  3.0471 -0.6222 -0.4949
10360TIP3   OH252494   4.425   4.424  13.831 -0.2329 -0.0949  0.6305
10360TIP3    H152495   4.477   4.494  13.793 -0.2313  0.6845  2.0237
10360TIP3    H252496   4.334   4.452  13.819 -0.2474 -0.0723  0.7955
10361TIP3   OH252497   3.957   0.296   3.434  0.2239 -0.4994  0.1080
10361TIP3    H152498   3.914   0.231   3.379  0.0466 -0.0313 -0.3206
10361TIP3    H252499   3.886   0.333   3.487  0.2826 -0.4920  0.1811
10362TIP3   OH252500   3.376   4.779  15.723  0.0227  0.1120  0.3380
10362TIP3    H152501   3.294   4.730  15.715  0.6000 -0.9629  0.7741
10362TIP3    H252502   3.357   4.864  15.684 -0.8578 -0.6443 -0.9706
10363TIP3   OH252503   5.965   3.787  14.223 -0.1845  0.1942  0.2348
10363TIP3    H152504   5.872   3.768  14.232  0.1220 -1.0533  1.0911
10363TIP3    H252505   6.000   3.778  14.312  1.1574 -1.8943 -0.4154
10364TIP3   OH252506   0.536   2.397  16.491  0.4481 -0.0381 -0.0909
10364TIP3    H152507   0.560   2.330  16.555  0.0048  0.3103  0.4461
10364TIP3    H252508   0.443   2.381  16.473  1.3083 -2.4196 -3.3824
10365TIP3   OH252509   5.695   0.828  16.274  0.1892 -0.7359 -0.1689
10365TIP3    H152510   5.742   0.815  16.356  1.0293 -1.1891 -0.7061
10365TIP3    H252511   5.603   0.811  16.296  0.5297 -1.8805  0.4517
10366TIP3   OH252512   0.022   3.195   3.095 -0.1827  0.2414  0.2095
10366TIP3    H152513   0.080   3.267   3.122 -1.4935  1.4352 -0.0669
10366TIP3    H252514   0.010   3.208   3.001  0.3427 -0.9476 -0.0481
10367TIP3   OH252515   3.270   0.118  11.659 -0.3309  0.2521 -0.2197
10367TIP3    H152516   3.215   0.039  11.664  0.0109  0.0835  1.3687
10367TIP3    H252517   3.217   0.180  11.610 -1.3799 -0.3719  0.0764
10368TIP3   OH252518   3.973   2.206  11.606  0.3923 -0.5808  0.1844
10368TIP3    H152519   3.943   2.240  11.690  0.1526  0.6391 -0.3786
10368TIP3    H252520   4.030   2.275  11.571 -0.6503 -0.4142 -1.2980
10369TIP3   OH252521   0.342   0.916  12.391 -0.3629 -0.1920  0.2006
10369TIP3    H152522   0.267   0.890  12.338 -0.3851  1.7802 -0.7921
10369TIP3    H252523   0.377   0.833  12.425 -2.4268 -1.2161 -0.0376
10370TIP3   OH252524   4.738   6.488  12.625 -0.2215  0.3994  1.0296
10370TIP3    H152525   4.771   6.566  12.580  2.1919 -1.7608 -1.3168
10370TIP3    H252526   4.814   6.452  12.671 -1.0595 -0.9505  1.4341
10371TIP3   OH252527   3.865   5.838  14.295 -0.2341  0.3334  0.3574
10371TIP3    H152528   3.951   5.798  14.278 -1.1932 -1.4214 -0.5990
10371TIP3    H252529   3.862   5.915  14.238 -0.7178 -1.6803 -2.5085
10372TIP3   OH252530   3.951   5.408  16.786 -0.2586  0.2101  0.1591
10372TIP3    H152531   4.003   5.487  16.773  0.8582 -0.6296 -0.7976
10372TIP3    H252532   3.997   5.359  16.854  0.1022 -0.4349 -0.5322
10373TIP3   OH252533   6.226   1.490  14.451  0.1412 -0.0186 -0.1852
10373TIP3    H152534   6.248   1.438  14.374 -0.2390 -0.8674  0.2622
10373TIP3    H252535   6.150   1.541  14.425 -0.0983 -0.4390 -0.3189
10374TIP3   OH252536   1.488   4.481   0.510  0.0582 -0.1457 -0.0560
10374TIP3    H152537   1.569   4.531   0.521  1.2287 -2.0010  0.1656
10374TIP3    H252538   1.517   4.390   0.502 -1.9310 -0.7256 -1.2537
10375TIP3   OH252539   3.374   3.951   5.368 -0.0552  0.5620  0.3434
10375TIP3    H152540   3.279   3.948   5.354  0.1053  0.7340 -0.9260
10375TIP3    H252541   3.387   3.913   5.454 -1.0763 -1.6569 -0.4069
10376TIP3   OH252542   5.591   0.114   2.380  0.1695  0.5217  0.0523
10376TIP3    H152543   5.507   0.092   2.339 -0.4337  1.1802  0.8793
10376TIP3    H252544   5.592   0.210   2.382 -0.4694  0.5516  2.7427
10377TIP3   OH252545   5.137   1.498   5.711 -0.4710 -0.7580 -0.1562
10377TIP3    H152546   5.067   1.435   5.725 -1.3417 -0.3336 -2.2790
10377TIP3    H252547   5.201   1.452   5.657 -0.2812 -0.3914 -0.2496
10378TIP3   OH252548   4.331   0.399  15.902  0.1680  0.2652 -0.2921
10378TIP3    H152549   4.310   0.361  15.987  2.2696 -0.4241 -0.0265
10378TIP3    H252550   4.398   0.465  15.921  0.4489  0.3121 -1.3862
10379TIP3   OH252551   1.662   3.690   6.272 -0.8162  0.1940  0.6626
10379TIP3    H152552   1.634   3.635   6.345 -1.5541  0.7693  0.8175
10379TIP3    H252553   1.622   3.650   6.195 -1.6748  0.7172  0.8216
10380TIP3   OH252554   4.701   6.230  13.792  0.4145  0.3726 -0.6803
10380TIP3    H152555   4.636   6.188  13.848  2.1503 -0.4616  0.8212
10380TIP3    H252556   4.746   6.158  13.748  2.5022  0.6253  0.8734
10381TIP3   OH252557   4.832   1.190   4.974  0.1360 -0.0237 -0.3600
10381TIP3    H152558   4.889   1.114   4.971  1.3577  0.8962 -1.5582
10381TIP3    H252559   4.874   1.255   4.917 -2.1014  0.7029 -1.3061
10382TIP3   OH252560   1.464   0.443   3.968  0.0317  0.4317 -0.0834
10382TIP3    H152561   1.539   0.498   3.991  0.8240 -0.8695  0.5761
10382TIP3    H252562   1.443   0.467   3.878  1.5161  0.5348 -0.4237
10383TIP3   OH252563   1.726   0.541  12.687  0.4370  0.5196 -0.0188
10383TIP3    H152564   1.818   0.525  12.708  0.1148  0.3615  1.3475
10383TIP3    H252565   1.722   0.532  12.592  1.4626 -1.5051  0.0651
10384TIP3   OH252566   2.598   4.050   2.872  0.1877  0.2996 -0.1995
10384TIP3    H152567   2.521   4.006   2.908  0.3111  1.0955  1.0980
10384TIP3    H252568   2.582   4.143   2.887  2.1775  0.4078  1.7679
10385TIP3   OH252569   0.906   0.608   1.676 -0.3634 -0.1427 -0.2484
10385TIP3    H152570   0.935   0.517   1.675 -1.2637 -0.4882  1.2891
10385TIP3    H252571   0.817   0.605   1.642 -1.2074 -0.2127  1.8015
10386TIP3   OH252572   0.119   3.468   4.817 -0.1445  0.0096 -0.4053
10386TIP3    H152573   0.202   3.507   4.845  0.6152 -0.8910 -1.3324
10386TIP3    H252574   0.144   3.391   4.765 -1.5307  0.4670 -1.8342
10387TIP3   OH252575   4.661   2.570  15.722  0.5149 -0.4994 -0.4489
10387TIP3    H152576   4.618   2.556  15.638  1.4041  0.1832 -1.0398
10387TIP3    H252577   4.649   2.663  15.741 -1.2456 -0.9912  1.0997
10388TIP3   OH252578   0.944   1.030  17.321 -0.5691  0.4769  0.2016
10388TIP3    H152579   1.011   0.987  17.268  0.4797  2.3374 -0.0555
10388TIP3    H252580   0.961   1.001  17.410  0.6141  0.9160  0.1401
10389TIP3   OH252581   3.910   0.425  16.633 -0.0613  0.3976  0.8114
10389TIP3    H152582   3.978   0.484  16.603 -0.0612  0.2328  0.4773
10389TIP3    H252583   3.837   0.439  16.573  0.5395 -1.1497 -0.3661
10390TIP3   OH252584   3.465   1.171  17.086  0.4528 -0.0914  0.0861
10390TIP3    H152585   3.481   1.132  17.000  0.4203  1.0790 -0.4725
10390TIP3    H252586   3.532   1.133  17.143  1.6234  0.4419 -0.8853
10391TIP3   OH252587   3.825   3.135   5.071 -0.3566  0.6712  0.2922
10391TIP3    H152588   3.823   3.051   5.025  1.2084  0.1973  1.0178
10391TIP3    H252589   3.890   3.187   5.024  0.1928  0.7043  1.0585
10392TIP3   OH252590   3.719   2.812  11.223 -0.4640  0.1991 -0.0780
10392TIP3    H152591   3.722   2.741  11.158 -1.0796 -0.9797  1.1356
10392TIP3    H252592   3.773   2.781  11.295 -0.6674  1.0139  0.4400
10393TIP3   OH252593   6.339   5.850   2.033 -0.0096  0.3817 -1.2905
10393TIP3    H152594   6.324   5.821   2.123  1.6924  0.6290 -0.8748
10393TIP3    H252595   6.308   5.778   1.978 -0.6794  0.0551 -0.4877
10394TIP3   OH252596   0.043   6.575  11.744 -0.6312 -0.3793 -0.1720
10394TIP3    H152597   0.034   6.616  11.658  0.0947 -1.5799 -0.8502
10394TIP3    H252598   0.026   6.482  11.728 -0.6137 -0.5990  1.0125
10395TIP3   OH252599   0.529   2.893   6.059 -0.5407  0.0160 -0.4573
10395TIP3    H152600   0.535   2.933   6.146  0.7663 -0.4542 -0.3020
10395TIP3    H252601   0.488   2.808   6.075  0.2659 -0.3314 -0.1947
10396TIP3   OH252602   1.421   5.145  13.921  0.3335 -0.1503  0.1316
10396TIP3    H152603   1.497   5.193  13.888 -0.0991 -0.2820 -1.1214
10396TIP3    H252604   1.416   5.169  14.013  1.3298  0.6054  0.0121
10397TIP3   OH252605   2.933   0.939  13.365 -0.4249  0.0839  0.4374
10397TIP3    H152606   2.856   0.990  13.341 -0.5009  0.0275  0.5614
10397TIP3    H252607   2.906   0.891  13.444  0.2131  1.1599  1.3274
10398TIP3   OH252608   4.271   4.385  17.324  0.2832  0.0396 -0.7754
10398TIP3    H152609   4.277   4.476  17.350  0.9970 -0.0542 -0.5884
10398TIP3    H252610   4.200   4.382  17.259 -1.1489  0.3669  0.7288
10399TIP3   OH252611   3.842   2.080   3.251 -0.1596 -0.0426 -0.4886
10399TIP3    H152612   3.822   2.023   3.325 -1.0354  0.1927 -0.5344
10399TIP3    H252613   3.921   2.042   3.212 -1.6872 -2.2850 -1.5881
10400TIP3   OH252614   4.727   0.631  15.864  0.0127  0.2485 -1.0287
10400TIP3    H152615   4.750   0.645  15.772 -0.6079  0.9120 -1.0999
10400TIP3    H252616   4.782   0.693  15.912  2.0008 -1.6579 -0.7105
10401TIP3   OH252617   1.457   2.741  12.304  0.2253  0.3951 -0.1767
10401TIP3    H152618   1.398   2.676  12.342  1.3573 -0.9100 -0.5870
10401TIP3    H252619   1.526   2.752  12.370 -0.5240  2.0826  0.4026
10402TIP3   OH252620   4.352   0.135   4.327 -0.2973 -0.2801  0.5774
10402TIP3    H152621   4.358   0.228   4.303 -0.2540 -0.5743 -0.5949
10402TIP3    H252622   4.282   0.101   4.271  0.9210 -1.3553 -0.3414
10403TIP3   OH252623   0.419   1.526  15.812 -0.3850  0.0288 -0.1840
10403TIP3    H152624   0.476   1.522  15.735 -1.7665  2.0322 -1.3865
10403TIP3    H252625   0.353   1.458  15.796 -0.5445  0.2944 -0.6589
10404TIP3   OH252626   4.517   5.551  13.629  0.8592 -0.0149 -0.2020
10404TIP3    H152627   4.495   5.570  13.538 -1.4597 -0.1719  0.2749
10404TIP3    H252628   4.433   5.538  13.672  1.8821  0.3697  2.0545
10405TIP3   OH252629   3.755   2.276  12.091 -0.0358  0.3931 -0.1518
10405TIP3    H152630   3.701   2.301  12.166  0.2459  1.8303 -0.4027
10405TIP3    H252631   3.696   2.283  12.016  0.5436  2.2992 -0.4710
10406TIP3   OH252632   5.039   0.557  17.224 -0.0348  0.1952  0.1254
10406TIP3    H152633   5.081   0.587  17.143 -1.4663  3.3885  0.3914
10406TIP3    H252634   5.093   0.594  17.293  0.2408 -1.1138  0.6373
10407TIP3   OH252635   6.670   5.664  14.601 -0.1395 -0.3308 -0.4503
10407TIP3    H152636   6.648   5.738  14.657 -0.1381 -1.7036  1.4639
10407TIP3    H252637   6.763   5.675  14.581 -0.0741  0.0442  0.0527
10408TIP3   OH252638   2.871   6.474  12.318  0.0341 -0.3257  0.7430
10408TIP3    H152639   2.910   6.396  12.280  0.5118  1.1239 -1.9844
10408TIP3    H252640   2.781   6.447  12.340  0.5874 -1.9676  1.1169
10409TIP3   OH252641   4.536   3.392   5.617  0.2114  0.3168  0.2907
10409TIP3    H152642   4.629   3.413   5.629  0.0583  1.5010 -0.3988
10409TIP3    H252643   4.494   3.478   5.606 -1.2075 -0.0851  2.1595
10410TIP3   OH252644   4.517   3.120   5.263 -0.2632 -0.4362  0.2172
10410TIP3    H152645   4.524   3.025   5.250 -0.0403 -0.5662  1.2695
10410TIP3    H252646   4.423   3.135   5.274 -0.1988 -0.7097  1.2638
10411TIP3   OH252647   5.772   4.036  16.328  0.7428 -0.1958 -0.0629
10411TIP3    H152648   5.739   3.952  16.296  0.2713  0.1314 -0.4413
10411TIP3    H252649   5.700   4.073  16.377  1.3420 -0.5301  1.1153
10412TIP3   OH252650   3.072   2.293   0.918  0.2789  0.1352 -0.1882
10412TIP3    H152651   3.005   2.358   0.899 -0.1046 -0.0947  0.3294
10412TIP3    H252652   3.033   2.238   0.986  1.2179  0.3471  0.5474
10413TIP3   OH252653   6.447   4.443   1.023  0.4214  1.1140  0.3412
10413TIP3    H152654   6.441   4.538   1.035 -0.3691  1.1045  0.1102
10413TIP3    H252655   6.462   4.408   1.110  1.1021  1.4739  0.3762
10414TIP3   OH252656   2.678   5.868  11.513 -0.1992 -0.0840 -0.1653
10414TIP3    H152657   2.682   5.825  11.599  0.2697  0.7186  0.2285
10414TIP3    H252658   2.723   5.807  11.454  0.6875 -0.0251  0.4291
10415TIP3   OH252659   1.488   3.958   2.071 -0.5871 -0.4963  0.1909
10415TIP3    H152660   1.579   3.939   2.095 -0.4254 -1.3370 -1.0006
10415TIP3    H252661   1.442   3.876   2.084 -1.2379 -0.0083  1.0197
10416TIP3   OH252662   6.403   1.744   6.289  0.5419  0.1759 -0.4422
10416TIP3    H152663   6.451   1.825   6.309  2.0251 -0.4348 -1.3684
10416TIP3    H252664   6.456   1.675   6.328 -0.2300 -0.4338 -0.4569
10417TIP3   OH252665   5.929   1.532   5.687 -0.2041 -0.1242  1.2975
10417TIP3    H152666   5.935   1.606   5.626 -0.8278 -1.6743 -0.7776
10417TIP3    H252667   5.919   1.572   5.773 -0.0666  2.1898  0.3072
10418TIP3   OH252668   1.947   0.055  15.917  0.7466  0.1685 -0.3105
10418TIP3    H152669   2.023   0.110  15.898 -0.1192  0.8170 -2.1368
10418TIP3    H252670   1.884   0.115  15.956  1.8268 -0.7831  3.2221
10419TIP3   OH252671   1.994   1.609   4.877  0.1122 -0.1903  0.0684
10419TIP3    H152672   1.934   1.633   4.806  0.3084 -0.4782 -0.1968
10419TIP3    H252673   2.080   1.604   4.835  0.1439 -0.9358  0.2055
10420TIP3   OH252674   6.165   5.401   5.889 -0.6698  0.0664 -0.3624
10420TIP3    H152675   6.233   5.423   5.826  2.5509 -1.3734  2.3516
10420TIP3    H252676   6.101   5.350   5.838  1.7062 -0.9711 -2.5008
10421TIP3   OH252677   5.942   6.550   0.010 -0.0731 -0.0399 -0.2172
10421TIP3    H152678   5.924   6.471  -0.041 -0.4234  1.1496 -2.0350
10421TIP3    H252679   5.870   6.555   0.072  0.3964 -1.5677  0.5077
10422TIP3   OH252680   1.354   4.338  16.846 -0.6885 -0.5160  0.0777
10422TIP3    H152681   1.334   4.355  16.754 -0.9114 -0.3911  0.1474
10422TIP3    H252682   1.423   4.401  16.868 -0.7154 -0.4683  0.0268
10423TIP3   OH252683   5.598   1.787  14.066  0.3019  0.5311 -0.2145
10423TIP3    H152684   5.545   1.865  14.050  1.3012  1.1050 -0.8802
10423TIP3    H252685   5.535   1.717  14.079 -0.6252  1.5111  0.7366
10424TIP3   OH252686   2.341   6.132   0.452 -0.4285 -0.5199 -0.3793
10424TIP3    H152687   2.246   6.118   0.452 -0.2559 -1.8955  0.4390
10424TIP3    H252688   2.352   6.226   0.466 -1.6648 -0.4601  0.2566
10425TIP3   OH252689   6.049   5.702   1.423 -0.5759 -0.1134  0.8325
10425TIP3    H152690   6.118   5.765   1.401 -1.6987  0.3285 -1.8343
10425TIP3    H252691   6.095   5.622   1.444  0.7970  0.5807  0.5674
10426TIP3   OH252692   5.673   1.347   4.532  0.6217  0.4951  0.0153
10426TIP3    H152693   5.763   1.336   4.502  0.4737  2.1997 -1.1913
10426TIP3    H252694   5.621   1.297   4.469  0.7542 -1.6341  1.4908
10427TIP3   OH252695   0.125   0.210   2.362  0.3410 -0.0135  0.7190
10427TIP3    H152696   0.076   0.266   2.300 -2.0448  0.7447  3.0983
10427TIP3    H252697   0.200   0.263   2.387  0.2750  0.4726 -0.0693
10428TIP3   OH252698   3.265   2.827  13.104 -0.0193 -0.0920  0.3621
10428TIP3    H152699   3.212   2.759  13.062  1.2653  0.3547 -2.1524
10428TIP3    H252700   3.330   2.778  13.155  0.2159 -0.7570 -0.5494
10429TIP3   OH252701   5.387   0.475  11.073  0.1596  0.3780 -0.1243
10429TIP3    H152702   5.433   0.528  11.008  0.1999  1.6493  0.8824
10429TIP3    H252703   5.294   0.486  11.052  0.1592  0.9969  0.1465
10430TIP3   OH252704   0.701   1.451   0.029 -0.1962 -0.4611 -0.5976
10430TIP3    H152705   0.722   1.508   0.103 -1.3014  0.2161 -0.7723
10430TIP3    H252706   0.770   1.384   0.029 -0.4615 -0.8116  1.3818
10431TIP3   OH252707   2.520   3.123   5.315  0.1653 -0.4537  0.8351
10431TIP3    H152708   2.468   3.044   5.304  2.6575 -1.9766 -0.8287
10431TIP3    H252709   2.523   3.163   5.228  2.0530 -0.6346  0.7801
10432TIP3   OH252710   3.840   0.526   0.116 -0.5873 -0.0032 -0.9204
10432TIP3    H152711   3.883   0.441   0.114  0.0856  0.2211  1.2552
10432TIP3    H252712   3.877   0.570   0.192 -2.7792  1.2329 -0.4689
10433TIP3   OH252713   4.067   1.469  13.770 -0.1134 -0.2601 -0.1366
10433TIP3    H152714   4.120   1.439  13.696 -0.3466 -1.0855  0.0169
10433TIP3    H252715   4.097   1.415  13.844  0.6773  1.1035  0.5640
10434TIP3   OH252716   5.394   1.426   3.318 -0.1747 -0.1002  0.5872
10434TIP3    H152717   5.389   1.340   3.276  0.6038  0.3202 -0.3968
10434TIP3    H252718   5.399   1.406   3.412 -0.4908 -1.1016  0.4067
10435TIP3   OH252719   0.407   1.975  13.790  0.1293  0.1634 -0.1879
10435TIP3    H152720   0.459   2.054  13.805 -0.5499  0.5540  0.1661
10435TIP3    H252721   0.465   1.903  13.814  0.4659  0.5943  0.3147
10436TIP3   OH252722   6.302   6.205  16.124 -0.0682 -0.2224  0.1667
10436TIP3    H152723   6.383   6.157  16.137  0.6850  0.5099 -1.5791
10436TIP3    H252724   6.329   6.296  16.111 -1.3375  0.4177  1.6047
10437TIP3   OH252725   3.354   0.723   4.168 -0.3009 -0.1494  0.0126
10437TIP3    H152726   3.326   0.734   4.259  1.9218  0.1387  0.7283
10437TIP3    H252727   3.404   0.803   4.149  1.0217 -1.1310 -0.7471
10438TIP3   OH252728   2.653   3.835   3.073  0.2747 -0.9498 -0.0986
10438TIP3    H152729   2.660   3.740   3.072 -2.2071 -1.2866  2.2081
10438TIP3    H252730   2.559   3.852   3.079  0.6806  1.6351  0.2001
10439TIP3   OH252731   3.030   5.962   5.483 -0.4038  0.1968 -0.3027
10439TIP3    H152732   2.942   6.001   5.483 -0.9910 -1.0281 -1.2058
10439TIP3    H252733   3.080   6.014   5.546 -2.2715 -0.1525  1.5906
10440TIP3   OH252734   3.858   0.055  16.955  0.2765  0.3477 -0.3189
10440TIP3    H152735   3.771   0.093  16.966 -0.4825 -1.5834  1.0630
10440TIP3    H252736   3.842  -0.033  16.920  1.7849  0.4214 -1.3035
10441TIP3   OH252737   2.977   4.663  13.832 -0.2654 -0.2416 -0.0725
10441TIP3    H152738   2.972   4.706  13.746 -1.5998 -2.0586 -0.9912
10441TIP3    H252739   2.890   4.672  13.868 -0.0452 -0.5561  0.5439
10442TIP3   OH252740   1.731   0.260  15.985  0.2686 -0.1845 -0.6895
10442TIP3    H152741   1.704   0.252  16.076  0.7886 -1.3327 -0.6267
10442TIP3    H252742   1.652   0.243  15.934 -0.0887  0.7372 -0.4712
10443TIP3   OH252743   5.437   1.822  16.849  0.1671  0.0142  0.3730
10443TIP3    H152744   5.458   1.795  16.939 -0.3633 -0.7032  0.2837
10443TIP3    H252745   5.347   1.793  16.835 -0.1902  1.2087  0.0250
10444TIP3   OH252746   4.983   2.761   3.265  0.0172  0.5548 -0.2017
10444TIP3    H152747   4.923   2.835   3.254  0.2732  0.6763 -0.8583
10444TIP3    H252748   5.066   2.792   3.229  0.1909  0.0270 -0.2688
10445TIP3   OH252749   0.683   5.078   1.377 -0.0777 -0.2830  0.0449
10445TIP3    H152750   0.644   5.155   1.336 -0.7561 -0.7380 -0.1918
10445TIP3    H252751   0.729   5.033   1.305  0.3939 -0.0570  0.2006
10446TIP3   OH252752   5.512   3.303   1.303  0.1219 -0.2710 -0.4453
10446TIP3    H152753   5.527   3.226   1.358  0.4433 -0.0628 -0.2372
10446TIP3    H252754   5.595   3.351   1.305  0.0100 -0.0573 -0.7929
10447TIP3   OH252755   3.996   0.600  16.363 -0.0355  0.3783  0.1296
10447TIP3    H152756   4.066   0.653  16.401  1.1507 -0.8074 -0.2915
10447TIP3    H252757   4.023   0.509  16.380 -0.6545 -0.1322 -1.4126
10448TIP3   OH252758   2.998   1.480  12.655 -0.3327 -0.1050 -0.4126
10448TIP3    H152759   3.033   1.464  12.568  2.0005 -1.4509  0.6888
10448TIP3    H252760   2.936   1.409  12.670 -0.0256 -0.4174 -0.6225
10449TIP3   OH252761   5.387   3.618   3.995  0.2485 -0.7490  0.2754
10449TIP3    H152762   5.413   3.660   4.077  0.8368 -0.3372 -0.1231
10449TIP3    H252763   5.362   3.529   4.021 -0.8583 -0.2189  1.0989
10450TIP3   OH252764   4.302   2.082  15.996  0.6682 -0.1911 -0.0146
10450TIP3    H152765   4.239   2.018  15.962 -0.9151  0.4727  1.5576
10450TIP3    H252766   4.264   2.167  15.974  0.6286  0.2284  1.5571
10451TIP3   OH252767   2.711   2.294  14.259 -0.7085 -0.1215 -0.2534
10451TIP3    H152768   2.661   2.251  14.328  2.1696 -2.0019  0.8388
10451TIP3    H252769   2.736   2.224  14.200  0.5180  0.7286 -0.7953
10452TIP3   OH252770   2.890   4.279  14.609  0.0845  0.7817 -0.0900
10452TIP3    H152771   2.800   4.302  14.584  0.0436 -0.1769 -0.8676
10452TIP3    H252772   2.889   4.282  14.704 -0.5995  1.4251 -0.1029
10453TIP3   OH252773   6.459   5.072  16.651 -0.3016  0.0616 -0.3557
10453TIP3    H152774   6.476   5.040  16.739 -0.0178  0.7561 -0.1590
10453TIP3    H252775   6.545   5.089  16.613 -0.3917 -0.7751 -0.9796
10454TIP3   OH252776   6.151   3.307  14.607 -0.0226 -0.3494 -0.0169
10454TIP3    H152777   6.154   3.333  14.699 -0.2698 -0.9175  0.1561
10454TIP3    H252778   6.185   3.383  14.559 -0.8689  0.3395  0.4575
10455TIP3   OH252779   1.041   6.547   6.093 -0.4574  0.5563  0.4455
10455TIP3    H152780   1.092   6.627   6.087 -0.6757  0.6419 -0.2673
10455TIP3    H252781   1.068   6.508   6.177  0.8624  0.5411  0.0343
10456TIP3   OH252782   2.534   0.325  14.628  0.1786 -0.3706 -0.0325
10456TIP3    H152783   2.510   0.243  14.671 -1.1934 -0.8794 -1.6467
10456TIP3    H252784   2.512   0.393  14.691 -2.8779 -1.0134 -0.2597
10457TIP3   OH252785   0.785   3.888  11.986 -0.1712 -0.0538 -0.1824
10457TIP3    H152786   0.822   3.966  12.028 -0.2912  0.0439 -0.2581
10457TIP3    H252787   0.739   3.842  12.056  0.6156 -0.4986  0.0531
10458TIP3   OH252788   5.759   4.424   4.774 -0.2499 -0.6040 -0.1616
10458TIP3    H152789   5.721   4.342   4.741 -0.4779 -0.4956 -0.1708
10458TIP3    H252790   5.743   4.487   4.704  1.1442 -0.8684 -0.7492
10459TIP3   OH252791   4.333   1.009  11.847  0.3851 -0.3465 -0.1786
10459TIP3    H152792   4.247   1.006  11.804  1.0934  0.1570 -1.7022
10459TIP3    H252793   4.393   1.036  11.778  1.3691  2.0762  1.4800
10460TIP3   OH252794   3.956   4.344   5.175 -0.5849  0.2057  0.6270
10460TIP3    H152795   4.016   4.416   5.157 -0.3961  0.0798  0.7602
10460TIP3    H252796   3.985   4.273   5.116 -0.1713 -0.0944  1.1875
10461TIP3   OH252797   5.243   3.833  14.450 -0.0170  0.1307 -0.2456
10461TIP3    H152798   5.181   3.884  14.502 -1.6519  0.7705 -2.6533
10461TIP3    H252799   5.309   3.896  14.421  0.4704 -0.0728  0.3963
10462TIP3   OH252800   6.437   6.432  11.564  0.2156  0.1141 -0.2150
10462TIP3    H152801   6.530   6.454  11.568  0.1001  0.5286  0.2776
10462TIP3    H252802   6.395   6.511  11.530 -0.2071  0.6892  1.5803
10463TIP3   OH252803   1.723   6.579   2.692 -0.4672  0.2157  0.2907
10463TIP3    H152804   1.746   6.605   2.603  1.3314 -1.2852  0.2465
10463TIP3    H252805   1.807   6.558   2.733 -1.3285  0.0775  2.0919
10464TIP3   OH252806   4.678   4.997  12.843  0.4509  0.3294  0.2328
10464TIP3    H152807   4.645   4.929  12.901  1.5668 -0.6208 -0.2000
10464TIP3    H252808   4.772   4.980  12.837  1.1595  3.1524  1.7321
10465TIP3   OH252809   3.451   3.348  14.042  0.0670  0.1617 -0.4612
10465TIP3    H152810   3.490   3.421  14.089  2.1410 -1.2740  0.2363
10465TIP3    H252811   3.370   3.329  14.089 -0.7138  2.1991 -0.9043
10466TIP3   OH252812   0.090   3.733  14.843  0.6345 -0.4262  0.2513
10466TIP3    H152813   0.106   3.746  14.749 -0.3349 -2.2435 -0.2119
10466TIP3    H252814   0.002   3.768  14.857  0.5505 -0.6816  0.3615
10467TIP3   OH252815   2.765   0.984  15.154  0.1251  0.0993  0.7739
10467TIP3    H152816   2.738   0.971  15.063  0.9908 -1.0244  0.6642
10467TIP3    H252817   2.692   0.951  15.206 -0.7926  1.6251  0.5229
10468TIP3   OH252818   0.804   0.307   4.073  0.0641 -0.5192  0.2604
10468TIP3    H152819   0.762   0.380   4.119  1.8511  0.4722  0.4399
10468TIP3    H252820   0.757   0.300   3.990 -0.2564  0.7409  0.3093
10469TIP3   OH252821   0.104   0.663  13.810 -0.4236 -0.0208 -0.7617
10469TIP3    H152822   0.175   0.704  13.760 -1.1296  1.1016 -0.8769
10469TIP3    H252823   0.141   0.651  13.898 -0.1625  0.7916 -0.7514
10470TIP3   OH252824   4.113   6.010   0.763  0.6814  0.1087  0.4797
10470TIP3    H152825   4.063   6.086   0.730  1.1586  0.3785  0.3716
10470TIP3    H252826   4.083   5.937   0.709  0.3762  0.2594  0.4383
10471TIP3   OH252827   2.073   6.714  13.866  0.0823 -0.0422 -0.0344
10471TIP3    H152828   1.989   6.743  13.901  0.3206 -0.1954  0.6748
10471TIP3    H252829   2.072   6.619  13.876 -0.3652 -0.2391 -1.6167
10472TIP3   OH252830   3.847   4.066  12.916  0.3412 -0.8622  0.2540
10472TIP3    H152831   3.832   4.036  12.826  1.7965  0.2121 -0.3941
10472TIP3    H252832   3.766   4.111  12.940  0.4570  0.1469 -1.1106
10473TIP3   OH252833   1.340   6.525  16.939  0.1212 -0.1407 -0.8160
10473TIP3    H152834   1.431   6.553  16.947  0.1478 -0.5174  0.3832
10473TIP3    H252835   1.346   6.438  16.899  0.2620  0.0362 -1.1778
10474TIP3   OH252836   5.999   0.889  16.371  0.5637  0.3110  0.5637
10474TIP3    H152837   6.064   0.944  16.416 -0.7686  1.1786  1.5099
10474TIP3    H252838   6.048   0.846  16.301  1.7968  2.3433  0.0832
10475TIP3   OH252839   1.471   0.965   0.398  0.1634 -0.1810  0.1725
10475TIP3    H152840   1.455   1.032   0.332 -0.0366 -0.4449 -0.0469
10475TIP3    H252841   1.405   0.898   0.381 -1.8489  1.0221  2.4054
10476TIP3   OH252842   5.471   1.228  16.110 -0.1418 -0.1985 -0.0214
10476TIP3    H152843   5.512   1.277  16.038 -1.9151 -1.0834 -1.7138
10476TIP3    H252844   5.510   1.265  16.189  2.0835  0.6586 -1.4099
10477TIP3   OH252845   6.607   3.843   1.569  0.4412 -0.5398  0.6363
10477TIP3    H152846   6.561   3.926   1.577  0.5848 -0.3167 -0.6405
10477TIP3    H252847   6.700   3.865   1.580  0.5817 -0.3286 -0.7137
10478TIP3   OH252848   1.624   4.348  14.753  0.6266  0.1424 -0.6561
10478TIP3    H152849   1.668   4.338  14.668  0.4805  0.7619 -0.8085
10478TIP3    H252850   1.596   4.439  14.754 -0.3524 -0.1546 -0.4121
10479TIP3   OH252851   5.423   0.052  14.110 -0.1319  0.0787 -0.3189
10479TIP3    H152852   5.419  -0.040  14.083 -0.5564  0.0344 -0.1029
10479TIP3    H252853   5.370   0.098  14.045 -0.3883  0.0946 -0.0992
10480TIP3   OH252854   4.085   0.369   4.850  0.5075  0.4505  0.1036
10480TIP3    H152855   4.167   0.354   4.802  0.0214 -0.4366 -0.4810
10480TIP3    H252856   4.098   0.324   4.934 -0.1221 -1.5201 -0.7934
10481TIP3   OH252857   2.810   5.161  16.547 -0.1754 -0.0101  0.0162
10481TIP3    H152858   2.826   5.101  16.474 -1.1660  0.1283 -0.3302
10481TIP3    H252859   2.897   5.192  16.572  0.2065 -0.3118 -0.8922
10482TIP3   OH252860   5.519   3.636   5.601 -0.3057  0.4298  0.3288
10482TIP3    H152861   5.540   3.698   5.671 -1.3662  1.1157  0.0678
10482TIP3    H252862   5.553   3.552   5.632 -1.9461  0.4240  2.3112
10483TIP3   OH252863   2.520   6.660  11.433 -0.3343  0.2772  0.1683
10483TIP3    H152864   2.459   6.588  11.448  1.3745 -1.2178  0.2425
10483TIP3    H252865   2.542   6.654  11.340 -1.1811  1.5668 -0.1384
10484TIP3   OH252866   4.685   1.240   1.655 -0.3337  0.1725  0.1418
10484TIP3    H152867   4.743   1.246   1.731  0.8316  0.1938 -0.7301
10484TIP3    H252868   4.630   1.319   1.661  0.7105  0.9088  0.1834
10485TIP3   OH252869   5.595   4.498  11.581 -0.3697 -0.1714  0.4361
10485TIP3    H152870   5.507   4.535  11.575  0.5315  2.1604  0.1613
10485TIP3    H252871   5.650   4.560  11.532  1.4024 -1.6516  0.4293
10486TIP3   OH252872   0.783   2.586   4.532  0.3024  0.1142 -0.3896
10486TIP3    H152873   0.698   2.551   4.560  1.3218 -0.9291  1.6603
10486TIP3    H252874   0.771   2.680   4.531 -1.0108 -0.0333 -0.5764
10487TIP3   OH252875   0.893   3.629   4.974 -0.4925 -0.1900  0.0851
10487TIP3    H152876   0.889   3.685   4.897 -0.3803 -2.2791 -1.5507
10487TIP3    H252877   0.832   3.557   4.955  0.4469 -1.3976  1.3897
10488TIP3   OH252878   5.653   3.741   4.623  0.1579 -0.1671  0.1181
10488TIP3    H152879   5.743   3.740   4.589  1.5845 -1.3053  3.4293
10488TIP3    H252880   5.604   3.684   4.564  1.8563 -0.3019 -1.2429
10489TIP3   OH252881   6.002   1.567   4.599  0.1336  0.4965 -0.1719
10489TIP3    H152882   6.055   1.610   4.531  0.3674  0.7389  0.1582
10489TIP3    H252883   5.924   1.535   4.553  0.8903 -0.4987 -0.8113
10490TIP3   OH252884   3.443   2.585  13.303 -0.0556 -0.4008 -0.0646
10490TIP3    H152885   3.349   2.582  13.320 -0.2794 -1.9243 -1.3542
10490TIP3    H252886   3.466   2.678  13.307 -1.0467 -0.1760  2.9876
10491TIP3   OH252887   3.740   2.868  12.683  0.3565 -0.3722 -0.1851
10491TIP3    H152888   3.785   2.941  12.639  0.1801  0.3479  0.8068
10491TIP3    H252889   3.805   2.832  12.743 -0.4801  1.0341  1.6788
10492TIP3   OH252890   4.015   2.150   2.885  0.0907  0.1087  0.6802
10492TIP3    H152891   4.043   2.222   2.828  0.6190 -0.5703  0.0675
10492TIP3    H252892   3.940   2.112   2.840  1.7308 -1.7249 -0.6744
10493TIP3   OH252893   3.356   4.550  14.411 -0.1832  0.2536  0.2359
10493TIP3    H152894   3.407   4.552  14.330 -0.4426  2.9489  0.0219
10493TIP3    H252895   3.396   4.617  14.466 -1.0602 -0.3491  1.6712
10494TIP3   OH252896   3.368   2.121   4.738 -0.2934 -0.3701  0.1764
10494TIP3    H152897   3.308   2.146   4.808 -0.3759 -0.6221  0.1958
10494TIP3    H252898   3.362   2.026   4.734 -2.8092 -0.2438 -2.3820
10495TIP3   OH252899   1.590   5.987  13.665 -0.3199  0.0255  0.6954
10495TIP3    H152900   1.607   5.945  13.749 -0.0687 -1.8888 -0.2653
10495TIP3    H252901   1.603   5.918  13.600 -2.7158  0.8350 -0.7781
10496TIP3   OH252902   2.137   0.689  14.100 -0.4330 -0.1081  0.0195
10496TIP3    H152903   2.153   0.707  14.193  0.3430 -0.7983  0.0291
10496TIP3    H252904   2.223   0.697  14.059 -0.9125  1.1418 -0.8227
10497TIP3   OH252905   6.661   4.469  14.198  0.6300 -0.1269 -0.0343
10497TIP3    H152906   6.691   4.465  14.288  1.4760  0.7524 -0.2580
10497TIP3    H252907   6.591   4.404  14.193 -0.9050  1.2754  1.7969
10498TIP3   OH252908   0.391   2.116  17.201 -0.7542  0.0005  0.0789
10498TIP3    H152909   0.395   2.025  17.173 -1.3379  0.1155 -0.3995
10498TIP3    H252910   0.299   2.131  17.221 -0.1923 -0.6232  3.9795
10499TIP3   OH252911   3.154   2.595  14.407  0.2144  0.2255  0.1738
10499TIP3    H152912   3.218   2.524  14.415  0.6446  0.5446 -0.3092
10499TIP3    H252913   3.103   2.591  14.487  1.5720  0.6687  1.1030
10500TIP3   OH252914   2.648   1.642  16.552  0.2584  0.0255  0.0398
10500TIP3    H152915   2.667   1.736  16.546 -1.2142  0.3072 -0.5775
10500TIP3    H252916   2.606   1.632  16.638 -1.1429  0.2549 -0.5892
10501TIP3   OH252917   4.425   5.752  14.918  0.6418 -0.4798 -0.1831
10501TIP3    H152918   4.438   5.677  14.976  2.6095 -0.8423 -1.0100
10501TIP3    H252919   4.503   5.753  14.863  0.1272  1.5293 -0.9454
10502TIP3   OH252920   6.176   3.568  11.990 -0.2967  0.4020  0.8234
10502TIP3    H152921   6.092   3.576  11.944 -0.2367 -1.2027  0.3985
10502TIP3    H252922   6.241   3.597  11.926 -0.3428 -0.4537  0.3780
10503TIP3   OH252923   0.318   5.091   5.788  0.5653  0.5175 -0.6621
10503TIP3    H152924   0.254   5.072   5.856  0.1844  0.1795 -1.1107
10503TIP3    H252925   0.312   5.185   5.773 -0.3276  0.3873 -1.1929
10504TIP3   OH252926   5.763   3.490   4.743 -0.2147 -0.1026 -0.1164
10504TIP3    H152927   5.720   3.569   4.711  1.8704  1.4241  0.6239
10504TIP3    H252928   5.797   3.515   4.829 -0.2301 -2.0955  0.5086
10505TIP3   OH252929   3.639   2.436  16.618 -0.0955  0.2839 -0.0139
10505TIP3    H152930   3.664   2.353  16.659  0.9801  1.7027  2.4443
10505TIP3    H252931   3.549   2.422  16.588  1.0489 -2.7064 -2.6078
10506TIP3   OH252932   0.545   1.514  12.524 -0.1204 -0.5333 -0.7610
10506TIP3    H152933   0.615   1.562  12.480 -0.3775 -0.1679 -0.7738
10506TIP3    H252934   0.532   1.560  12.607  0.0978 -0.9881 -0.4681
10507TIP3   OH252935   6.229   4.219  14.770 -0.2765 -0.2015 -0.7330
10507TIP3    H152936   6.179   4.299  14.785  0.5678  0.1859  0.2045
10507TIP3    H252937   6.319   4.250  14.756 -0.2323 -0.8893 -2.0858
10508TIP3   OH252938   3.820   4.533   4.505 -0.0250  0.0429  0.4658
10508TIP3    H152939   3.781   4.456   4.547  0.7728  0.0285  1.2221
10508TIP3    H252940   3.895   4.498   4.456  0.2648  0.3118  0.7101
10509TIP3   OH252941   4.886   2.971   4.822 -0.3411  0.2362  0.5452
10509TIP3    H152942   4.839   3.005   4.746 -0.4253 -0.8132  0.1043
10509TIP3    H252943   4.943   3.042   4.849 -0.2030  0.5853 -0.5998
10510TIP3   OH252944   1.469   0.161  13.533 -0.5265  0.1346  0.8055
10510TIP3    H152945   1.534   0.138  13.466 -1.7616 -0.1906 -0.3402
10510TIP3    H252946   1.490   0.105  13.607  0.3894 -0.0903  0.3915
10511TIP3   OH252947   1.554   3.792  14.373  0.0045  0.4729  0.6064
10511TIP3    H152948   1.518   3.863  14.320 -0.2862 -0.5036 -0.5441
10511TIP3    H252949   1.501   3.716  14.351  0.0820 -0.0447  2.0933
10512TIP3   OH252950   4.578   3.603  16.519 -0.3521 -0.1022  0.2891
10512TIP3    H152951   4.629   3.575  16.443 -1.1984 -3.1358  0.7024
10512TIP3    H252952   4.637   3.592  16.593 -0.0275  1.3659  0.2799
10513TIP3   OH252953   5.902   2.338  13.587  0.5899 -0.3240  0.1475
10513TIP3    H152954   5.843   2.384  13.528  0.8914  0.1393  0.1975
10513TIP3    H252955   5.872   2.247  13.586  0.1462 -0.1768 -0.1548
10514TIP3   OH252956   4.225   1.584   5.641  0.5224 -0.1187 -0.4054
10514TIP3    H152957   4.291   1.545   5.584  1.6172  0.7749  0.2102
10514TIP3    H252958   4.261   1.575   5.730  0.4430  1.4903 -0.1704
10515TIP3   OH252959   0.025   0.464   1.216  0.4778  0.3957  0.3811
10515TIP3    H152960   0.120   0.459   1.209  0.4699 -1.6643  0.9151
10515TIP3    H252961   0.009   0.524   1.288  1.5259 -1.6031  2.3857
10516TIP3   OH252962   6.711   3.790  13.067 -0.0640  0.5889  0.1368
10516TIP3    H152963   6.688   3.710  13.020  2.2423  0.9446 -1.7373
10516TIP3    H252964   6.636   3.804  13.126 -1.8696 -1.3373 -1.5019
10517TIP3   OH252965   5.447   4.245  15.396  0.3713 -0.4224  0.4366
10517TIP3    H152966   5.496   4.327  15.385  0.7805 -0.8462 -1.1287
10517TIP3    H252967   5.486   4.185  15.333 -1.7323 -0.9807 -0.4333
10518TIP3   OH252968   1.052   5.644  10.627 -0.0176  0.0539  0.3065
10518TIP3    H152969   1.025   5.688  10.546  0.9126 -0.0524 -0.0677
10518TIP3    H252970   1.044   5.551  10.608  0.3623  0.0257  0.2812
10519TIP3   OH252971   0.033   2.394  16.630  0.1661 -0.2334 -0.5456
10519TIP3    H152972   0.097   2.434  16.688  1.6708 -3.0042 -0.1345
10519TIP3    H252973  -0.044   2.379  16.685  0.9403 -1.2221  0.3124
10520TIP3   OH252974   3.418   2.110  15.541  0.3933 -0.6438  0.3258
10520TIP3    H152975   3.420   2.136  15.448  0.7722  2.1550  1.0328
10520TIP3    H252976   3.510   2.102  15.565  0.3449  0.2516  0.8446
10521TIP3   OH252977   5.845   3.560  15.031 -0.3321  0.1039  0.5544
10521TIP3    H152978   5.806   3.521  15.108 -0.0808  0.4505  0.8595
10521TIP3    H252979   5.939   3.540  15.038 -0.4609 -0.8620 -0.2515
10522TIP3   OH252980   5.430   0.273   5.236 -0.0424 -0.3366  0.5509
10522TIP3    H152981   5.458   0.309   5.321 -0.6789 -0.0563  0.6469
10522TIP3    H252982   5.449   0.180   5.243  0.3395 -0.2426  0.8281
10523TIP3   OH252983   6.141   2.827  11.586 -1.0458 -0.4404  0.2097
10523TIP3    H152984   6.172   2.797  11.500 -0.3390 -0.0652  0.3284
10523TIP3    H252985   6.221   2.850  11.634 -1.5326  1.1639  0.2991
10524TIP3   OH252986   5.458   1.663   0.643 -0.2223  0.3672  0.2564
10524TIP3    H152987   5.412   1.676   0.725  1.1665  0.2436  1.0807
10524TIP3    H252988   5.549   1.652   0.668  0.2715  0.6190 -1.3264
10525TIP3   OH252989   4.920   3.926   3.097 -0.0189  0.0241 -0.0353
10525TIP3    H152990   4.947   3.834   3.094  1.1136  0.3638 -0.6862
10525TIP3    H252991   4.839   3.925   3.149 -0.1571 -1.3654 -0.2285
10526TIP3   OH252992   3.716   5.693  11.345  0.9206  0.2927 -0.2170
10526TIP3    H152993   3.690   5.602  11.357  0.9925  0.5078  2.0993
10526TIP3    H252994   3.811   5.691  11.350  0.9446  0.8458  4.6538
10527TIP3   OH252995   1.892   4.135   4.671  0.1198  0.2505  0.3003
10527TIP3    H152996   1.842   4.063   4.708 -2.0652  0.6790 -1.6118
10527TIP3    H252997   1.953   4.094   4.610  0.6579 -0.1260  1.0786
10528TIP3   OH252998   4.846   2.126   4.259  0.0616 -0.2903 -0.3144
10528TIP3    H152999   4.863   2.073   4.337 -0.7273 -0.0929 -0.0005
10528TIP3    H253000   4.885   2.076   4.188  1.8411  0.0853  0.3332
10529TIP3   OH253001   0.629   1.221   3.056  0.2730  0.1870 -0.3048
10529TIP3    H153002   0.676   1.152   3.102 -1.4032 -0.3852  0.6307
10529TIP3    H253003   0.682   1.300   3.071  2.8491 -1.0176 -2.3811
10530TIP3   OH253004   5.913   1.095   2.260  0.3604 -0.5256 -0.6555
10530TIP3    H153005   5.967   1.024   2.225 -1.4380 -2.5364  0.3715
10530TIP3    H253006   5.851   1.115   2.190 -0.1248 -1.0964 -0.3964
10531TIP3   OH253007   4.962   1.871  14.018 -0.0072  0.1199 -0.5156
10531TIP3    H153008   4.992   1.836  13.934 -2.4002  0.1040 -1.4404
10531TIP3    H253009   4.889   1.928  13.995  1.1444  2.5282  1.3235
10532TIP3   OH253010   5.854   6.589  12.842  0.1240 -0.0488 -0.4641
10532TIP3    H153011   5.854   6.628  12.929 -1.5544 -0.9894 -0.0032
10532TIP3    H253012   5.807   6.651  12.787 -0.5464 -0.3637 -0.2480
10533TIP3   OH253013   3.641   3.595   2.710 -0.0351 -0.9388 -0.6329
10533TIP3    H153014   3.559   3.546   2.722 -0.5190 -0.3299 -1.4199
10533TIP3    H253015   3.626   3.678   2.755 -0.5330 -0.1025 -2.2621
10534TIP3   OH253016   6.603   6.401   0.229 -0.5146 -0.1352  0.0701
10534TIP3    H153017   6.599   6.306   0.239 -1.2259 -0.4368 -2.4133
10534TIP3    H253018   6.696   6.422   0.243  0.0037 -1.4641 -1.0648
10535TIP3   OH253019   0.122   1.396   0.588 -0.3453 -0.2988 -0.7732
10535TIP3    H153020   0.139   1.303   0.597 -1.0212 -0.3470  0.2063
10535TIP3    H253021   0.109   1.410   0.494  0.2719 -1.0841 -0.9831
10536TIP3   OH253022   5.223   0.708  17.054 -0.6856  0.4533  0.4377
10536TIP3    H153023   5.311   0.675  17.074  0.1579  0.7450 -2.2871
10536TIP3    H253024   5.235   0.762  16.976 -3.5293 -0.8976 -1.0982
10537TIP3   OH253025   2.216   6.609   0.772 -0.2366  0.2228  0.4918
10537TIP3    H153026   2.275   6.547   0.730 -0.6486 -0.8615  1.4689
10537TIP3    H253027   2.240   6.694   0.734  1.5344 -0.2636  0.4245
10538TIP3   OH253028   0.683   0.930  12.396 -0.3168 -0.1929  0.0506
10538TIP3    H153029   0.595   0.966  12.389 -0.3781 -0.5136 -0.9811
10538TIP3    H253030   0.739   1.006  12.410 -0.8886 -0.1099  2.3410
10539TIP3   OH253031   4.589   4.923  14.272 -0.0046  0.1104  0.3537
10539TIP3    H153032   4.647   4.983  14.320 -1.2510 -0.1723  2.3139
10539TIP3    H253033   4.604   4.944  14.180  2.6624  0.5422  0.8009
10540TIP3   OH253034   4.377   5.736  15.464  0.3713  0.2978 -0.0616
10540TIP3    H153035   4.451   5.752  15.405  0.3347  1.6730  0.2292
10540TIP3    H253036   4.330   5.819  15.467 -2.4155 -1.0609 -1.8359
10541TIP3   OH253037   6.429   1.452  14.890  0.1281 -0.1347  0.2386
10541TIP3    H153038   6.397   1.444  14.801 -1.8319  1.6371  0.6997
10541TIP3    H253039   6.519   1.484  14.881  0.3091 -0.9634 -1.0742
10542TIP3   OH253040   3.590   5.919   4.475 -0.4089  0.0607  0.0939
10542TIP3    H153041   3.500   5.893   4.490 -0.2269 -0.1406  0.8577
10542TIP3    H253042   3.623   5.943   4.561  0.2851  0.0821 -0.1702
10543TIP3   OH253043   1.338   1.087   0.843  0.5017  0.4041  0.8346
10543TIP3    H153044   1.375   1.116   0.927 -0.2040  1.1484  0.9087
10543TIP3    H253045   1.353   1.161   0.784 -0.5312  0.5808  0.7775
10544TIP3   OH253046   2.898   0.429   5.871  0.5735 -0.0986 -0.5236
10544TIP3    H153047   2.853   0.446   5.953  0.7254  0.3680 -0.5368
10544TIP3    H253048   2.983   0.395   5.897  0.3906 -0.5445 -0.4957
10545TIP3   OH253049   4.993   3.856   4.970  0.3140  0.5907  0.3401
10545TIP3    H153050   4.985   3.772   5.014  0.5037  0.3274 -0.1322
10545TIP3    H253051   4.911   3.865   4.920  1.2332 -0.3685 -1.4402
10546TIP3   OH253052   2.984   0.960  14.474 -0.2800 -0.4696 -0.3338
10546TIP3    H153053   3.017   0.884  14.522  0.8803  0.1119 -0.1750
10546TIP3    H253054   2.929   1.006  14.537  0.3493 -0.3045  0.1065
10547TIP3   OH253055   5.821   6.096   5.484 -0.3362 -0.3545  0.2176
10547TIP3    H153056   5.877   6.026   5.451  0.5779 -0.3530  1.6937
10547TIP3    H253057   5.834   6.168   5.422  1.5285 -0.2626  0.6751
10548TIP3   OH253058   3.361   6.111   0.181 -0.1798  0.1882  0.2928
10548TIP3    H153059   3.370   6.122   0.276 -1.2395 -0.1341  0.4474
10548TIP3    H253060   3.297   6.178   0.155 -0.4612 -0.2104 -0.0622
10549TIP3   OH253061   5.107   4.195  15.413  0.4624 -0.1471 -0.0465
10549TIP3    H153062   5.125   4.225  15.502 -0.7134 -1.3027  0.6087
10549TIP3    H253063   5.070   4.272  15.369 -0.9795 -0.1349  1.1203
10550TIP3   OH253064   1.846   4.468  14.547 -0.2029 -0.0039 -0.0264
10550TIP3    H153065   1.867   4.377  14.528  0.1003 -0.0211  0.3968
10550TIP3    H253066   1.922   4.501  14.595  0.3043  0.8593 -1.3678
10551TIP3   OH253067   1.131   0.824   2.927  0.3411 -0.1027  0.1846
10551TIP3    H153068   1.177   0.783   2.854 -1.2460  1.4365 -1.8065
10551TIP3    H253069   1.049   0.854   2.889  0.0426  1.9814  2.2840
10552TIP3   OH253070   4.337   1.181  11.459 -0.5245  0.2737  0.2930
10552TIP3    H153071   4.394   1.205  11.386  0.9833 -2.2671  0.5144
10552TIP3    H253072   4.248   1.201  11.429  0.2307  1.4122 -1.2922
10553TIP3   OH253073   1.021   3.219  16.942 -0.7431 -0.0873  0.0480
10553TIP3    H153074   0.968   3.146  16.971 -0.8990 -0.2258 -0.5657
10553TIP3    H253075   1.110   3.183  16.933 -1.1361 -0.6699 -1.9217
10554TIP3   OH253076   1.804   5.985  11.327 -0.5602 -0.5344  0.1990
10554TIP3    H153077   1.761   5.955  11.407 -0.3209 -0.6945  0.2702
10554TIP3    H253078   1.828   6.076  11.346  3.0136 -1.6357  1.8584
10555TIP3   OH253079   3.700   1.902   0.735 -0.1127  0.0959  0.3084
10555TIP3    H153080   3.762   1.837   0.767 -0.2012 -0.1766 -0.0647
10555TIP3    H253081   3.614   1.868   0.762 -0.1519  0.1003  0.1907
10556TIP3   OH253082   4.775   4.781  11.776  0.2629  0.2731 -0.2245
10556TIP3    H153083   4.790   4.861  11.827 -0.2042  0.4736 -0.4003
10556TIP3    H253084   4.818   4.712  11.827  0.8916  0.6697 -0.2019
10557TIP3   OH253085   0.127   5.371  13.848  0.7770 -0.0692 -0.3964
10557TIP3    H153086   0.115   5.459  13.812 -0.1431  0.4801  1.1538
10557TIP3    H253087   0.116   5.382  13.942  3.7784 -1.3331  0.2115
10558TIP3   OH253088   2.909   5.753   3.069  0.4178  0.0229 -0.0616
10558TIP3    H153089   2.838   5.806   3.104  0.3367  0.2640 -0.5838
10558TIP3    H253090   2.987   5.809   3.078  0.3600  0.1668 -0.4644
10559TIP3   OH253091   5.582   4.305   0.346 -0.3996 -0.3716 -0.0758
10559TIP3    H153092   5.507   4.364   0.336  1.0308  1.4525 -0.6068
10559TIP3    H253093   5.568   4.263   0.431 -1.1560  1.2658  0.6529
10560TIP3   OH253094   5.025   4.421   3.302 -0.2669  0.3476 -0.0374
10560TIP3    H153095   5.070   4.478   3.240 -0.3724 -2.2065 -2.6639
10560TIP3    H253096   5.037   4.333   3.267  0.0059 -1.3736  3.8294
10561TIP3   OH253097   0.187   5.066   1.258 -0.4492  0.2663 -0.2183
10561TIP3    H153098   0.245   5.100   1.326 -0.6172  0.5156 -0.2001
10561TIP3    H253099   0.102   5.106   1.276 -0.7698 -0.5236  0.0795
10562TIP3   OH253100   1.836   2.612   2.565  0.3115 -0.3278 -0.0088
10562TIP3    H153101   1.863   2.544   2.504 -1.1787 -0.0206 -1.0845
10562TIP3    H253102   1.755   2.579   2.603 -1.4642  1.5018 -1.9067
10563TIP3   OH253103   3.686   4.647   5.808  0.1415  0.2391  0.1755
10563TIP3    H153104   3.601   4.651   5.851 -0.4951  0.4292 -1.0428
10563TIP3    H253105   3.746   4.696   5.865 -0.1757 -1.2404  1.8670
10564TIP3   OH253106   5.203   0.435  16.451  0.8901 -0.4293 -0.2992
10564TIP3    H153107   5.179   0.525  16.474  1.6893 -0.5514  1.1314
10564TIP3    H253108   5.288   0.444  16.408  0.8162 -0.4794 -0.4568
10565TIP3   OH253109   4.163   1.076   1.843  0.4034 -0.0313  0.2058
10565TIP3    H153110   4.148   1.170   1.853  0.0621  0.0701 -1.1299
10565TIP3    H253111   4.092   1.034   1.892  0.1150  0.4075  0.1607
10566TIP3   OH253112   3.489   0.926  14.924  0.1399 -0.0081 -0.1704
10566TIP3    H153113   3.534   1.009  14.912  0.6965 -0.2361  0.2941
10566TIP3    H253114   3.529   0.867  14.860  0.3598 -0.1536  0.0984
10567TIP3   OH253115   2.212   2.155   1.387 -0.0118  0.1937 -0.0136
10567TIP3    H153116   2.250   2.224   1.440 -0.5203 -0.4396  1.2235
10567TIP3    H253117   2.124   2.143   1.423  1.0799 -3.2395  2.0499
10568TIP3   OH253118   4.509   6.297  15.846  0.0722 -0.6150 -0.2939
10568TIP3    H153119   4.548   6.240  15.912  0.5419 -0.5000 -0.4676
10568TIP3    H253120   4.466   6.366  15.896 -0.8245 -1.3189 -0.0698
10569TIP3   OH253121   3.615   6.054  16.920  0.4012  0.0149 -0.0255
10569TIP3    H153122   3.596   5.990  16.852 -1.5089  0.9560 -0.4532
10569TIP3    H253123   3.630   6.136  16.872  1.3391  0.2172  0.5844
10570TIP3   OH253124   0.620   1.315  13.366 -0.0322  0.0951  0.3125
10570TIP3    H153125   0.710   1.330  13.396 -0.7435  1.8605  1.7387
10570TIP3    H253126   0.574   1.284  13.444 -0.8210 -0.1393 -0.2394
10571TIP3   OH253127   1.381   4.597   2.406 -0.6940 -0.0084  0.2466
10571TIP3    H153128   1.371   4.656   2.481  0.7868  0.0337  0.4413
10571TIP3    H253129   1.389   4.657   2.331 -1.2138 -0.0225  0.1794
10572TIP3   OH253130   5.657   3.160  13.749 -0.3032 -0.9597 -0.0135
10572TIP3    H153131   5.667   3.252  13.774 -0.3355 -0.8936 -0.2402
10572TIP3    H253132   5.689   3.111  13.824 -1.8440 -0.7951  0.7817
10573TIP3   OH253133   1.206   0.268   5.135 -0.4964 -0.0804 -0.1495
10573TIP3    H153134   1.223   0.355   5.098 -0.0463  0.8228  2.0226
10573TIP3    H253135   1.278   0.214   5.104 -0.8581  0.2548 -1.6486
10574TIP3   OH253136   6.508   5.306   5.164  0.1516  0.0495 -0.1779
10574TIP3    H153137   6.501   5.399   5.142  0.7295  0.0437 -0.3850
10574TIP3    H253138   6.592   5.298   5.208 -0.0331 -0.3256  0.1154
10575TIP3   OH253139   4.889   1.450  12.446 -0.3368 -0.2635 -0.0776
10575TIP3    H153140   4.795   1.461  12.427 -0.1339  0.4079 -0.7321
10575TIP3    H253141   4.927   1.426  12.361 -0.0447 -1.4218  0.3731
10576TIP3   OH253142   5.595   0.130   5.760  1.0498  0.0419 -0.3179
10576TIP3    H153143   5.526   0.196   5.774  1.1152  0.6967 -2.6708
10576TIP3    H253144   5.677   0.178   5.771  1.1064  0.0673 -0.8412
10577TIP3   OH253145   3.665   3.392   1.742  0.1940 -0.3265  0.0616
10577TIP3    H153146   3.670   3.453   1.816  0.8195  0.9432 -0.9902
10577TIP3    H253147   3.714   3.315   1.772  0.4271  0.1623  0.9750
10578TIP3   OH253148   1.601   0.056   0.442  0.1844  0.8030 -0.0719
10578TIP3    H153149   1.658   0.113   0.390  1.2182  0.1898  0.3589
10578TIP3    H253150   1.623   0.075   0.533  0.0676  0.1992  0.0910
10579TIP3   OH253151   6.297   3.623  11.337  0.4212  0.5015  0.5876
10579TIP3    H153152   6.277   3.650  11.247  2.0298  0.4812  0.1954
10579TIP3    H253153   6.283   3.528  11.337  0.9318  0.4167  0.1837
10580TIP3   OH253154   3.042   5.387   4.618 -0.5291 -0.0130  0.4168
10580TIP3    H153155   3.035   5.364   4.525 -0.2508 -0.3993  0.4921
10580TIP3    H253156   3.123   5.438   4.623 -0.0598 -0.7605  0.5980
10581TIP3   OH253157   0.820   2.525  15.919 -0.2604 -0.4149  0.6558
10581TIP3    H153158   0.775   2.457  15.868 -0.8158  1.0087 -0.8476
10581TIP3    H253159   0.757   2.597  15.924  0.8093  0.5344  1.0181
10582TIP3   OH253160   0.332   1.416   0.905 -0.3142 -0.1625  0.0308
10582TIP3    H153161   0.334   1.359   0.828  0.0845  0.2316 -0.2544
10582TIP3    H253162   0.396   1.376   0.965  0.3475  0.2627 -0.3770
10583TIP3   OH253163   6.156   1.425   5.066 -0.4739 -0.4349  0.3603
10583TIP3    H153164   6.115   1.433   5.152 -1.2797 -1.9656  0.1700
10583TIP3    H253165   6.103   1.480   5.009 -1.9597 -1.8679  0.2569
10584TIP3   OH253166   0.843   2.285  12.856 -0.3539 -0.2068 -0.3621
10584TIP3    H153167   0.817   2.192  12.855 -0.2649 -0.2308 -0.5168
10584TIP3    H253168   0.779   2.328  12.799 -1.7760  0.2079  1.4694
10585TIP3   OH253169   2.212   2.446   5.813  0.0320 -0.0956  0.5208
10585TIP3    H153170   2.200   2.489   5.898  1.6478  0.6810  0.3861
10585TIP3    H253171   2.207   2.517   5.749  1.6043 -0.2438  0.2088
10586TIP3   OH253172   5.599   3.804  13.702  0.1464 -0.3249  0.0705
10586TIP3    H153173   5.617   3.719  13.661 -0.8079 -0.4578 -0.1226
10586TIP3    H253174   5.517   3.832  13.661 -0.0231  0.2648  0.7927
10587TIP3   OH253175   5.244   0.197   2.459  0.4360 -0.7032 -0.3726
10587TIP3    H153176   5.221   0.200   2.551 -2.3456  1.7845 -1.0077
10587TIP3    H253177   5.176   0.143   2.419  1.2555 -1.2364 -1.0740
10588TIP3   OH253178   5.227   0.672   2.089 -0.3916 -0.1594 -0.1710
10588TIP3    H153179   5.150   0.638   2.136 -0.7966 -0.8130 -1.2712
10588TIP3    H253180   5.201   0.760   2.062 -1.3008 -0.8695 -1.7124
10589TIP3   OH253181   2.727   3.628   1.536 -0.2525  0.3266 -0.0931
10589TIP3    H153182   2.777   3.679   1.472  1.3103 -1.4814 -0.3937
10589TIP3    H253183   2.770   3.645   1.619  0.9605 -1.2420 -0.3539
10590TIP3   OH253184   0.616   3.319  13.318  0.8001 -0.1304 -0.3744
10590TIP3    H153185   0.551   3.388  13.334  2.4043  1.4639 -0.4710
10590TIP3    H253186   0.682   3.332  13.387  0.5600 -2.3620  0.3471
10591TIP3   OH253187   5.236   4.874   4.796 -0.1258 -0.3750  0.7392
10591TIP3    H153188   5.177   4.924   4.853  1.0333  1.4553  0.4177
10591TIP3    H253189   5.214   4.903   4.708 -0.0562 -1.1534  0.4615
10592TIP3   OH253190   0.097   3.136  11.524 -0.0786  0.5925  0.3785
10592TIP3    H153191   0.036   3.161  11.594 -0.8107  1.9420 -0.6918
10592TIP3    H253192   0.121   3.218  11.482  2.9946  0.1823  1.0860
10593TIP3   OH253193   1.685   5.442   1.250 -0.4269  0.6974  0.0331
10593TIP3    H153194   1.713   5.402   1.332 -0.3526  0.8358  0.0752
10593TIP3    H253195   1.748   5.411   1.185 -0.4879  0.5851  0.0269
10594TIP3   OH253196   0.517   0.409  13.280 -0.0001 -0.2325  0.1749
10594TIP3    H153197   0.426   0.417  13.251  0.9352  0.1154 -3.1266
10594TIP3    H253198   0.539   0.497  13.310 -0.1093  0.3698 -1.3905
10595TIP3   OH253199   4.314   6.219  14.336  0.0627 -0.1996 -0.0534
10595TIP3    H153200   4.397   6.264  14.350  0.5965 -1.2118  0.1294
10595TIP3    H253201   4.251   6.289  14.319  0.8482  0.6102  0.3111
10596TIP3   OH253202   5.427   5.701  15.212 -0.2661  0.1158  0.2175
10596TIP3    H153203   5.336   5.704  15.184 -0.0440 -2.3173 -1.1004
10596TIP3    H253204   5.437   5.614  15.251  1.2820  0.6800  1.1823
10597TIP3   OH253205   0.697   3.166   4.970  0.2196 -0.2616  0.2817
10597TIP3    H153206   0.637   3.136   4.901  2.1064 -0.1988 -1.5008
10597TIP3    H253207   0.690   3.099   5.038 -0.6135 -1.1559 -0.6406
10598TIP3   OH253208   3.873   6.256   1.160  0.2479 -0.7195 -0.0922
10598TIP3    H153209   3.818   6.197   1.108 -0.5533 -0.3044  0.2629
10598TIP3    H253210   3.818   6.334   1.174  1.2161  0.0375 -0.3903
10599TIP3   OH253211   5.982   6.032   0.018  0.7165 -0.3878  0.0231
10599TIP3    H153212   5.964   6.000   0.106  0.1474  0.1355  0.1047
10599TIP3    H253213   5.998   5.953  -0.034 -0.2348 -0.7759  0.3089
10600TIP3   OH253214   4.106   0.617  15.936  0.1670 -0.8967  0.3689
10600TIP3    H153215   4.175   0.551  15.949 -0.1705 -1.3032  0.1431
10600TIP3    H253216   4.122   0.682  16.004  0.5686 -1.1659  0.5382
10601TIP3   OH253217   0.168   3.700  11.625  0.2757 -0.1916 -0.1263
10601TIP3    H153218   0.229   3.768  11.596 -0.8735  0.6205 -0.6825
10601TIP3    H253219   0.084   3.744  11.633 -0.4752 -1.5170 -0.3964
10602TIP3   OH253220   2.507   6.395  13.317 -0.7437  0.1347  0.4359
10602TIP3    H153221   2.551   6.467  13.272 -1.3706 -1.2331 -2.6127
10602TIP3    H253222   2.417   6.397  13.283 -0.7484 -2.1138  0.1516
10603TIP3   OH253223   4.789   3.990  14.554 -0.0598 -0.4557  0.2835
10603TIP3    H153224   4.884   3.989  14.544 -0.0270 -0.1577  0.5219
10603TIP3    H253225   4.775   3.980  14.648 -0.2428  0.0775  0.3179
10604TIP3   OH253226   1.436   3.864   5.338 -0.2751  0.8233  0.2496
10604TIP3    H153227   1.475   3.816   5.264  0.7196  1.8319  0.0857
10604TIP3    H253228   1.477   3.826   5.415 -1.9506 -0.8217  0.3847
10605TIP3   OH253229   2.455   1.697   5.900 -0.2135  0.1693  0.0563
10605TIP3    H153230   2.364   1.722   5.882  0.0316  0.3358 -1.0934
10605TIP3    H253231   2.449   1.624   5.960 -1.0741  0.8534  0.8308
10606TIP3   OH253232   5.619   6.228   2.943  0.1839 -0.1085 -0.3319
10606TIP3    H153233   5.558   6.301   2.937  0.6711  0.3742  0.4976
10606TIP3    H253234   5.565   6.155   2.974  0.4222  0.9060  2.8007
10607TIP3   OH253235   0.316   4.243   3.836  0.1236 -0.2701 -0.3582
10607TIP3    H153236   0.364   4.325   3.845  3.1616 -1.9958  0.4729
10607TIP3    H253237   0.240   4.266   3.783 -0.0711  3.3815  1.1732
10608TIP3   OH253238   6.279   3.553   1.809  0.2471  0.0378 -0.2593
10608TIP3    H153239   6.204   3.494   1.800  0.0017  0.5129 -1.5525
10608TIP3    H253240   6.262   3.601   1.891 -0.8930  0.1545 -0.5442
10609TIP3   OH253241   3.913   2.842   3.012 -0.1689 -0.3420  0.3538
10609TIP3    H153242   3.924   2.926   2.967 -0.8494 -1.0563 -1.2330
10609TIP3    H253243   3.868   2.864   3.093 -0.7894  0.7755 -0.2669
10610TIP3   OH253244   0.920   5.485  13.814  0.1053  0.4700 -0.2299
10610TIP3    H153245   0.930   5.503  13.908  0.0564 -0.5631 -0.0149
10610TIP3    H253246   0.876   5.400  13.810  0.7416  0.1688 -1.1914
10611TIP3   OH253247   0.109   2.871   4.541 -0.7566 -0.0363  0.1974
10611TIP3    H153248   0.198   2.880   4.506 -1.1250  1.2733 -0.4926
10611TIP3    H253249   0.053   2.906   4.472 -1.7445 -0.0127  0.9889
10612TIP3   OH253250   3.894   2.430  14.749  0.8635 -0.8829 -0.2363
10612TIP3    H153251   3.987   2.418  14.733  1.2541  0.5974  0.7471
10612TIP3    H253252   3.890   2.472  14.835 -0.6542  0.0030 -0.7101
10613TIP3   OH253253   0.147   4.720  17.129  0.0497 -1.3072  0.1526
10613TIP3    H153254   0.141   4.745  17.036  1.8732 -0.5396  0.2059
10613TIP3    H253255   0.065   4.751  17.167  0.9982  2.2807 -0.3625
10614TIP3   OH253256   5.117   4.501  10.604 -0.1357  0.1901 -0.5759
10614TIP3    H153257   5.205   4.464  10.602 -0.0922 -0.4362  3.5867
10614TIP3    H253258   5.130   4.595  10.616 -0.1760  0.4951 -2.5090
10615TIP3   OH253259   3.813   4.598  11.145 -0.1497  0.4463 -0.1560
10615TIP3    H153260   3.872   4.651  11.198  0.0796 -0.9730  1.0704
10615TIP3    H253261   3.815   4.639  11.059  0.7211  1.8645  0.5089
10616TIP3   OH253262   1.153   6.055  11.352 -0.1388 -0.7423 -0.2251
10616TIP3    H153263   1.074   6.097  11.319  0.0422 -0.4099 -0.2328
10616TIP3    H253264   1.145   5.964  11.323  0.4385 -0.2818 -1.9546
10617TIP3   OH253265   3.290   5.878   0.577 -0.2945  0.2905  0.4639
10617TIP3    H153266   3.221   5.879   0.643  2.0839 -1.1974  3.2352
10617TIP3    H253267   3.268   5.804   0.520 -2.0672  1.2169 -0.1427
10618TIP3   OH253268   2.918   5.732  12.671 -0.5591  0.1546  0.5579
10618TIP3    H153269   2.868   5.676  12.731 -0.0631 -1.7143 -0.7063
10618TIP3    H253270   2.983   5.674  12.632  0.4560  1.7985 -0.2885
10619TIP3   OH253271   4.153   4.016   5.677  0.9708 -0.3094  0.2060
10619TIP3    H153272   4.183   3.928   5.697 -0.5293 -0.5369  1.7202
10619TIP3    H253273   4.071   4.004   5.630  1.6942  0.2980 -1.2714
10620TIP3   OH253274   5.969   2.487  13.817 -0.2463  0.6180 -0.6430
10620TIP3    H153275   5.983   2.570  13.773  1.0097  0.3476 -0.8008
10620TIP3    H253276   5.964   2.423  13.746  1.2138  0.2577 -0.4562
10621TIP3   OH253277   4.851   0.621   4.398  0.4063 -0.0951 -1.0815
10621TIP3    H153278   4.919   0.559   4.424  0.3539  0.6860  1.1365
10621TIP3    H253279   4.898   0.703   4.384  0.3223 -0.3125 -2.9406
10622TIP3   OH253280   0.881   1.298   2.003  0.4240 -0.0153  0.1225
10622TIP3    H153281   0.813   1.266   2.063  0.1065 -1.6334 -1.0195
10622TIP3    H253282   0.839   1.297   1.917  1.2907  0.9510 -0.3251
10623TIP3   OH253283   5.905   2.693   2.400  0.2152  0.2032 -0.4235
10623TIP3    H153284   6.000   2.704   2.388  0.5187  0.0606  1.4347
10623TIP3    H253285   5.872   2.781   2.417  0.8674 -0.1298  3.6051
10624TIP3   OH253286   1.915   2.013  15.589  0.5631  0.1117  0.0470
10624TIP3    H153287   1.866   2.086  15.627 -0.7435 -0.0312 -1.2798
10624TIP3    H253288   1.884   2.008  15.499 -0.6113 -3.0966  0.5182
10625TIP3   OH253289   0.984   1.911   3.529 -0.3237 -0.4715  0.2001
10625TIP3    H153290   0.962   1.986   3.473 -1.2951 -0.2348  0.8690
10625TIP3    H253291   1.079   1.903   3.521 -0.4751 -0.8265 -1.9422
10626TIP3   OH253292   1.286   3.500  15.315 -0.1038 -0.2157  0.5482
10626TIP3    H153293   1.194   3.522  15.299  0.1867  0.6859  0.0768
10626TIP3    H253294   1.284   3.408  15.342 -1.2010 -0.0502  1.0937
10627TIP3   OH253295   0.569   5.212  16.010 -0.0237 -0.2655 -0.3894
10627TIP3    H153296   0.553   5.119  16.025  0.4750 -0.0507  1.7045
10627TIP3    H253297   0.662   5.216  15.985  0.1030 -0.2750  0.0805
10628TIP3   OH253298   4.386   0.876  15.841  0.5115  0.1409 -0.5813
10628TIP3    H153299   4.381   0.801  15.782  0.5373 -0.5591  0.2868
10628TIP3    H253300   4.462   0.926  15.811  2.4931 -1.8959  0.7763
10629TIP3   OH253301   1.072   4.169  15.258 -0.0857  0.4689  0.5590
10629TIP3    H153302   1.105   4.099  15.314 -0.5919 -0.8842 -0.7534
10629TIP3    H253303   1.119   4.247  15.287 -0.5616 -0.0812  3.0459
10630TIP3   OH253304   2.637   2.910  13.114 -0.4974  0.0363 -0.5912
10630TIP3    H153305   2.627   3.001  13.141 -1.8037 -0.3397  0.2342
10630TIP3    H253306   2.554   2.868  13.135 -0.1161 -1.2381 -1.4550
10631TIP3   OH253307   0.059   4.215  12.635  0.0403  0.5482  0.0241
10631TIP3    H153308   0.139   4.239  12.681  1.2728 -0.7346 -1.3557
10631TIP3    H253309   0.075   4.241  12.544 -0.6919 -0.6336 -0.4686
10632TIP3   OH253310   5.285   5.265   1.482  1.0839  0.2897 -0.0902
10632TIP3    H153311   5.257   5.198   1.420  1.1728  0.6542 -0.5294
10632TIP3    H253312   5.376   5.244   1.501  0.8458 -0.2555  0.4968
10633TIP3   OH253313   6.106   2.364   5.562  0.3653  0.1588 -0.2698
10633TIP3    H153314   6.120   2.275   5.532  0.4922 -0.5077  1.6722
10633TIP3    H253315   6.043   2.357   5.633  2.8375  1.1419  2.2197
10634TIP3   OH253316   5.970   0.807  11.504  0.0855  0.9024  0.2895
10634TIP3    H153317   6.012   0.808  11.590  0.7855  0.2098 -0.0267
10634TIP3    H253318   6.039   0.835  11.444  0.1462 -0.3615 -0.2551
10635TIP3   OH253319   4.611   4.805  16.504  0.4355 -0.0274  0.2838
10635TIP3    H153320   4.548   4.803  16.576 -2.0865 -0.3252 -1.8104
10635TIP3    H253321   4.694   4.782  16.545 -1.2118 -2.1011  2.7804
10636TIP3   OH253322   5.168   3.080   3.814  0.3541  0.8050  0.2444
10636TIP3    H153323   5.134   3.002   3.857 -1.5861  1.7379  0.5171
10636TIP3    H253324   5.243   3.106   3.868  0.6643 -0.5102  0.4806
10637TIP3   OH253325   0.683   3.765  13.859 -0.2658 -0.4555  0.3791
10637TIP3    H153326   0.638   3.828  13.804  1.1446 -0.2988 -0.6382
10637TIP3    H253327   0.622   3.691  13.865  0.0364 -1.0251 -2.4920
10638TIP3   OH253328   2.357   0.727  12.651  0.0827  0.7634  0.7202
10638TIP3    H153329   2.413   0.657  12.685 -0.3297 -0.5796 -1.2177
10638TIP3    H253330   2.410   0.807  12.660  0.9173  0.0947  2.1183
10639TIP3   OH253331   4.744   6.451   5.442 -0.0057 -0.0790 -0.0513
10639TIP3    H153332   4.756   6.393   5.367  1.2314  1.6013 -1.2361
10639TIP3    H253333   4.759   6.395   5.518  0.3586 -1.4753 -1.1057
10640TIP3   OH253334   1.633   6.506  12.338  0.2387 -0.1102  0.5575
10640TIP3    H153335   1.674   6.485  12.422  0.1872 -1.1492  0.3335
10640TIP3    H253336   1.542   6.526  12.360  0.4622  0.6373  0.8593
10641TIP3   OH253337   3.598   6.611   3.720 -0.0451 -0.1633 -0.5410
10641TIP3    H153338   3.598   6.531   3.666  1.4784 -1.1278  0.7880
10641TIP3    H253339   3.677   6.603   3.774 -0.3345  1.8459  0.2524
10642TIP3   OH253340   2.958   1.321  16.272 -0.0276  0.1282 -0.2969
10642TIP3    H153341   2.934   1.272  16.351  0.5177 -0.1558 -0.3058
10642TIP3    H253342   2.916   1.272  16.201 -0.8895  0.6326 -0.1521
10643TIP3   OH253343   2.673   0.163   0.752  0.1071  0.4413  0.4353
10643TIP3    H153344   2.624   0.232   0.797  0.2944  0.7783  0.1195
10643TIP3    H253345   2.765   0.186   0.764  0.1836  0.0357  0.6632
10644TIP3   OH253346   2.813   4.804   1.707 -0.2728  0.2138 -0.3393
10644TIP3    H153347   2.861   4.726   1.734  0.4561  1.5019  2.3744
10644TIP3    H253348   2.875   4.854   1.654  0.3332  0.3664  0.4985
10645TIP3   OH253349   6.219   4.514   0.718 -0.4474 -0.2685  0.2267
10645TIP3    H153350   6.295   4.459   0.739 -0.8986 -0.6031  1.0446
10645TIP3    H253351   6.202   4.498   0.626  0.7717  0.1832 -0.0967
10646TIP3   OH253352   5.237   2.480   2.411 -0.1791  0.3670  0.2142
10646TIP3    H153353   5.287   2.548   2.365 -2.4418  0.6513 -2.0723
10646TIP3    H253354   5.161   2.526   2.446  0.7373 -0.1535  3.1112
10647TIP3   OH253355   6.407   0.806  11.711  0.4950 -0.6633  0.5280
10647TIP3    H153356   6.482   0.838  11.760  1.5877 -1.1336 -0.7609
10647TIP3    H253357   6.395   0.716  11.743 -0.9141  0.0801  2.2591
10648TIP3   OH253358   0.689   6.653  14.806  0.0876 -0.1757  0.2148
10648TIP3    H153359   0.655   6.612  14.727 -0.3310  0.0248  0.2910
10648TIP3    H253360   0.758   6.712  14.775  1.9982 -2.2404  0.2392
10649TIP3   OH253361   5.316   0.110   6.262 -0.4491 -0.2453  0.0926
10649TIP3    H153362   5.291   0.135   6.351 -0.5877 -0.2186  0.0458
10649TIP3    H253363   5.337   0.017   6.269 -2.1412 -0.6782 -0.1955
10650TIP3   OH253364   4.911   1.027  11.583  0.1252 -0.0067  0.6292
10650TIP3    H153365   4.817   1.010  11.577 -0.2625  2.0254  0.2562
10650TIP3    H253366   4.936   0.991  11.668 -1.1024 -0.0909  0.9780
10651TIP3   OH253367   5.858   1.147   2.578  0.2381  0.3105 -0.4809
10651TIP3    H153368   5.852   1.137   2.483 -1.1694 -1.4282 -0.2454
10651TIP3    H253369   5.885   1.061   2.609 -1.9457  0.0723  0.8920
10652TIP3   OH253370   2.453   1.687  11.276  0.3464 -0.1556 -0.9070
10652TIP3    H153371   2.421   1.597  11.267  0.1908 -0.2983  0.7989
10652TIP3    H253372   2.399   1.738  11.215 -0.3090 -1.0377 -1.0735
10653TIP3   OH253373   5.353   1.182   2.472 -0.1193 -0.3189  0.2596
10653TIP3    H153374   5.299   1.109   2.502 -1.4186 -0.6700 -2.6081
10653TIP3    H253375   5.318   1.258   2.519 -2.9675 -0.6069 -1.1760
10654TIP3   OH253376   1.624   5.556   3.981 -0.4048 -0.1917  0.6434
10654TIP3    H153377   1.608   5.489   3.915  1.4329 -0.3309  0.2878
10654TIP3    H253378   1.569   5.629   3.954 -4.5799 -2.3298  2.5357
10655TIP3   OH253379   4.247   5.030   3.855 -0.0164 -0.1228 -0.2435
10655TIP3    H153380   4.275   5.107   3.906  0.1959 -1.4652  1.8035
10655TIP3    H253381   4.186   4.984   3.913 -0.4063 -1.3248 -1.5581
10656TIP3   OH253382   2.062   4.668   2.926 -0.9937 -0.0209  0.0042
10656TIP3    H153383   2.009   4.659   3.006 -1.0071  1.6415  0.2144
10656TIP3    H253384   2.085   4.760   2.923  3.4660 -0.8760  0.9222
10657TIP3   OH253385   3.925   4.656  16.231 -0.0266 -0.3821  0.2053
10657TIP3    H153386   4.008   4.671  16.185  0.7228 -0.4016  1.5200
10657TIP3    H253387   3.860   4.704  16.179  1.3920  2.8685  1.1769
10658TIP3   OH253388   1.776   2.480  13.130 -0.5021 -0.0039  0.1342
10658TIP3    H153389   1.694   2.477  13.081 -0.3411  1.5894 -0.2854
10658TIP3    H253390   1.839   2.435  13.075 -0.0451  2.7151 -1.8044
10659TIP3   OH253391   0.797   6.273  17.208 -0.4880  0.6856 -0.0736
10659TIP3    H153392   0.815   6.188  17.166 -0.9915  0.9352 -0.8226
10659TIP3    H253393   0.830   6.338  17.145 -4.9840  1.2565 -2.2712
10660TIP3   OH253394   2.605   5.023   0.625  0.3490  0.0417 -0.1264
10660TIP3    H153395   2.621   5.108   0.585  1.0979  0.0435  0.1456
10660TIP3    H253396   2.682   4.971   0.601 -0.8018 -1.0629 -1.5807
10661TIP3   OH253397   2.357   0.523   1.278 -0.0275  0.1302 -0.1158
10661TIP3    H153398   2.377   0.545   1.187 -0.3483 -0.6345 -0.3815
10661TIP3    H253399   2.400   0.592   1.330 -0.3505  0.9159 -0.8652
10662TIP3   OH253400   5.444   2.005  11.749 -0.4288  0.0140  0.1473
10662TIP3    H153401   5.530   2.045  11.761 -1.1090  1.3809  0.6508
10662TIP3    H253402   5.461   1.911  11.751  0.8511  0.2435  1.7752
10663TIP3   OH253403   3.968   1.482  11.190 -0.1021 -0.1275 -0.2934
10663TIP3    H153404   3.953   1.556  11.132 -0.4749 -0.0436 -0.0967
10663TIP3    H253405   3.988   1.409  11.132 -1.2516 -0.2377 -0.5788
10664TIP3   OH253406   2.484   1.062  15.906  0.4069 -0.1646  0.4332
10664TIP3    H153407   2.527   1.030  15.985 -1.4867  0.0650  1.6254
10664TIP3    H253408   2.470   1.155  15.922 -0.8065 -0.3000  0.2304
10665TIP3   OH253409   4.805   4.555   4.955 -0.6388 -0.2959 -0.3472
10665TIP3    H153410   4.808   4.476   5.008 -0.7321  0.2945  0.5587
10665TIP3    H253411   4.736   4.608   4.995 -0.1564  0.5100 -0.5589
10666TIP3   OH253412   3.448   6.703   2.759 -0.5183  0.3136  0.3035
10666TIP3    H153413   3.381   6.770   2.743 -2.6714 -1.5736  0.8034
10666TIP3    H253414   3.420   6.628   2.706  2.0555 -0.0935 -0.5868
10667TIP3   OH253415   6.027   0.990  13.239 -0.1070  0.6272  0.0754
10667TIP3    H153416   6.077   1.045  13.299  0.8064  0.9086 -0.9231
10667TIP3    H253417   5.952   1.044  13.214 -2.1628 -0.5020  3.1410
10668TIP3   OH253418   4.749   1.364   2.022  0.2494  0.1221 -0.5791
10668TIP3    H153419   4.702   1.445   2.045  0.3744 -0.3606  1.5761
10668TIP3    H253420   4.825   1.364   2.080 -0.3697 -2.1036  0.3225
10669TIP3   OH253421   2.153   1.928   1.660 -0.0740 -0.3598 -0.0492
10669TIP3    H153422   2.157   1.928   1.564  1.2348 -0.4803 -0.0075
10669TIP3    H253423   2.118   2.015   1.682 -1.7060 -0.8217 -0.6538
10670TIP3   OH253424   2.930   4.296  15.917  0.3114  0.2429 -0.1915
10670TIP3    H153425   3.005   4.350  15.891 -0.4426  2.0344  1.1288
10670TIP3    H253426   2.866   4.359  15.949 -1.4104 -1.3248 -0.4201
10671TIP3   OH253427   3.376   6.452  14.580 -0.6228  0.1392 -0.1861
10671TIP3    H153428   3.347   6.374  14.533 -1.0442  0.3460 -0.2749
10671TIP3    H253429   3.396   6.421  14.668  0.2669 -0.2668 -0.5216
10672TIP3   OH253430   4.953   3.221   6.556  0.4832 -0.8390  0.4551
10672TIP3    H153431   4.927   3.191   6.643  0.9284 -0.9884  0.5386
10672TIP3    H253432   4.975   3.313   6.568  2.0790 -1.2492  0.8374
10673TIP3   OH253433   0.962   3.611  14.944  0.1271 -0.1274 -0.1449
10673TIP3    H153434   0.964   3.695  14.898 -0.8049  0.4103  0.7693
10673TIP3    H253435   0.870   3.584  14.942  0.4829 -1.4100 -0.8876
10674TIP3   OH253436   0.216   2.247   0.294 -0.0866  0.2553  0.2107
10674TIP3    H153437   0.240   2.267   0.384 -0.0879  1.3351 -0.0064
10674TIP3    H253438   0.133   2.294   0.281 -0.2595 -0.1681 -0.2547
10675TIP3   OH253439   1.361   1.481  14.451  0.0149  0.3612  0.8236
10675TIP3    H153440   1.339   1.544  14.383  1.0207 -0.0393  0.1125
10675TIP3    H253441   1.425   1.526  14.505  0.7537 -0.0528  0.3005
10676TIP3   OH253442   1.335   3.369  17.031  0.2277 -0.3002  0.2487
10676TIP3    H153443   1.301   3.302  17.090 -2.1657  1.0674  0.5614
10676TIP3    H253444   1.257   3.416  17.000  1.7280  1.8777 -0.5022
10677TIP3   OH253445   4.870   0.902   0.629  0.3578 -0.8839 -0.1691
10677TIP3    H153446   4.954   0.871   0.595  0.3597  0.2665 -1.3029
10677TIP3    H253447   4.891   0.985   0.673 -0.2691 -0.1315 -1.2214
10678TIP3   OH253448   1.813   4.884   5.425  0.2767 -0.2604  0.0033
10678TIP3    H153449   1.807   4.884   5.330 -0.4208  1.8774  0.0005
10678TIP3    H253450   1.901   4.916   5.444 -1.0225  4.0024 -0.0461
10679TIP3   OH253451   3.590   2.783   4.913 -0.0317  0.4081 -0.4040
10679TIP3    H153452   3.627   2.717   4.972  0.1127  0.5694 -0.3125
10679TIP3    H253453   3.666   2.825   4.874 -0.1057  0.9686  0.0337
10680TIP3   OH253454   2.469   4.713   3.950 -0.6795  0.4613  0.0877
10680TIP3    H153455   2.451   4.806   3.941 -0.4941  0.6396  1.4106
10680TIP3    H253456   2.556   4.702   3.911 -0.8583  0.7648 -0.4068
10681TIP3   OH253457   1.674   6.407  16.391  0.1730  0.3817  0.1907
10681TIP3    H153458   1.755   6.363  16.419 -1.2096 -1.9473  0.7428
10681TIP3    H253459   1.678   6.492  16.435  1.9844  0.0501  0.7721
10682TIP3   OH253460   6.252   4.625  11.336  0.6435  0.1901 -0.6390
10682TIP3    H153461   6.250   4.694  11.271  0.5346  0.2579 -0.5631
10682TIP3    H253462   6.270   4.545  11.286  2.4563  0.4951 -0.5500
10683TIP3   OH253463   1.098   3.170  14.530 -0.2179  0.2833  0.0149
10683TIP3    H153464   1.017   3.179  14.479  0.6064 -1.6115 -1.8013
10683TIP3    H253465   1.098   3.079  14.560  0.9327  0.4312  0.5181
10684TIP3   OH253466   2.857   4.364   5.682  0.3844  0.5417  0.3204
10684TIP3    H153467   2.815   4.280   5.662 -0.5998  0.8958  0.8035
10684TIP3    H253468   2.920   4.344   5.751 -0.5253  0.3531  1.1158
10685TIP3   OH253469   6.427   2.026  15.893  0.1484 -0.1435  0.5931
10685TIP3    H153470   6.377   1.951  15.860  0.9804  0.4603 -2.3505
10685TIP3    H253471   6.397   2.100  15.840  2.8547  0.5654 -0.1280
10686TIP3   OH253472   2.399   6.640   1.331  0.1888  0.2064 -0.3147
10686TIP3    H153473   2.314   6.652   1.290  0.9154  0.2027 -1.8766
10686TIP3    H253474   2.379   6.626   1.424 -1.4926  0.2448 -0.6439
10687TIP3   OH253475   1.491   6.696  14.835  0.0309  0.3574  0.1733
10687TIP3    H153476   1.467   6.734  14.920  3.8899  1.6469  0.8812
10687TIP3    H253477   1.548   6.761  14.794  0.9074 -1.6031 -1.9514
10688TIP3   OH253478   3.633   5.211   3.271  0.0062 -0.4351 -0.4795
10688TIP3    H153479   3.671   5.154   3.204  1.2649  1.0430 -1.0762
10688TIP3    H253480   3.577   5.271   3.223 -1.0367 -0.9128  0.1042
10689TIP3   OH253481   4.480   5.044  17.013 -0.2611 -0.0687 -0.0997
10689TIP3    H153482   4.472   4.964  16.963  1.3273 -0.2557 -0.1033
10689TIP3    H253483   4.573   5.050  17.036 -0.1933  2.1025 -0.6745
10690TIP3   OH253484   3.851   1.347   0.021 -0.2922 -0.0235 -0.1898
10690TIP3    H153485   3.855   1.433  -0.021  1.9183  1.8711  3.4267
10690TIP3    H253486   3.927   1.300  -0.014  0.8287  1.0659  0.7004
10691TIP3   OH253487   5.388   6.437  15.185  0.4728  0.2795  0.0711
10691TIP3    H153488   5.454   6.439  15.116 -0.0477 -0.3679 -0.4614
10691TIP3    H253489   5.419   6.371  15.247 -0.8664 -1.9191 -1.4561
10692TIP3   OH253490   4.329   6.664   2.343 -0.4312  0.3102 -0.2023
10692TIP3    H153491   4.267   6.630   2.279  1.0444 -0.1658 -1.4439
10692TIP3    H253492   4.322   6.603   2.417 -2.1594  0.8728  0.1478
10693TIP3   OH253493   2.901   5.768   3.580  0.2635  0.3898  0.3768
10693TIP3    H153494   2.876   5.681   3.609 -2.8758  1.5062  1.4962
10693TIP3    H253495   2.852   5.781   3.498  0.4820  1.1981  0.3623
10694TIP3   OH253496   4.886   4.679   4.514  0.0259 -0.2401  0.5629
10694TIP3    H153497   4.849   4.759   4.476 -0.8731 -0.6168  0.6287
10694TIP3    H253498   4.927   4.635   4.439  0.2733  0.1308  0.4730
10695TIP3   OH253499   4.473   5.230  11.405  0.4957 -0.2536 -0.6570
10695TIP3    H153500   4.533   5.156  11.402  0.4766 -0.3620  0.7127
10695TIP3    H253501   4.528   5.305  11.427  0.4964  0.1426 -1.9180
10696TIP3   OH253502   0.028   3.953  13.755  0.1877 -0.4931 -0.2397
10696TIP3    H153503   0.004   3.927  13.666  1.2580 -2.3668 -0.0348
10696TIP3    H253504  -0.010   3.885  13.811 -0.8228  0.8787  0.8119
10697TIP3   OH253505   1.140   3.457   4.599  0.1077 -0.0512 -0.0927
10697TIP3    H153506   1.115   3.375   4.557  1.0179  0.1680 -1.0972
10697TIP3    H253507   1.136   3.522   4.529  0.0237  0.6493  0.5504
10698TIP3   OH253508   6.673   3.437  13.630 -0.3723 -0.3092  0.1650
10698TIP3    H153509   6.587   3.475  13.613 -0.6670 -1.2319 -0.5134
10698TIP3    H253510   6.719   3.443  13.546 -0.6112 -1.8496 -0.1170
10699TIP3   OH253511   0.477   5.251   2.465  0.5369 -0.3352 -0.7570
10699TIP3    H153512   0.394   5.296   2.477  0.7658 -0.4918  1.9528
10699TIP3    H253513   0.464   5.197   2.386 -1.5589  0.3689 -0.9422
10700TIP3   OH253514   1.876   4.469   3.518 -0.4210 -0.0354 -0.5098
10700TIP3    H153515   1.811   4.500   3.580 -1.8541 -1.0859 -1.4204
10700TIP3    H253516   1.954   4.522   3.536 -0.8949 -0.0578  1.8923
10701TIP3   OH253517   5.748   0.157   3.674  0.0968 -0.4124  0.2586
10701TIP3    H153518   5.785   0.106   3.601  0.2985 -2.0211  1.4231
10701TIP3    H253519   5.691   0.094   3.720 -2.2538  1.3255 -0.0928
10702TIP3   OH253520   5.021   2.840   2.953 -0.0691  0.2122  0.4015
10702TIP3    H153521   5.058   2.922   2.922 -2.5187  1.5301  0.7111
10702TIP3    H253522   4.936   2.864   2.990 -2.0399 -2.7105 -1.7166
10703TIP3   OH253523   6.176   0.034   0.555  0.1215  0.5427  0.3186
10703TIP3    H153524   6.193  -0.049   0.511  0.1314  0.4945  0.4141
10703TIP3    H253525   6.118   0.081   0.495 -1.0949 -0.1346  0.9423
10704TIP3   OH253526   3.754   6.333   4.389  0.0444 -0.3274 -0.1305
10704TIP3    H153527   3.674   6.364   4.430 -0.2755  0.2362 -1.1657
10704TIP3    H253528   3.731   6.319   4.297  1.2462  0.2757 -0.5397
10705TIP3   OH253529   5.524   1.834  11.998  0.5120  0.2709 -0.4208
10705TIP3    H153530   5.611   1.866  11.972  0.7399 -0.3273 -0.4085
10705TIP3    H253531   5.507   1.761  11.940  0.7204 -0.6362  0.6175
10706TIP3   OH253532   4.610   1.837  12.368  0.4378  0.1523  0.1884
10706TIP3    H153533   4.614   1.767  12.303  0.2556 -1.2306  1.6148
10706TIP3    H253534   4.631   1.916  12.319 -0.6873 -0.6935 -1.7630
10707TIP3   OH253535   3.150   1.578  14.831 -0.0045 -0.3145 -0.0145
10707TIP3    H153536   3.199   1.648  14.875  1.3356 -1.2471  0.0229
10707TIP3    H253537   3.124   1.617  14.748  0.8395  0.2028 -0.0515
10708TIP3   OH253538   2.183   4.009   4.610 -0.0952  0.2692 -0.3029
10708TIP3    H153539   2.263   4.023   4.559  0.9119 -0.8831  0.8883
10708TIP3    H253540   2.190   3.919   4.642 -2.1131 -0.0289 -0.5374
10709TIP3   OH253541   4.870   0.880  12.136  0.1654  0.2068 -0.1407
10709TIP3    H153542   4.922   0.946  12.182 -0.2335  1.8459 -1.9384
10709TIP3    H253543   4.799   0.858  12.197  1.6855 -0.4813  1.4802
10710TIP3   OH253544   5.383   3.157  15.525 -0.1979 -0.0589  0.6497
10710TIP3    H153545   5.352   3.198  15.444 -0.7415 -0.9136  0.4073
10710TIP3    H253546   5.359   3.219  15.594 -1.3286 -0.1155  0.3300
10711TIP3   OH253547   4.793   1.352  13.234  0.4533  0.5865  0.1006
10711TIP3    H153548   4.817   1.291  13.164 -0.7974  1.3305 -1.0304
10711TIP3    H253549   4.748   1.424  13.188 -0.4274  1.0864  1.6861
10712TIP3   OH253550   3.340   3.306   2.533 -0.2084 -0.0693 -0.0039
10712TIP3    H153551   3.289   3.386   2.518 -3.6364 -1.8603  0.9919
10712TIP3    H253552   3.345   3.264   2.447  2.2268  1.3956 -0.6831
10713TIP3   OH253553   0.206   4.615  13.515 -0.2113  0.1837 -0.2373
10713TIP3    H153554   0.173   4.683  13.575 -0.0849 -0.4196  0.5314
10713TIP3    H253555   0.143   4.615  13.443  0.9287  2.5603 -1.3226
10714TIP3   OH253556   5.011   3.169  11.643 -0.1866 -0.2117  0.2138
10714TIP3    H153557   5.013   3.176  11.547 -1.4720 -1.4533  0.0647
10714TIP3    H253558   5.074   3.234  11.673  0.7201 -0.2574 -1.4950
10715TIP3   OH253559   0.475   2.607  12.231  0.1060  0.7956  0.1161
10715TIP3    H153560   0.412   2.655  12.177 -1.0579 -0.5301  0.2470
10715TIP3    H253561   0.421   2.566  12.299  1.4380  1.8454  1.9017
10716TIP3   OH253562   4.416   4.782  17.075 -0.1133  0.5309 -0.0455
10716TIP3    H153563   4.427   4.786  16.980  0.6740  0.8738  0.0506
10716TIP3    H253564   4.492   4.733  17.106 -1.4049 -1.3667  0.2424
10717TIP3   OH253565   5.253   6.467   0.569  0.1192  0.2604  0.1311
10717TIP3    H153566   5.162   6.463   0.598  0.1791  3.7045  1.2202
10717TIP3    H253567   5.249   6.514   0.485  0.7543 -1.7941 -1.1214
10718TIP3   OH253568   2.939   6.529   2.945 -0.3262 -0.3330 -0.0301
10718TIP3    H153569   2.949   6.435   2.960  1.0617 -0.6062 -2.1277
10718TIP3    H253570   2.985   6.570   3.017  3.6930 -1.4517 -1.6907
10719TIP3   OH253571   1.217   5.603  15.488  0.7519 -0.0615 -0.3686
10719TIP3    H153572   1.263   5.549  15.553 -1.0746 -1.8297 -0.4386
10719TIP3    H253573   1.125   5.589  15.507  0.1836 -0.0586 -2.8944
10720TIP3   OH253574   1.043   2.147   2.491  0.4863  0.2763  0.1080
10720TIP3    H153575   1.114   2.105   2.539 -0.8797 -0.2947  1.7537
10720TIP3    H253576   1.045   2.107   2.404  1.1953 -0.8622  0.6257
10721TIP3   OH253577   3.510   0.984  15.187 -0.0400 -0.1162  0.0868
10721TIP3    H153578   3.497   0.989  15.092  0.4491  1.2687  0.0787
10721TIP3    H253579   3.579   0.919  15.199  1.2494  1.0901 -0.6432
10722TIP3   OH253580   4.472   4.632   2.870 -0.4033 -0.6389 -0.3872
10722TIP3    H153581   4.464   4.708   2.812 -2.0296 -0.1692  0.3969
10722TIP3    H253582   4.566   4.628   2.890  0.0694 -0.3030 -2.3259
10723TIP3   OH253583   4.142   2.093  15.705  0.2060 -0.7002 -0.5938
10723TIP3    H153584   4.067   2.049  15.746 -1.4744  0.8436 -1.8461
10723TIP3    H253585   4.141   2.181  15.742 -2.4449  1.3947 -4.7550
10724TIP3   OH253586   5.946   4.757   2.652  0.0616 -0.8687 -1.1126
10724TIP3    H153587   6.016   4.699   2.683 -0.0826 -0.9580 -0.9538
10724TIP3    H253588   5.986   4.844   2.653  0.1705 -0.9180 -1.0166
10725TIP3   OH253589   3.886   3.975  15.582 -0.0945 -0.0047 -0.2821
10725TIP3    H153590   3.938   3.928  15.648 -1.3937  0.1708  0.9096
10725TIP3    H253591   3.869   3.909  15.514 -0.1377 -0.6783  0.3678
10726TIP3   OH253592   2.888   0.032  14.115 -0.5837  0.2732  0.2582
10726TIP3    H153593   2.921  -0.015  14.191 -1.2940  1.0583  1.0648
10726TIP3    H253594   2.796   0.050  14.135 -1.2680 -0.9612 -1.4970
10727TIP3   OH253595   5.115   3.073   0.726  0.0560  0.0810  0.1644
10727TIP3    H153596   5.154   3.041   0.645 -1.4051 -0.1716 -0.4698
10727TIP3    H253597   5.156   3.020   0.795  0.9278 -0.0558 -0.4364
10728TIP3   OH253598   0.865   5.292   1.144  0.1224 -0.0735 -0.6142
10728TIP3    H153599   0.949   5.335   1.132 -0.2495  0.7076 -0.4908
10728TIP3    H253600   0.870   5.214   1.088  0.9841 -0.1326 -0.4644
10729TIP3   OH253601   5.829   4.384  12.727 -0.2537 -0.2165  0.2744
10729TIP3    H153602   5.773   4.460  12.711  1.7126  1.2930  0.1843
10729TIP3    H253603   5.879   4.407  12.806  0.4503 -1.3872  0.1987
10730TIP3   OH253604   0.307   0.641  15.424 -0.8439 -0.2493 -0.0613
10730TIP3    H153605   0.245   0.641  15.351 -1.5655  1.0063  0.5306
10730TIP3    H253606   0.391   0.662  15.383 -1.5441  2.2796 -0.3461
10731TIP3   OH253607   5.585   1.170   0.608 -0.2182 -0.2525 -0.2249
10731TIP3    H153608   5.673   1.207   0.621 -0.5146 -0.3351  2.3867
10731TIP3    H253609   5.584   1.091   0.661 -2.0772  0.0763  0.2757
10732TIP3   OH253610   2.884   2.100   1.054  0.1208 -0.2602 -0.1067
10732TIP3    H153611   2.878   2.073   0.963  0.8403 -1.1479  0.1012
10732TIP3    H253612   2.812   2.054   1.098  0.5509 -0.8352  0.0043
10733TIP3   OH253613   6.456   3.844  13.191  0.1043 -0.1796 -0.2021
10733TIP3    H153614   6.367   3.809  13.185 -0.3860  1.2122 -1.5996
10733TIP3    H253615   6.445   3.937  13.207  1.2875  0.2099 -1.4973
10734TIP3   OH253616   6.412   3.615  10.775  0.1913  0.0599  0.5125
10734TIP3    H153617   6.384   3.693  10.727 -0.6108 -0.7692 -0.3987
10734TIP3    H253618   6.460   3.563  10.711  2.8848  0.8811  1.7229
10735TIP3   OH253619   3.542   3.823  11.452  0.0654 -0.5076  0.0582
10735TIP3    H153620   3.505   3.910  11.464  1.7492  0.1461  0.7527
10735TIP3    H253621   3.469   3.771  11.416 -1.3937  0.7931  0.9966
10736TIP3   OH253622   6.073   6.017   3.763  0.1078 -0.1503  0.1248
10736TIP3    H153623   6.086   6.077   3.689  1.0939 -1.9598 -1.2740
10736TIP3    H253624   6.120   6.058   3.835  1.0211  0.6351 -0.8754
10737TIP3   OH253625   2.270   1.015   0.654 -0.2568  0.2858 -0.2529
10737TIP3    H153626   2.360   1.036   0.629  0.3009  0.9097  2.0636
10737TIP3    H253627   2.265   0.919   0.647  1.0716  0.0962  0.9784
10738TIP3   OH253628   3.006   6.740   0.383 -0.4018 -0.0077  0.0800
10738TIP3    H153629   3.070   6.801   0.346  0.9871 -1.1908  0.4427
10738TIP3    H253630   3.051   6.700   0.457 -0.8564 -2.2198 -0.7553
10739TIP3   OH253631   5.788   0.458   2.788 -0.3551  0.0818 -0.0807
10739TIP3    H153632   5.803   0.411   2.706 -0.6767  3.0232 -1.9917
10739TIP3    H253633   5.713   0.413   2.828 -2.0365  0.1761 -2.8663
10740TIP3   OH253634   3.891   0.948   1.619 -0.3065 -0.6303  0.5899
10740TIP3    H153635   3.956   0.883   1.593  0.5039  0.1380  0.6651
10740TIP3    H253636   3.848   0.972   1.536 -0.7890 -1.4239  0.5935
10741TIP3   OH253637   0.473   5.087   2.220  0.3629 -0.3396 -0.2075
10741TIP3    H153638   0.398   5.137   2.187  0.7884 -0.1889 -0.9541
10741TIP3    H253639   0.442   4.996   2.221 -0.2023 -0.1553  0.5648
10742TIP3   OH253640   1.974   1.712  13.607  0.1638  0.1823 -0.2282
10742TIP3    H153641   1.997   1.758  13.688  1.1249  2.4969 -1.7018
10742TIP3    H253642   1.879   1.712  13.606  0.1340  0.0740  0.9114
10743TIP3   OH253643   4.417   0.900   5.672  0.3582  0.0826 -0.1535
10743TIP3    H153644   4.424   0.810   5.641 -1.6505  0.5992 -2.3452
10743TIP3    H253645   4.439   0.953   5.596  1.2417  1.4839  1.0324
10744TIP3   OH253646   2.679   1.418  16.069 -0.0914  0.3167 -0.6573
10744TIP3    H153647   2.635   1.341  16.105 -0.1132 -0.5967 -2.5283
10744TIP3    H253648   2.716   1.463  16.145  0.6817 -2.0155  0.4330
10745TIP3   OH253649   0.757   1.664   4.437  0.1303  0.3753  0.4496
10745TIP3    H153650   0.753   1.728   4.509  0.8949  0.6798  0.2372
10745TIP3    H253651   0.706   1.704   4.367 -1.7096 -0.5007  1.2311
10746TIP3   OH253652   1.227   0.441  11.606  0.1550  0.1801  0.3519
10746TIP3    H153653   1.203   0.350  11.622  0.3598 -0.2905 -1.7492
10746TIP3    H253654   1.211   0.485  11.689 -1.0488 -1.5350  1.0826
10747TIP3   OH253655   1.576   5.693   1.245 -0.2147 -0.5880  0.3228
10747TIP3    H153656   1.601   5.602   1.228  1.1675 -0.0398 -0.8507
10747TIP3    H253657   1.654   5.743   1.220 -1.7445  1.0966 -1.3164
10748TIP3   OH253658   0.352   1.297  14.361 -0.4705 -0.4039 -0.3453
10748TIP3    H153659   0.420   1.240  14.325  1.0870  0.6207  0.7957
10748TIP3    H253660   0.396   1.344  14.432 -2.4369  0.2209  0.5363
10749TIP3   OH253661   5.324   1.314  17.016  0.3549  0.2713  0.0981
10749TIP3    H153662   5.248   1.256  17.020  0.7967 -0.2306  1.8624
10749TIP3    H253663   5.307   1.370  16.940 -0.9902 -0.8900 -0.5082
10750TIP3   OH253664   3.929   1.934  14.884 -0.2150  0.1178  0.4017
10750TIP3    H153665   3.876   1.878  14.942  1.8631 -0.6922  1.6556
10750TIP3    H253666   3.965   1.874  14.819 -0.1604  0.5016  0.0723
10751TIP3   OH253667   1.000   6.739  15.726  0.2554 -0.4253  0.3131
10751TIP3    H153668   0.921   6.781  15.693  0.3331  0.5102  1.2698
10751TIP3    H253669   0.970   6.661  15.772  0.0915 -1.3516 -1.3066
10752TIP3   OH253670   3.669   2.594   0.422 -0.0341 -0.1232 -0.2007
10752TIP3    H153671   3.709   2.513   0.453  0.7959 -0.3934 -1.9120
10752TIP3    H253672   3.618   2.625   0.498 -1.1499 -2.6966  0.2325
10753TIP3   OH253673   6.116   1.430  14.189  0.8541 -0.1530  1.0607
10753TIP3    H153674   6.129   1.524  14.185  0.9608 -0.1969 -2.5793
10753TIP3    H253675   6.037   1.414  14.138  1.8587 -2.1570  0.0172
10754TIP3   OH253676   2.145   4.144  11.452 -0.0341  0.1935  0.4493
10754TIP3    H153677   2.140   4.190  11.536 -1.1221  1.7779 -0.4257
10754TIP3    H253678   2.059   4.101  11.443 -0.0080  0.2235  0.0483
10755TIP3   OH253679   0.315   6.444   3.060  0.6092 -0.0341 -0.5789
10755TIP3    H153680   0.275   6.357   3.052  1.0145 -0.2839  0.0336
10755TIP3    H253681   0.293   6.472   3.149  0.9762  0.2421 -0.5743
10756TIP3   OH253682   3.996   2.586   2.467  0.1898 -0.0015 -0.3114
10756TIP3    H153683   4.031   2.660   2.418  2.1095 -0.3911  0.3765
10756TIP3    H253684   4.064   2.518   2.461 -0.3905 -0.7751  1.1831
10757TIP3   OH253685   0.426   3.599  13.860 -0.3133 -0.1167  0.2477
10757TIP3    H153686   0.381   3.677  13.893  0.5007  0.5602 -0.1909
10757TIP3    H253687   0.408   3.531  13.924 -0.6551  0.5565  0.8749
10758TIP3   OH253688   3.270   0.937   3.426 -0.2704 -0.4503  0.1068
10758TIP3    H153689   3.360   0.937   3.459 -0.1966 -0.8375 -0.0887
10758TIP3    H253690   3.271   0.999   3.353  0.0612 -1.1078 -0.4709
10759TIP3   OH253691   2.734   1.012  11.431  0.6499  0.4428  0.0044
10759TIP3    H153692   2.825   1.009  11.458  1.1016  3.2179 -0.8955
10759TIP3    H253693   2.724   0.937  11.372  2.1041 -0.3326  0.6835
10760TIP3   OH253694   4.450   4.138  11.243  0.0033 -0.5733 -0.7648
10760TIP3    H153695   4.435   4.180  11.158  0.9063  0.1089 -0.5974
10760TIP3    H253696   4.361   4.124  11.278 -0.3540  1.6502 -0.6283
10761TIP3   OH253697   1.928   5.328   5.067 -0.5397 -0.2944 -0.1740
10761TIP3    H153698   1.898   5.298   5.153 -2.8576 -1.6775 -1.3408
10761TIP3    H253699   1.995   5.265   5.041 -0.5651 -0.4743  0.1994
10762TIP3   OH253700   5.968   1.848  12.872 -0.4706  0.5817 -0.1047
10762TIP3    H153701   5.958   1.869  12.965 -2.0852 -1.0834  0.1666
10762TIP3    H253702   6.062   1.839  12.859 -0.2525  0.2503  1.5306
10763TIP3   OH253703   3.787   6.043   3.092  0.6450 -0.2300  0.1681
10763TIP3    H153704   3.821   6.003   3.172  0.3803  1.5110  1.1904
10763TIP3    H253705   3.859   6.097   3.059  0.6939 -0.7984 -0.7101
10764TIP3   OH253706   2.541   2.828   6.389 -0.0381  0.5386  1.0506
10764TIP3    H153707   2.502   2.896   6.333  0.0224 -0.0776  0.2375
10764TIP3    H253708   2.468   2.794   6.440 -0.7929 -1.0759 -0.9391
10765TIP3   OH253709   4.281   2.619  11.318 -0.1187  0.1021 -0.2407
10765TIP3    H153710   4.255   2.532  11.288 -1.0847  0.0687  0.6192
10765TIP3    H253711   4.227   2.680  11.267 -1.9089  0.0384  1.4217
10766TIP3   OH253712   5.998   0.721   4.562  0.1045 -0.2950 -0.2152
10766TIP3    H153713   6.009   0.802   4.512  1.3012 -0.9478 -1.0360
10766TIP3    H253714   5.913   0.687   4.535 -0.7508  1.0361  0.6810
10767TIP3   OH253715   0.755   5.660   3.924 -0.5291 -0.2003 -0.5207
10767TIP3    H153716   0.701   5.611   3.862  0.5961 -0.5399 -1.2635
10767TIP3    H253717   0.773   5.598   3.995  1.5458 -1.2264 -1.8273
10768TIP3   OH253718   5.612   4.493  16.109 -0.2466 -0.1412  0.0816
10768TIP3    H153719   5.583   4.438  16.037  0.6188 -0.4054 -0.0802
10768TIP3    H253720   5.708   4.494  16.102 -0.2675  2.4530 -0.7114
10769TIP3   OH253721   0.728   0.790   0.942  0.2709 -0.5218  0.4342
10769TIP3    H153722   0.756   0.713   0.892  0.6814  1.1423 -2.1037
10769TIP3    H253723   0.811   0.832   0.968  0.0595 -0.5320  1.1265
10770TIP3   OH253724   1.457   3.436   2.685 -0.6230  0.1083 -0.1454
10770TIP3    H153725   1.366   3.409   2.673 -0.2656 -0.9471 -0.6424
10770TIP3    H253726   1.508   3.360   2.656  0.4336  1.0047 -0.6867
10771TIP3   OH253727   4.579   6.341   4.010  0.1039 -0.1123  0.5853
10771TIP3    H153728   4.599   6.403   4.080  1.7503 -0.6397  0.6108
10771TIP3    H253729   4.615   6.382   3.931  0.4471 -0.6434  0.4643
10772TIP3   OH253730   5.542   3.719   2.627 -0.1594 -0.2919 -0.2004
10772TIP3    H153731   5.505   3.644   2.580 -1.0525 -0.5077  0.8033
10772TIP3    H253732   5.478   3.789   2.615 -0.1239 -0.1854  0.2162
10773TIP3   OH253733   5.119   0.885   3.932  0.0890  0.3510 -0.7224
10773TIP3    H153734   5.214   0.872   3.934  0.6285  3.3874 -1.3379
10773TIP3    H253735   5.085   0.807   3.889  1.8277 -2.5712  2.6982
10774TIP3   OH253736   1.540   2.119   3.240  0.9901  0.5752  0.1708
10774TIP3    H153737   1.565   2.103   3.331  0.4870  0.6622  0.3281
10774TIP3    H253738   1.623   2.120   3.192  1.1429 -1.6775  0.2731
10775TIP3   OH253739   5.084   1.689  16.310  0.0334  0.7011 -0.4377
10775TIP3    H153740   5.107   1.710  16.219  3.0605  2.3909  0.5853
10775TIP3    H253741   5.095   1.772  16.357 -0.2829 -0.4018  1.6927
10776TIP3   OH253742   2.895   2.086  16.808 -0.1642 -0.0225  0.5335
10776TIP3    H153743   2.959   2.027  16.767 -1.2664 -0.9780  0.1166
10776TIP3    H253744   2.836   2.111  16.737 -0.3861  0.6718  0.9527
10777TIP3   OH253745   0.242   0.153  13.745  1.0785  0.8255 -0.2413
10777TIP3    H153746   0.293   0.141  13.665 -2.7805  0.2216 -2.8566
10777TIP3    H253747   0.219   0.065  13.772  1.9939  1.0505  1.4066
10778TIP3   OH253748   1.288   2.228   3.197  0.1066  0.2284 -0.8780
10778TIP3    H153749   1.252   2.180   3.121  1.1256  0.1625 -1.3360
10778TIP3    H253750   1.376   2.192   3.208  0.0075  0.3096  0.2944
10779TIP3   OH253751   1.703   4.196   2.967 -0.0822  0.3843  0.8467
10779TIP3    H153752   1.702   4.118   2.912 -1.0714  1.6145 -1.0089
10779TIP3    H253753   1.761   4.257   2.920 -2.9784  2.4107 -0.3460
10780TIP3   OH253754   5.353   3.682  16.720 -0.2860  0.2749  0.3359
10780TIP3    H153755   5.292   3.701  16.792  1.0406  2.0728  1.0567
10780TIP3    H253756   5.429   3.643  16.763 -0.1357 -0.1681 -0.3167
10781TIP3   OH253757   4.336   3.684  15.924 -0.5476 -0.3793  0.2293
10781TIP3    H153758   4.339   3.717  15.834  0.9988  0.3201  0.4960
10781TIP3    H253759   4.284   3.749  15.971 -0.0870  0.0723  0.1296
10782TIP3   OH253760   1.527   5.033  15.694 -0.1075 -0.5887 -0.3439
10782TIP3    H153761   1.524   4.950  15.646 -1.7395 -0.4067 -0.6314
10782TIP3    H253762   1.436   5.063  15.693 -0.1868 -0.4527  2.6805
10783TIP3   OH253763   2.982   2.780   5.525  0.3055 -0.4399  0.2065
10783TIP3    H153764   2.891   2.806   5.542 -0.4181 -2.5284 -0.2297
10783TIP3    H253765   3.018   2.852   5.474 -1.6990 -0.4148 -1.2782
10784TIP3   OH253766   3.236   2.690   3.142 -0.2130  0.3938 -0.1214
10784TIP3    H153767   3.146   2.725   3.145  0.1946  1.4006  1.0390
10784TIP3    H253768   3.289   2.755   3.187  1.2247  0.0873 -1.2811
10785TIP3   OH253769   2.606   3.190   1.434  0.7785 -0.0173 -0.3303
10785TIP3    H153770   2.644   3.128   1.498  1.8434  0.0971 -0.8366
10785TIP3    H253771   2.566   3.134   1.368 -0.7558 -0.1431  0.6366
10786TIP3   OH253772   1.657   4.509   2.914  0.7305  0.7041 -0.3573
10786TIP3    H153773   1.679   4.440   2.851  0.7322 -0.8708  1.2556
10786TIP3    H253774   1.563   4.523   2.903  0.6686  0.1991 -0.4944
10787TIP3   OH253775   5.936   5.630   6.341  0.1282 -0.2214 -0.4166
10787TIP3    H153776   6.010   5.598   6.289  0.0230 -0.7641 -0.2353
10787TIP3    H253777   5.968   5.711   6.382 -0.2811  1.1296 -2.5800
10788TIP3   OH253778   5.521   4.068  15.596  0.4510  0.2399  0.2709
10788TIP3    H153779   5.492   3.985  15.559 -0.1351  0.5882 -0.0603
10788TIP3    H253780   5.487   4.134  15.536 -0.2319  0.7980  1.2523
10789TIP3   OH253781   0.918   2.269  12.399  0.5316  0.4353  0.7312
10789TIP3    H153782   1.007   2.241  12.420  0.9079  1.9629  1.2954
10789TIP3    H253783   0.880   2.194  12.352  1.4039 -1.0736  2.2970
10790TIP3   OH253784   1.411   0.885  15.322 -0.1276  0.5909 -0.7189
10790TIP3    H153785   1.342   0.838  15.275  1.1389 -1.5630 -0.5746
10790TIP3    H253786   1.375   0.901  15.409 -1.0230  0.9621 -1.1517
10791TIP3   OH253787   6.731   1.707  16.535 -0.8125  0.4992  0.0044
10791TIP3    H153788   6.688   1.641  16.480  1.7137  0.8405 -2.5916
10791TIP3    H253789   6.775   1.765  16.473  1.6312  1.3640  2.3506
10792TIP3   OH253790   6.729   3.995  17.268  0.4724  0.0627  0.1784
10792TIP3    H153791   6.786   4.020  17.341  1.0930  0.6287 -0.4918
10792TIP3    H253792   6.768   3.915  17.233  0.3029 -0.0834  0.3196
10793TIP3   OH253793   5.686   1.822  16.286 -0.1182  0.3492  0.3395
10793TIP3    H153794   5.752   1.818  16.356  0.0130 -1.5454  0.1716
10793TIP3    H253795   5.727   1.873  16.217  1.3653 -1.1078  0.0871
10794TIP3   OH253796   0.401   0.376   5.473 -0.1153 -0.2996  0.4337
10794TIP3    H153797   0.486   0.334   5.485  1.0811  1.4309 -1.3987
10794TIP3    H253798   0.394   0.437   5.546  0.2429 -0.4175  0.5691
10795TIP3   OH253799   1.146   0.359  14.717 -0.1904  0.0748 -0.2965
10795TIP3    H153800   1.112   0.384  14.631 -1.6508  0.2814  0.3083
10795TIP3    H253801   1.122   0.432  14.774  0.2384 -0.3254  0.4134
10796TIP3   OH253802   6.143   0.108   0.107  0.0633 -0.1150  0.3510
10796TIP3    H153803   6.235   0.134   0.104 -0.0301  0.5291  1.9254
10796TIP3    H253804   6.144   0.021   0.147 -0.0638  0.4192  1.5701
10797TIP3   OH253805   3.297   6.096   3.350  0.0232 -0.0081  0.6832
10797TIP3    H153806   3.215   6.062   3.314  0.7072 -1.7351  0.6805
10797TIP3    H253807   3.324   6.030   3.414  1.5831  0.3611  0.4309
10798TIP3   OH253808   2.399   3.634  14.368  0.4002 -0.4436  0.0891
10798TIP3    H153809   2.369   3.605  14.282 -0.2141 -1.4035  0.5942
10798TIP3    H253810   2.491   3.654  14.357  0.4736 -1.1530 -0.6619
10799TIP3   OH253811   4.258   5.124  16.763 -0.6368 -0.0591 -1.0396
10799TIP3    H153812   4.307   5.164  16.691  0.8080  0.0500 -0.0452
10799TIP3    H253813   4.325   5.078  16.814 -1.6358 -0.1660  0.2165
10800TIP3   OH253814   6.101   0.785  11.728  0.8128  0.1423 -0.0640
10800TIP3    H153815   6.127   0.784  11.820  0.6095 -1.4418 -0.0097
10800TIP3    H253816   6.182   0.806  11.681  1.1184  0.0376  0.4108
10801TIP3   OH253817   2.167   1.045   4.942 -0.7990 -0.1736 -0.6718
10801TIP3    H153818   2.262   1.056   4.948 -0.7637 -0.9418  0.9200
10801TIP3    H253819   2.134   1.132   4.920  0.0626  1.0486  2.3329
10802TIP3   OH253820   6.304   0.870   1.760  0.3728 -0.2584  0.1497
10802TIP3    H153821   6.242   0.821   1.813  0.6485  0.9297  1.6274
10802TIP3    H253822   6.386   0.823   1.768  0.6729  0.4675  1.6799
10803TIP3   OH253823   5.311   4.181   4.209 -0.7554 -0.2719  0.3590
10803TIP3    H153824   5.333   4.117   4.142  0.7176  0.3912  0.1711
10803TIP3    H253825   5.319   4.133   4.292 -1.0392 -0.6870  0.1464
10804TIP3   OH253826   4.906   6.561  13.209 -0.4288  0.3798 -0.4617
10804TIP3    H153827   4.965   6.615  13.156 -1.5081  0.0154 -2.1429
10804TIP3    H253828   4.822   6.568  13.164 -1.7181  0.9383  1.8940
10805TIP3   OH253829   5.845   1.211  10.506  0.1014 -0.0885 -0.0781
10805TIP3    H153830   5.940   1.209  10.495 -0.0434 -1.4947 -1.3032
10805TIP3    H253831   5.828   1.156  10.582  0.3059  0.9724  0.7693
10806TIP3   OH253832   4.816   2.665  11.361 -0.5822 -0.2765  0.1916
10806TIP3    H153833   4.815   2.681  11.267  0.4516 -0.2529  0.1736
10806TIP3    H253834   4.909   2.653  11.382 -0.8866 -1.2666  1.0374
10807TIP3   OH253835   1.784   5.036  13.859 -0.0300 -0.4087 -0.2796
10807TIP3    H153836   1.753   5.126  13.851 -0.1256 -0.4056  0.1168
10807TIP3    H253837   1.736   4.987  13.792  0.2439 -0.1078 -0.6960
10808TIP3   OH253838   4.912   5.834  12.664 -0.2471 -0.1233 -0.5532
10808TIP3    H153839   4.901   5.917  12.712  3.0063 -0.0734  0.3784
10808TIP3    H253840   4.899   5.858  12.572  2.0510  1.8976 -0.4865
10809TIP3   OH253841   5.094   5.043   5.718 -0.0858  0.2450 -0.2454
10809TIP3    H153842   5.180   5.063   5.682 -0.3290  0.7036 -0.5909
10809TIP3    H253843   5.109   5.033   5.812  0.3897  0.0343 -0.3427
10810TIP3   OH253844   3.097   0.042   5.098 -0.6632  0.2820 -0.6732
10810TIP3    H153845   3.010   0.021   5.133 -0.2826 -0.9815 -0.4393
10810TIP3    H253846   3.147  -0.038   5.109  1.2081  1.6100  1.1215
10811TIP3   OH253847   4.004   5.695   1.248 -0.8108 -0.1517 -0.7203
10811TIP3    H153848   4.064   5.717   1.319  1.1963 -0.0752 -2.3346
10811TIP3    H253849   3.947   5.772   1.240 -0.9757 -0.0990  0.6445
10812TIP3   OH253850   4.910   1.312   1.005  0.2580  0.5641 -0.0206
10812TIP3    H153851   4.995   1.276   0.978  0.2334  0.3282  0.2154
10812TIP3    H253852   4.861   1.236   1.037 -0.5115  0.4701 -1.3321
10813TIP3   OH253853   3.100   4.269  12.256  0.1397  0.3282  0.2979
10813TIP3    H153854   3.088   4.176  12.238 -2.7588  0.6507 -0.0015
10813TIP3    H253855   3.044   4.313  12.191 -1.3113  2.0664  2.5569
10814TIP3   OH253856   0.671   2.579  14.093 -0.0334  0.0791 -0.5202
10814TIP3    H153857   0.613   2.626  14.153 -0.8085  0.1418 -1.3000
10814TIP3    H253858   0.755   2.624  14.101 -0.5117  0.9961 -0.5508
10815TIP3   OH253859   5.891   1.481   3.800  0.3657  0.4875 -0.0743
10815TIP3    H153860   5.873   1.484   3.706 -2.4887  2.5981  0.3910
10815TIP3    H253861   5.853   1.397   3.829 -1.1335  0.9926 -0.4808
10816TIP3   OH253862   5.015   6.754   0.185  0.6964 -0.1664  0.3978
10816TIP3    H153863   4.920   6.764   0.174  0.1821 -1.4623  2.9438
10816TIP3    H253864   5.046   6.733   0.097 -1.2514  0.9334 -0.6394
10817TIP3   OH253865   0.122   5.695   5.075  0.4688 -0.2102  0.2916
10817TIP3    H153866   0.067   5.637   5.023 -1.4560 -0.6744  2.6724
10817TIP3    H253867   0.065   5.768   5.099  1.4869  0.3286  1.1696
10818TIP3   OH253868   4.471   4.224   4.518  0.1295 -0.2142 -0.2470
10818TIP3    H153869   4.531   4.294   4.493 -1.4847  1.1523 -0.4209
10818TIP3    H253870   4.503   4.195   4.604 -0.0668  1.8247  0.5538
10819TIP3   OH253871   2.779   0.378   0.501 -0.2933  0.3473 -0.4672
10819TIP3    H153872   2.738   0.411   0.581  0.5654  1.3971 -0.4419
10819TIP3    H253873   2.822   0.297   0.528 -0.6371  0.2995 -0.0490
10820TIP3   OH253874   3.323   1.123  14.660 -0.5372  0.4047  0.1427
10820TIP3    H153875   3.269   1.195  14.693  0.9936  1.3939  0.5807
10820TIP3    H253876   3.396   1.166  14.614  0.4390 -0.8581  0.4493
10821TIP3   OH253877   6.254   4.469   0.460 -0.3584 -0.4855 -0.8368
10821TIP3    H153878   6.193   4.526   0.412  0.7271  1.5031 -0.0052
10821TIP3    H253879   6.339   4.486   0.418  0.8380  2.1132  2.2049
10822TIP3   OH253880   2.413   6.300   1.543  0.2344  0.0454  0.0707
10822TIP3    H153881   2.506   6.314   1.554  0.1168 -0.1278  1.4593
10822TIP3    H253882   2.375   6.388   1.538  0.1444  0.2630  2.8626
10823TIP3   OH253883   2.155   6.711   4.283  0.5529  0.5105  0.3078
10823TIP3    H153884   2.135   6.777   4.217 -1.2167 -1.6390 -1.4576
10823TIP3    H253885   2.077   6.706   4.337  1.3439  1.0210  1.5582
10824TIP3   OH253886   1.219   6.647  17.191 -0.4298  0.1487 -0.3147
10824TIP3    H153887   1.288   6.619  17.130 -0.5000 -0.3024 -0.1897
10824TIP3    H253888   1.264   6.699  17.257 -0.2035 -0.1683 -0.2186
10825TIP3   OH253889   5.583   3.337  17.235 -0.0374  0.5107  0.1518
10825TIP3    H153890   5.530   3.312  17.159  0.8994  1.7267 -0.9363
10825TIP3    H253891   5.641   3.262  17.248  0.7766  0.8609 -1.2582
10826TIP3   OH253892   6.689   4.992  15.244 -0.2198 -0.4295 -0.1296
10826TIP3    H153893   6.620   4.934  15.276  0.5061 -1.1047  0.2595
10826TIP3    H253894   6.768   4.938  15.246 -0.1252 -0.6000 -3.2303
10827TIP3   OH253895   4.886   3.995  10.700 -0.2136  0.0464 -0.1604
10827TIP3    H153896   4.843   3.985  10.785 -1.0274  1.7528 -0.3338
10827TIP3    H253897   4.980   3.996  10.720 -0.2811 -1.6628  0.4473
10828TIP3   OH253898   4.628   3.494  15.703  0.3625  0.2969 -0.4768
10828TIP3    H153899   4.632   3.588  15.721  0.1283  0.4300 -1.0830
10828TIP3    H253900   4.690   3.455  15.763 -0.4528  0.7089  0.6677
10829TIP3   OH253901   3.329   2.527  13.653  0.1173  0.8364  0.2658
10829TIP3    H153902   3.401   2.583  13.682  1.6830 -0.4659 -0.9512
10829TIP3    H253903   3.283   2.503  13.734  0.8359  1.9668  1.0308
10830TIP3   OH253904   5.663   1.771   6.127  0.1047  0.1918 -0.4522
10830TIP3    H153905   5.659   1.828   6.205 -1.2496 -1.4188  0.7317
10830TIP3    H253906   5.711   1.694   6.157  1.3515  0.3876 -1.8503
10831TIP3   OH253907   4.104   6.710  16.333 -0.2873 -0.1637  0.3891
10831TIP3    H153908   4.144   6.737  16.416 -0.6122  0.4056  0.3574
10831TIP3    H253909   4.057   6.787  16.302 -0.1076 -0.3483 -0.3650
10832TIP3   OH253910   0.909   5.470  14.095 -0.2077 -0.9742  0.0048
10832TIP3    H153911   0.922   5.377  14.115  1.5170 -0.2551  2.8202
10832TIP3    H253912   0.843   5.499  14.158 -1.1010 -0.3377 -1.1795
10833TIP3   OH253913   3.710   0.743   1.006  0.1969 -0.5877 -0.0091
10833TIP3    H153914   3.637   0.691   0.973 -0.3682 -0.2131  0.6515
10833TIP3    H253915   3.688   0.762   1.096  0.0849  1.3782 -0.4224
10834TIP3   OH253916   4.488   0.943   2.538 -0.4229 -0.3215  0.1498
10834TIP3    H153917   4.443   1.027   2.552 -0.8470 -0.6151  0.6186
10834TIP3    H253918   4.566   0.948   2.594  0.7250  0.6144 -1.4743
10835TIP3   OH253919   3.609   3.837  15.560  0.4570  0.3374 -0.1324
10835TIP3    H153920   3.687   3.855  15.508 -0.0086 -1.0182 -1.3659
10835TIP3    H253921   3.538   3.883  15.514  0.4081  1.0495  0.6324
10836TIP3   OH253922   1.430   6.201   1.065  0.0774 -0.1780 -0.2276
10836TIP3    H153923   1.344   6.198   1.024 -0.5542 -1.1568  1.0800
10836TIP3    H253924   1.480   6.264   1.013  1.0228 -4.5572 -5.5835
10837TIP3   OH253925   1.603   4.706   3.977  0.0446 -0.5016 -0.8640
10837TIP3    H153926   1.570   4.795   3.961  0.8496 -0.0518 -0.1291
10837TIP3    H253927   1.609   4.700   4.072 -1.2726 -1.8375 -0.8300
10838TIP3   OH253928   1.726   4.422  16.264 -0.0831  0.3057 -0.1088
10838TIP3    H153929   1.681   4.413  16.348  0.7818  1.1518  0.4700
10838TIP3    H253930   1.672   4.373  16.202  0.3670 -2.1532  1.3025
10839TIP3   OH253931   3.605   2.149   3.092 -0.5385  0.4400 -0.0478
10839TIP3    H153932   3.580   2.234   3.129 -0.8252  1.1173 -1.7438
10839TIP3    H253933   3.687   2.127   3.136  0.7077  2.6457 -1.1174
10840TIP3   OH253934   0.775   3.821  12.598 -0.1418 -0.9475 -0.0764
10840TIP3    H153935   0.758   3.803  12.690 -4.2474  0.8684 -0.2629
10840TIP3    H253936   0.699   3.785  12.552 -0.1365  1.5182 -2.2404
10841TIP3   OH253937   1.943   5.841   3.092 -0.4185  0.2140  0.2094
10841TIP3    H153938   1.983   5.756   3.108  0.5119  0.3067 -1.4170
10841TIP3    H253939   2.001   5.884   3.030 -1.7895  1.3464 -0.3528
10842TIP3   OH253940   6.378   0.090   0.979  0.0128 -0.5576 -0.0224
10842TIP3    H153941   6.294   0.094   0.933  0.4523 -1.5383 -0.9774
10842TIP3    H253942   6.409   0.180   0.980 -1.5638  0.0281  1.4040
10843TIP3   OH253943   4.054   5.059   1.760  0.1627  0.5076 -0.4985
10843TIP3    H153944   3.974   5.010   1.739  0.9474 -0.5716 -1.0740
10843TIP3    H253945   4.083   5.094   1.676  1.6303 -1.2200 -0.7709
10844TIP3   OH253946   2.172   0.360   2.461 -0.0525  0.0544 -0.0601
10844TIP3    H153947   2.096   0.309   2.490 -0.9925  1.2255 -0.3978
10844TIP3    H253948   2.196   0.321   2.377 -1.9345  1.2676 -1.2392
10845TIP3   OH253949   3.175   3.654   4.694  0.0329  0.1444 -0.3905
10845TIP3    H153950   3.210   3.643   4.606 -0.0510 -0.8894 -0.3080
10845TIP3    H253951   3.219   3.731   4.729 -0.1301  0.7247 -1.4322
10846TIP3   OH253952   6.407   1.663   0.928 -0.1871 -0.5124 -0.0551
10846TIP3    H153953   6.329   1.624   0.888  0.7587 -2.1027 -0.3990
10846TIP3    H253954   6.468   1.674   0.856  0.9202 -1.8719  0.6227
10847TIP3   OH253955   3.464   3.810  15.837  0.1399  0.1801  0.3110
10847TIP3    H153956   3.533   3.876  15.829  0.8863 -0.5678  0.3820
10847TIP3    H253957   3.475   3.776  15.926 -0.1147 -0.1632  0.2109
10848TIP3   OH253958   3.814   0.953  11.552  0.0461 -0.0766 -0.2215
10848TIP3    H153959   3.808   0.939  11.458  0.2611 -1.8404 -0.0039
10848TIP3    H253960   3.804   1.048  11.563 -0.4576  0.1034 -1.9625
10849TIP3   OH253961   3.378   5.829  11.532 -0.5671  0.0593  0.9198
10849TIP3    H153962   3.309   5.881  11.573  0.2619  1.2959  0.7823
10849TIP3    H253963   3.339   5.800  11.449 -0.5962  1.5963  0.3659
10850TIP3   OH253964   3.598   4.924  13.328 -0.1072 -0.3386  0.3177
10850TIP3    H153965   3.539   4.997  13.311 -0.4815 -1.3064 -3.2631
10850TIP3    H253966   3.664   4.961  13.387 -1.2548  2.3501  0.0821
10851TIP3   OH253967   4.830   4.929   4.109  0.0331  0.4532  0.0201
10851TIP3    H153968   4.797   4.872   4.039  1.4739 -0.3806 -0.0201
10851TIP3    H253969   4.819   5.017   4.075 -1.7000  0.2141 -0.1648
10852TIP3   OH253970   0.633   3.208   4.455 -0.1024 -0.2094  0.2672
10852TIP3    H153971   0.696   3.152   4.411 -0.0842 -0.2445  0.3370
10852TIP3    H253972   0.599   3.266   4.387 -1.9044 -1.8706 -0.3187
10853TIP3   OH253973   1.550   2.209   2.563  0.1745 -0.1784 -0.8806
10853TIP3    H153974   1.578   2.299   2.550  1.3695 -0.5124 -0.7286
10853TIP3    H253975   1.552   2.170   2.476  0.3803 -0.2577 -0.8405
10854TIP3   OH253976   6.615   4.852  16.818  0.0956  0.4736  0.2212
10854TIP3    H153977   6.684   4.824  16.878 -1.2443  0.2404  1.6974
10854TIP3    H253978   6.548   4.891  16.874 -1.3250  0.0208 -1.0871
10855TIP3   OH253979   5.937   2.631  16.305 -0.3348  0.0480  0.2153
10855TIP3    H153980   5.907   2.645  16.215  1.4164  0.0516 -0.4124
10855TIP3    H253981   5.938   2.718  16.344  2.5457  0.6646 -1.0223
10856TIP3   OH253982   5.734   1.889  14.476  0.2246  0.1422 -0.5443
10856TIP3    H153983   5.760   1.815  14.531  3.1734  0.1864 -1.6618
10856TIP3    H253984   5.680   1.850  14.407 -1.3065 -0.3192  0.8503
10857TIP3   OH253985   4.154   4.515   2.545  0.4324  0.0320  0.0474
10857TIP3    H153986   4.179   4.604   2.522  1.9148 -0.2025  0.6538
10857TIP3    H253987   4.147   4.469   2.461 -2.5519  1.1857 -0.4730
10858TIP3   OH253988   1.678   4.926   5.157 -0.0136 -0.8500 -0.8102
10858TIP3    H153989   1.645   4.924   5.068  0.2966 -0.3295 -0.9443
10858TIP3    H253990   1.615   4.979   5.206  1.5412  1.7902 -1.4879
10859TIP3   OH253991   1.607   2.093   5.291 -0.4243 -0.0431  0.3885
10859TIP3    H153992   1.591   2.172   5.342 -0.5257  0.7645 -0.8547
10859TIP3    H253993   1.698   2.070   5.310 -0.2714  0.5992  0.4615
10860TIP3   OH253994   3.482   1.520   1.917 -0.4785 -0.1413 -0.6065
10860TIP3    H153995   3.572   1.501   1.888 -0.8563 -0.5635 -1.5573
10860TIP3    H253996   3.485   1.510   2.012  0.6342  0.5123 -0.5533
10861TIP3   OH253997   4.753   0.519   6.505  0.1397 -0.1420  1.0251
10861TIP3    H153998   4.813   0.469   6.450  0.6459  0.1913  1.2703
10861TIP3    H253999   4.671   0.523   6.454  0.2886 -0.6787  0.7352
10862TIP3   OH254000   5.832   1.915   5.980  0.3981 -0.1559 -0.2201
10862TIP3    H154001   5.795   2.003   5.981 -0.7104 -0.5933 -0.7814
10862TIP3    H254002   5.770   1.862   6.030  1.3897 -0.5039  0.6719
10863TIP3   OH254003   0.022   4.759   4.470  0.3760 -0.2320  0.3642
10863TIP3    H154004  -0.066   4.767   4.506  0.4392  0.0922  0.4563
10863TIP3    H254005   0.021   4.678   4.420  0.7867 -1.6545  2.5268
10864TIP3   OH254006   5.634   0.071   1.119 -0.2433 -0.0343  0.5842
10864TIP3    H154007   5.552   0.031   1.150  0.5036 -2.2471 -0.1609
10864TIP3    H254008   5.650   0.031   1.034  1.8901 -0.0210  0.9357
10865TIP3   OH254009   5.745   5.629  11.008  0.1490  0.2447 -0.3776
10865TIP3    H154010   5.786   5.638  11.094  0.3122 -1.4477 -0.2388
10865TIP3    H254011   5.735   5.719  10.977 -0.4482  0.9533  1.6471
10866TIP3   OH254012   1.626   3.840  16.112 -0.6153  0.6653  0.5326
10866TIP3    H154013   1.692   3.786  16.154 -0.4540  1.1272  0.8867
10866TIP3    H254014   1.628   3.814  16.020 -0.0879  0.5350  0.5799
10867TIP3   OH254015   1.793   3.564   5.571  0.1183 -0.0764  0.0345
10867TIP3    H154016   1.884   3.592   5.560  0.1373  0.4036  1.3452
10867TIP3    H254017   1.742   3.640   5.546  0.1195  0.2345  0.9496
10868TIP3   OH254018   5.500   2.097   0.397 -0.1389  0.2753  0.0023
10868TIP3    H154019   5.536   2.010   0.381  1.2885  0.7858  0.2955
10868TIP3    H254020   5.413   2.095   0.357 -0.0343 -1.2057 -0.1894
10869TIP3   OH254021   0.460   5.066   3.823 -0.4522 -0.4498  0.2118
10869TIP3    H154022   0.439   5.002   3.891 -1.3700 -0.9805 -0.5309
10869TIP3    H254023   0.551   5.048   3.800 -0.1783 -0.3661  1.1699
10870TIP3   OH254024   4.009   6.202  17.001  0.4301  0.8003 -0.0284
10870TIP3    H154025   3.997   6.177  16.909  1.8643 -0.6011  0.1129
10870TIP3    H254026   3.927   6.176  17.044  0.9160 -1.5180 -0.3743
10871TIP3   OH254027   0.628   0.508   6.123 -0.7072  0.2923 -0.0667
10871TIP3    H154028   0.597   0.563   6.195 -1.2914  0.1770 -0.2265
10871TIP3    H254029   0.595   0.420   6.144  0.2273 -0.0138  0.1952
10872TIP3   OH254030   6.497   3.866  17.357  0.0193  0.2200 -0.5424
10872TIP3    H154031   6.562   3.918  17.310  0.9220 -0.6255 -0.2708
10872TIP3    H254032   6.487   3.911  17.441  1.8419 -0.7369  0.2601
10873TIP3   OH254033   1.657   2.500  16.211 -0.0332 -0.1825 -0.2684
10873TIP3    H154034   1.609   2.580  16.232  0.4976 -0.3474  1.7599
10873TIP3    H254035   1.742   2.530  16.178  0.5759  0.1269  1.5018
10874TIP3   OH254036   3.374   6.425   1.494 -0.2376  0.3907 -0.1068
10874TIP3    H154037   3.326   6.503   1.525 -1.1073  0.4374 -1.4475
10874TIP3    H254038   3.417   6.455   1.414 -0.2857 -0.4055 -0.4361
10875TIP3   OH254039   3.870   0.744   0.583 -0.1231  0.0949 -0.0798
10875TIP3    H154040   3.821   0.806   0.530 -1.1504 -0.8160 -0.2187
10875TIP3    H254041   3.882   0.789   0.667  1.2921  1.4431 -0.9512
10876TIP3   OH254042   1.263   5.851  15.100  0.1197 -0.5444  0.1627
10876TIP3    H154043   1.199   5.920  15.083  0.4270  0.0003  1.1299
10876TIP3    H254044   1.319   5.886  15.170 -0.2440 -2.0941  1.3063
10877TIP3   OH254045   0.692   1.678  14.621  0.6101  0.0866  0.2017
10877TIP3    H154046   0.746   1.603  14.595  0.7252  0.4686 -0.6964
10877TIP3    H254047   0.726   1.702  14.707  1.6357  0.0807 -0.1838
10878TIP3   OH254048   1.718   3.310   3.281 -0.8680 -0.2742 -0.5213
10878TIP3    H154049   1.762   3.395   3.287 -0.5453 -0.2917 -2.2615
10878TIP3    H254050   1.780   3.249   3.321  0.5216 -0.2100 -2.4243
10879TIP3   OH254051   3.080   4.525  16.038  0.2502 -0.5202 -0.1616
10879TIP3    H154052   3.133   4.594  16.078  0.7599 -2.0318  1.9566
10879TIP3    H254053   2.989   4.551  16.055  0.4406 -0.4136  0.7328
10880TIP3   OH254054   3.468   2.564   5.090  0.3371 -0.2078  0.6849
10880TIP3    H154055   3.438   2.648   5.125  1.3372 -0.0435  1.1938
10880TIP3    H254056   3.559   2.557   5.120  0.8306 -0.6557 -0.8438
10881TIP3   OH254057   0.600   6.634  13.871  0.3417 -0.3725 -0.3707
10881TIP3    H154058   0.600   6.701  13.803 -2.0158  0.0968  0.0162
10881TIP3    H254059   0.526   6.577  13.850  0.5746 -1.1808  0.8765
10882TIP3   OH254060   0.660   4.630   4.168 -0.2817 -0.4498  0.1245
10882TIP3    H154061   0.741   4.616   4.219  0.6257 -0.2350 -1.2035
10882TIP3    H254062   0.620   4.707   4.208  1.0271  0.4376 -0.2042
10883TIP3   OH254063   5.017   0.701  11.746  0.4950  0.1389 -0.3180
10883TIP3    H154064   5.038   0.608  11.751  1.2798  0.1486 -2.4631
10883TIP3    H254065   4.940   0.705  11.689 -0.4000  0.7433  0.8716
10884TIP3   OH254066   1.095   0.805  16.116 -0.0080 -0.8133  0.1776
10884TIP3    H154067   1.097   0.893  16.152 -1.4617  0.0586 -1.6962
10884TIP3    H254068   1.008   0.771  16.138  0.6894 -1.9996  1.2728
10885TIP3   OH254069   2.623   6.535  17.344  0.1773  0.1382  0.3691
10885TIP3    H154070   2.699   6.564  17.294 -0.5315  3.2153  0.8520
10885TIP3    H254071   2.549   6.545  17.283 -0.2884  0.7784  1.0268
10886TIP3   OH254072   0.423   4.625   5.198  0.3835  0.3275  0.6156
10886TIP3    H154073   0.359   4.647   5.266  0.5200 -1.3818  1.3493
10886TIP3    H254074   0.391   4.670   5.120  0.0602  2.1149  1.7131
10887TIP3   OH254075   5.673   5.054  13.792  0.0023 -0.2138  0.2458
10887TIP3    H154076   5.690   5.095  13.707  2.1303 -1.0768  0.2000
10887TIP3    H254077   5.592   5.005  13.779  0.0855 -0.0228 -1.1823
10888TIP3   OH254078   5.640   3.218   0.416  0.0925  0.2865  0.1995
10888TIP3    H154079   5.710   3.153   0.412 -0.0284  0.1124  0.7644
10888TIP3    H254080   5.629   3.247   0.326  2.0707  1.5627  0.3108
10889TIP3   OH254081   4.262   5.245   6.186  0.4314  0.4815 -0.5747
10889TIP3    H154082   4.297   5.182   6.249 -0.1482  0.7498  0.0260
10889TIP3    H254083   4.205   5.301   6.238  1.2906  1.7965 -1.0005
10890TIP3   OH254084   0.649   3.076   2.701  0.0058  0.3887  0.1426
10890TIP3    H154085   0.652   3.112   2.790  0.8733  1.8738 -0.4579
10890TIP3    H254086   0.628   3.151   2.645 -0.6533 -0.5519 -0.9112
10891TIP3   OH254087   0.828   6.129  16.927 -0.1651  0.2616  0.1114
10891TIP3    H154088   0.863   6.205  16.881  0.5771 -0.4553 -0.5426
10891TIP3    H254089   0.811   6.064  16.858 -0.7787 -0.1728  0.6553
10892TIP3   OH254090   3.322   2.482   5.998  0.7508  0.4038  0.5720
10892TIP3    H154091   3.364   2.449   6.077  1.9839  1.7993  0.5443
10892TIP3    H254092   3.384   2.462   5.928  1.5100  2.5953  0.5465
10893TIP3   OH254093   3.876   5.628  13.664 -0.3221  0.1372  0.1779
10893TIP3    H154094   3.902   5.715  13.695 -0.2859 -0.2495  1.2573
10893TIP3    H254095   3.865   5.639  13.570  1.9734  0.7744 -0.0791
10894TIP3   OH254096   2.150   2.936   4.777 -0.5814 -0.5479 -0.4342
10894TIP3    H154097   2.220   2.992   4.743 -0.5831 -0.3220 -0.0627
10894TIP3    H254098   2.144   2.957   4.870 -0.5010 -1.2410 -0.2598
10895TIP3   OH254099   4.272   5.126   4.264 -0.5496  0.0918  0.1429
10895TIP3    H154100   4.352   5.077   4.282 -1.7727 -1.0215  3.1339
10895TIP3    H254101   4.287   5.165   4.177  1.3399 -3.7893 -1.5215
10896TIP3   OH254102   1.367   4.133   5.303 -0.1508  0.4813  0.4194
10896TIP3    H154103   1.355   4.149   5.209  1.7672  0.8012  0.1866
10896TIP3    H254104   1.365   4.037   5.311 -1.8851  0.4844  0.3205
10897TIP3   OH254105   2.388   5.277   1.067 -0.5558 -0.2013  0.2747
10897TIP3    H154106   2.479   5.252   1.080  0.6992  3.9452  0.8725
10897TIP3    H254107   2.378   5.282   0.972  0.3105  0.6835  0.2153
10898TIP3   OH254108   1.894   6.400  12.792  0.1848 -0.0786  0.1055
10898TIP3    H154109   1.927   6.429  12.877  1.1869  0.3038 -0.3890
10898TIP3    H254110   1.968   6.354  12.752  0.0274  0.5229 -0.9192
10899TIP3   OH254111   3.885   0.555   5.519 -0.4353  0.2700  0.1035
10899TIP3    H154112   3.941   0.486   5.555 -0.9533 -0.2849 -0.1577
10899TIP3    H254113   3.934   0.587   5.443 -1.4390 -1.7429 -1.4935
10900TIP3   OH254114   1.560   3.312  13.241 -0.6373  0.6534  0.3901
10900TIP3    H154115   1.603   3.303  13.326 -1.0291 -0.1518  0.5162
10900TIP3    H254116   1.616   3.265  13.180  0.8847  3.1605 -0.2875
10901TIP3   OH254117   3.671   5.179  17.308 -0.4510  0.2729 -0.7552
10901TIP3    H154118   3.641   5.268  17.325  0.8969  0.8190 -1.0753
10901TIP3    H254119   3.702   5.148  17.393  3.2369  1.8101 -1.3213
10902TIP3   OH254120   3.082   5.728  15.459  0.0899 -0.2657 -0.5283
10902TIP3    H154121   3.028   5.800  15.490 -1.7455 -1.3150 -1.1228
10902TIP3    H254122   3.050   5.711  15.370  0.4216 -1.8384 -0.3690
10903TIP3   OH254123   4.656   2.616   2.394  0.2028 -0.0764 -0.1724
10903TIP3    H154124   4.738   2.569   2.378  1.1588  1.2685  0.5680
10903TIP3    H254125   4.684   2.700   2.431 -1.5057  0.5555 -0.2570
10904TIP3   OH254126   2.535   4.483  12.865 -0.1363 -0.9265  0.2377
10904TIP3    H154127   2.465   4.473  12.802  1.0490 -1.9916 -0.9717
10904TIP3    H254128   2.596   4.411  12.846  3.7130  2.4459 -2.0076
10905TIP3   OH254129   2.552   2.278  13.123 -0.5654  0.0570 -0.5888
10905TIP3    H154130   2.511   2.286  13.037  0.1272 -1.0091 -1.0377
10905TIP3    H254131   2.556   2.184  13.140  1.5251  0.1008 -0.5115
10906TIP3   OH254132   1.975   0.787  14.604 -0.5396  0.5321 -0.6117
10906TIP3    H154133   2.057   0.739  14.593  0.2947  2.1263 -1.6371
10906TIP3    H254134   1.991   0.848  14.675 -1.4048 -0.2244  0.2798
10907TIP3   OH254135   6.116   2.752   1.002  0.5046 -0.7341 -0.3045
10907TIP3    H154136   6.171   2.754   1.080  2.7238 -0.5537 -1.7791
10907TIP3    H254137   6.027   2.758   1.035  1.4307  1.0502  2.1181
10908TIP3   OH254138   2.400   1.489   1.638  0.1728 -0.3914 -0.5852
10908TIP3    H154139   2.396   1.428   1.712 -0.9896  0.1949 -0.1445
10908TIP3    H254140   2.441   1.568   1.675 -0.2505 -0.1594 -0.6044
10909TIP3   OH254141   0.145   4.838  15.255 -0.0873  0.0338  0.7158
10909TIP3    H154142   0.169   4.806  15.168 -1.6750 -2.3543  1.0362
10909TIP3    H254143   0.214   4.806  15.312  0.2325  0.3813  0.5231
10910TIP3   OH254144   2.508   2.677  15.499 -0.2308 -0.0443  1.1472
10910TIP3    H154145   2.582   2.638  15.452 -0.5474 -1.4856  1.8027
10910TIP3    H254146   2.491   2.759  15.452  1.1093 -0.1936  0.3476
10911TIP3   OH254147   4.326   4.744   2.286  0.1839  0.3265  0.6566
10911TIP3    H154148   4.300   4.653   2.266 -1.6586  0.2042  3.1286
10911TIP3    H254149   4.319   4.789   2.202 -0.1120 -1.5365 -0.3882
10912TIP3   OH254150   1.865   0.018   4.347 -0.8913 -0.3023 -0.0717
10912TIP3    H154151   1.814  -0.038   4.289  0.2428  1.1642 -2.6569
10912TIP3    H254152   1.813   0.097   4.355 -0.9267 -0.4047  0.7356
10913TIP3   OH254153   6.364   5.903  15.932 -0.0555 -0.1609 -0.0794
10913TIP3    H154154   6.386   5.822  15.885  0.7801  1.0652 -1.9180
10913TIP3    H254155   6.269   5.899  15.943  0.0693 -1.8437  0.7892
10914TIP3   OH254156   3.619   2.729   2.710 -0.1318 -0.3973  0.7019
10914TIP3    H154157   3.629   2.655   2.769  0.3317  1.0269  2.4914
10914TIP3    H254158   3.551   2.783   2.750 -0.6589  0.0370 -0.7130
10915TIP3   OH254159   3.600   0.507  15.425 -0.1486 -0.4204 -0.5879
10915TIP3    H154160   3.633   0.445  15.490  1.1071 -1.3152 -1.9945
10915TIP3    H254161   3.569   0.451  15.353 -0.3406  0.5387 -1.2676
10916TIP3   OH254162   4.070   6.615   4.834 -0.7157 -0.0287  0.8936
10916TIP3    H154163   4.146   6.666   4.806 -0.3969 -0.4166  1.0506
10916TIP3    H254164   3.996   6.674   4.822 -1.0054 -0.9277 -3.3004
10917TIP3   OH254165   4.165   5.140  14.277  0.4531  0.0733 -0.1451
10917TIP3    H154166   4.119   5.206  14.329 -0.0873 -1.2479  1.1526
10917TIP3    H254167   4.095   5.097  14.228  0.8654  0.7779 -1.3843
10918TIP3   OH254168   4.948   4.603   1.602  0.0883  0.0160 -0.4517
10918TIP3    H154169   4.899   4.564   1.674 -1.5269 -1.1710 -2.1098
10918TIP3    H254170   4.894   4.587   1.524  2.3033  0.1526 -2.1286
10919TIP3   OH254171   2.464   3.112  14.039 -0.0514  0.4240 -0.5410
10919TIP3    H154172   2.396   3.178  14.027  0.6050  1.0703 -0.7872
10919TIP3    H254173   2.539   3.146  13.989  1.3659  1.0673  1.8523
10920TIP3   OH254174   3.424   5.820  13.328 -0.7465 -0.6432 -0.2833
10920TIP3    H154175   3.461   5.748  13.278 -0.3669 -0.2449 -0.5923
10920TIP3    H254176   3.480   5.895  13.306 -1.1038 -0.2698  0.0667
10921TIP3   OH254177   3.681   3.133   0.087 -0.6534 -0.6806 -0.0088
10921TIP3    H154178   3.660   3.048   0.126  0.6239 -1.2594 -0.4999
10921TIP3    H254179   3.682   3.116  -0.007 -1.0201  0.0471 -0.1508
10922TIP3   OH254180   0.840   3.649   4.117  0.5494 -0.4413  0.4996
10922TIP3    H154181   0.802   3.589   4.182  1.5920 -2.5993 -0.7560
10922TIP3    H254182   0.782   3.643   4.041 -1.5104  3.2066  1.5390
10923TIP3   OH254183   1.352   0.670  14.235  0.3189 -0.0250  0.0620
10923TIP3    H154184   1.372   0.681  14.142  0.1989 -1.7010 -0.1951
10923TIP3    H254185   1.421   0.613  14.268 -1.0134 -1.4890  0.4073
10924TIP3   OH254186   1.257   2.579  14.956  0.2089  0.0240  0.2712
10924TIP3    H154187   1.342   2.584  14.912 -0.1928 -1.3565 -0.7364
10924TIP3    H254188   1.276   2.532  15.037  0.9537  2.5849  1.6908
10925TIP3   OH254189   2.708   4.607  12.266  0.5508 -0.4712  0.4196
10925TIP3    H154190   2.771   4.662  12.313 -0.2042  0.0430  0.8358
10925TIP3    H254191   2.692   4.534  12.325 -1.7044  1.0278  1.7713
10926TIP3   OH254192   2.975   1.115   6.002  0.2220 -0.2967 -0.3310
10926TIP3    H154193   2.925   1.164   5.936 -2.1340 -0.4592  1.2183
10926TIP3    H254194   2.919   1.040   6.023  1.1185 -0.5010  1.5085
10927TIP3   OH254195   2.022   5.421  10.344  0.0823  0.2449  0.6326
10927TIP3    H154196   2.021   5.389  10.434  0.1567 -2.6088 -0.3008
10927TIP3    H254197   2.060   5.350  10.293 -1.0653  1.2854 -1.8341
10928TIP3   OH254198   3.645   5.907  11.521 -0.5126 -0.5517  0.5993
10928TIP3    H154199   3.556   5.899  11.485 -0.4847  3.2730 -0.8966
10928TIP3    H254200   3.697   5.844  11.472 -2.0970 -1.6027  0.2161
10929TIP3   OH254201   4.482   3.091   1.643 -0.1205  0.0401  0.6464
10929TIP3    H154202   4.571   3.123   1.627 -0.2634  0.1038 -0.0082
10929TIP3    H254203   4.494   3.021   1.708  0.3840  0.1819  0.7135
10930TIP3   OH254204   1.057   4.712   5.035 -0.4174  0.2292 -0.3543
10930TIP3    H154205   1.143   4.702   4.994  0.6045 -0.1872  1.7272
10930TIP3    H254206   0.994   4.702   4.964  1.1938 -1.4441 -1.6268
10931TIP3   OH254207   1.883   2.690   2.830  0.1735  0.1297 -0.0717
10931TIP3    H154208   1.860   2.701   2.738 -0.6568  1.0932  0.2400
10931TIP3    H254209   1.965   2.739   2.840  1.0254 -1.1416 -0.5931
10932TIP3   OH254210   1.602   2.757   0.718  0.0147 -0.2375  0.2147
10932TIP3    H154211   1.630   2.681   0.769 -1.2584 -0.6727  0.2817
10932TIP3    H254212   1.602   2.829   0.781  0.0851 -0.4230  0.4308
10933TIP3   OH254213   5.181   3.738   0.504 -0.0235  0.0397  0.5622
10933TIP3    H154214   5.087   3.741   0.520  0.0564  0.2989  0.9938
10933TIP3    H254215   5.190   3.688   0.423 -0.4346 -1.4702  1.3937
10934TIP3   OH254216   1.971   2.055  13.184 -0.3039 -0.0558 -0.0678
10934TIP3    H154217   2.061   2.075  13.158 -0.2928  0.4799  0.3603
10934TIP3    H254218   1.976   1.968  13.222 -0.0521 -0.2229 -0.4714
10935TIP3   OH254219   6.177   4.569   4.367  0.0449  0.5815 -0.0170
10935TIP3    H154220   6.115   4.520   4.313 -1.6009  1.3237  1.0963
10935TIP3    H254221   6.207   4.506   4.432  2.2126 -0.3822 -1.8041
10936TIP3   OH254222   1.643   5.299   4.700  0.1678 -0.4564  0.7039
10936TIP3    H154223   1.579   5.321   4.632 -1.1949 -1.6383  1.5386
10936TIP3    H254224   1.609   5.341   4.779  0.4992 -0.9658  1.1261
10937TIP3   OH254225   0.887   2.052   4.477  0.0627  0.0128  0.2517
10937TIP3    H154226   0.974   2.012   4.489 -1.1829 -2.9017  0.4661
10937TIP3    H254227   0.905   2.146   4.467  3.1451 -0.3694  1.0910
10938TIP3   OH254228   6.113   3.779   5.885 -0.4627  0.3451 -0.1119
10938TIP3    H154229   6.115   3.859   5.937  0.7969 -0.4893  1.1933
10938TIP3    H254230   6.169   3.718   5.933  0.3408 -0.6427 -2.1974
10939TIP3   OH254231   2.731   4.621  14.065  0.1325  0.1268  0.2080
10939TIP3    H154232   2.683   4.695  14.028 -0.0996 -0.4745 -0.7115
10939TIP3    H254233   2.670   4.581  14.127  0.4659  1.0391  1.1603
10940TIP3   OH254234   2.071   2.129   0.838  0.5537  0.6080  0.1247
10940TIP3    H154235   2.118   2.194   0.890 -1.5767  2.5310 -0.1772
10940TIP3    H254236   2.078   2.160   0.748 -1.3790  1.1098  0.0939
10941TIP3   OH254237   1.980   6.298   1.457 -0.0088 -0.0011 -0.3574
10941TIP3    H154238   2.042   6.350   1.405 -1.7494  1.3241 -1.2232
10941TIP3    H254239   1.929   6.364   1.504 -1.8297 -0.9324 -0.9451
10942TIP3   OH254240   3.096   0.192  14.941 -0.1131 -0.3841  0.4544
10942TIP3    H154241   3.144   0.119  14.981  1.0951  0.2012  0.1137
10942TIP3    H254242   3.122   0.268  14.993 -0.2081  0.0324 -0.1050
10943TIP3   OH254243   1.878   2.475  16.583 -0.4486  0.2702  0.2495
10943TIP3    H154244   1.958   2.521  16.609 -0.6375  0.0327  1.3416
10943TIP3    H254245   1.829   2.538  16.532  0.6274  0.2748 -0.8270
10944TIP3   OH254246   0.740   0.682  12.866 -0.0022 -0.1369  0.2032
10944TIP3    H154247   0.647   0.699  12.859 -0.1337 -0.8542  0.0801
10944TIP3    H254248   0.750   0.638  12.951  0.3464  0.6759  0.5954
10945TIP3   OH254249   0.537   2.185  14.927 -0.1273  0.4421  0.3790
10945TIP3    H154250   0.471   2.153  14.866 -1.0804  0.4333  1.3996
10945TIP3    H254251   0.487   2.221  15.001  0.9839  1.2375  0.7701
10946TIP3   OH254252   4.049   6.421  13.264  0.1437 -0.3734 -0.1147
10946TIP3    H154253   3.994   6.442  13.339 -1.8114 -3.4874 -0.4838
10946TIP3    H254254   4.084   6.334  13.284  1.4428 -0.3087 -1.8395
10947TIP3   OH254255   5.644   4.981  12.168 -0.0771 -0.5134 -0.1638
10947TIP3    H154256   5.678   4.895  12.192  1.6839 -0.0189 -0.7018
10947TIP3    H254257   5.561   4.988  12.215 -1.8086 -3.6660 -2.3985
10948TIP3   OH254258   6.240   3.665   6.086  0.3433 -0.0504 -0.4308
10948TIP3    H154259   6.264   3.598   6.150  0.0326 -0.5538 -0.8372
10948TIP3    H254260   6.190   3.730   6.137 -0.9950 -1.0696 -0.3924
10949TIP3   OH254261   3.972   3.093   4.727  0.3420 -0.5733  0.4403
10949TIP3    H154262   4.053   3.119   4.772  0.2942  1.2919 -0.4651
10949TIP3    H254263   3.977   3.136   4.642 -2.1079  0.5323  0.7754
10950TIP3   OH254264   6.350   2.513   1.336  0.2552  0.4334  0.0436
10950TIP3    H154265   6.276   2.456   1.358 -0.2847  0.9868 -0.3003
10950TIP3    H254266   6.410   2.457   1.286 -0.3881  0.2329 -0.5092
10951TIP3   OH254267   3.623   3.097   5.530  0.5129 -0.2709  0.2374
10951TIP3    H154268   3.555   3.164   5.539  0.1172 -0.5770 -0.3530
10951TIP3    H254269   3.658   3.086   5.618  1.5475  1.6994  0.1380
10952TIP3   OH254270   2.190   4.974   1.654 -0.1655 -0.0702  0.4957
10952TIP3    H154271   2.249   4.900   1.637 -0.6915 -0.1417 -1.2650
10952TIP3    H254272   2.248   5.050   1.656  0.2403 -0.3833  1.1161
10953TIP3   OH254273   0.146   0.336   3.053  0.0030 -0.3797  0.3544
10953TIP3    H154274   0.096   0.292   2.985  2.3389 -1.0315 -1.0655
10953TIP3    H254275   0.145   0.275   3.127 -0.0279 -1.0549 -0.1967
10954TIP3   OH254276   0.819   3.517   6.714 -0.1624 -0.2364 -0.3704
10954TIP3    H154277   0.908   3.533   6.743 -0.2655  2.7583 -1.3607
10954TIP3    H254278   0.780   3.463   6.783  1.6130  0.7115  1.4695
10955TIP3   OH254279   1.253   4.883  15.503  0.4844  0.4326  0.1962
10955TIP3    H154280   1.158   4.872  15.497  0.4659  0.4766  0.3815
10955TIP3    H254281   1.278   4.833  15.581  0.5374  0.8605  0.4594
10956TIP3   OH254282   3.747   6.599   0.713  0.0454  0.7103  0.4156
10956TIP3    H154283   3.743   6.572   0.622 -1.6051  0.3011  0.5878
10956TIP3    H254284   3.838   6.582   0.739  0.2700 -0.1367 -0.8373
10957TIP3   OH254285   0.800   6.372  14.432 -0.2395 -0.9288  0.0311
10957TIP3    H154286   0.785   6.466  14.440  0.2434 -0.7314 -1.2752
10957TIP3    H254287   0.719   6.338  14.393  0.4710 -0.6788 -1.7517
10958TIP3   OH254288   4.781   5.074   5.882  0.7942 -0.1137 -0.2844
10958TIP3    H154289   4.722   5.011   5.925  0.0642 -0.8714 -2.2813
10958TIP3    H254290   4.843   5.099   5.951  0.3581 -2.0757  0.9147
10959TIP3   OH254291   0.123   2.254   5.534  0.4235 -0.2107 -0.5810
10959TIP3    H154292   0.190   2.295   5.480 -0.1597  0.3653 -0.8834
10959TIP3    H254293   0.093   2.323   5.593  0.5932 -0.6570  0.0364
10960TIP3   OH254294   1.920   5.908   4.374  0.0766  0.3818 -0.0678
10960TIP3    H154295   1.882   5.828   4.337  0.4582 -0.9088  2.1225
10960TIP3    H254296   1.902   5.902   4.468  4.3708  0.3181  0.9774
10961TIP3   OH254297   4.451   3.412   2.763 -0.1039 -0.1937  0.0724
10961TIP3    H154298   4.513   3.455   2.703  0.4721 -0.8933  0.1533
10961TIP3    H254299   4.490   3.326   2.780 -1.3753 -0.8536 -0.2811
10962TIP3   OH254300   2.952   4.457  11.722 -0.7101 -0.0702  0.1450
10962TIP3    H154301   2.973   4.382  11.667 -1.1134  0.5361 -0.8775
10962TIP3    H254302   2.857   4.466  11.715 -0.8063 -0.1691  1.2045
10963TIP3   OH254303   5.442   6.658  16.001 -0.3612  0.1241 -0.1705
10963TIP3    H154304   5.513   6.598  15.978 -1.5816 -1.2372 -0.5415
10963TIP3    H254305   5.411   6.691  15.916 -0.9412 -0.2146 -0.0922
10964TIP3   OH254306   4.072   5.624  14.976  0.6292  0.4453  0.4482
10964TIP3    H154307   4.113   5.710  14.966  0.1150  0.9213  2.0442
10964TIP3    H254308   4.103   5.593  15.061 -2.1511  0.7878  1.7158
10965TIP3   OH254309   3.541   0.392   3.690  0.0156 -0.0107 -0.4001
10965TIP3    H154310   3.539   0.297   3.694 -0.7345  0.0540  1.9930
10965TIP3    H254311   3.454   0.420   3.717  0.8076  1.3768  0.8639
10966TIP3   OH254312   5.613   0.257  12.870 -0.5792  0.5233  0.1753
10966TIP3    H154313   5.548   0.229  12.806 -0.9764  0.9722  0.3768
10966TIP3    H254314   5.566   0.317  12.928 -0.6768 -1.0917  1.8706
10967TIP3   OH254315   2.703   6.324  16.415  0.6564 -0.5008 -0.5746
10967TIP3    H154316   2.698   6.256  16.348 -1.9937 -1.5979  0.5701
10967TIP3    H254317   2.617   6.323  16.456  1.7859  0.9176  2.0883
10968TIP3   OH254318   6.535   3.052   4.278 -0.4297 -0.0765 -0.0594
10968TIP3    H154319   6.504   3.063   4.188 -0.6221 -0.1880 -0.0087
10968TIP3    H254320   6.629   3.039   4.271  0.3618  4.2401  0.0021
10969TIP3   OH254321   0.151   3.880   5.066  0.3501  0.4302 -0.0440
10969TIP3    H154322   0.088   3.915   5.003  0.4864 -0.6547 -0.8175
10969TIP3    H254323   0.102   3.875   5.148 -0.5690 -0.3127 -0.6062
10970TIP3   OH254324   4.007   5.403  17.306 -0.4622 -0.4974 -0.1234
10970TIP3    H154325   3.942   5.391  17.236  0.7439  0.4557 -1.4547
10970TIP3    H254326   4.054   5.483  17.282  1.5632 -1.4313  0.5072
10971TIP3   OH254327   4.328   2.308   2.119  0.1997  0.0956  0.0096
10971TIP3    H154328   4.275   2.264   2.053 -1.7585  0.4675  1.2505
10971TIP3    H254329   4.317   2.255   2.198  0.6238  0.9280  0.6425
10972TIP3   OH254330   4.367   3.661   0.495 -0.1839 -0.3436  0.3286
10972TIP3    H154331   4.293   3.710   0.459 -1.5466 -1.9485  0.8247
10972TIP3    H254332   4.404   3.720   0.562  0.9774  1.7202 -1.9655
10973TIP3   OH254333   4.250   0.720   3.980 -0.3866  0.3400  0.1988
10973TIP3    H154334   4.216   0.727   3.891 -0.9379  1.0338  0.4537
10973TIP3    H254335   4.334   0.676   3.970 -0.9282 -0.5952 -0.5538
10974TIP3   OH254336   5.446   1.892  14.937  0.1241 -0.2853  0.3163
10974TIP3    H154337   5.477   1.854  15.019  1.7067 -1.1695 -0.6384
10974TIP3    H254338   5.477   1.832  14.869  1.2891  1.8121 -1.1436
10975TIP3   OH254339   1.893   2.634   1.942 -0.4091 -0.0448 -0.7752
10975TIP3    H154340   1.986   2.617   1.928 -0.3842  0.1417 -0.8363
10975TIP3    H254341   1.877   2.718   1.901 -0.5719 -0.0044 -0.6319
10976TIP3   OH254342   4.510   2.731   4.783 -0.3074  0.3965 -0.5164
10976TIP3    H154343   4.459   2.781   4.847 -0.7193  0.1142 -0.6164
10976TIP3    H254344   4.502   2.781   4.702 -1.2796 -0.1534 -0.7860
10977TIP3   OH254345   3.696   5.687   5.126 -0.5028  0.3732 -0.1327
10977TIP3    H154346   3.673   5.600   5.158 -0.8784  0.6635  0.3953
10977TIP3    H254347   3.644   5.747   5.179  0.1600  0.9507 -0.1218
10978TIP3   OH254348   4.255   6.192   5.578 -0.1456 -0.4684 -0.3380
10978TIP3    H154349   4.199   6.116   5.589 -0.1402 -0.0998  3.4897
10978TIP3    H254350   4.199   6.257   5.535 -1.7445 -1.0543  0.7715
10979TIP3   OH254351   1.948   2.529  14.121 -0.4011  0.6639 -0.6183
10979TIP3    H154352   1.899   2.507  14.042  0.6087  0.8860 -1.3288
10979TIP3    H254353   2.013   2.459  14.129 -0.8893  0.3187  0.3621
10980TIP3   OH254354   5.786   6.464  17.042 -0.0726  0.0812 -0.3527
10980TIP3    H154355   5.733   6.493  16.968  1.7499  0.4070 -1.6029
10980TIP3    H254356   5.822   6.380  17.014 -2.4570 -1.8415  1.8152
10981TIP3   OH254357   5.814   4.669  16.263 -0.0831  0.1044  0.1625
10981TIP3    H154358   5.844   4.682  16.173  0.1201 -0.2697  0.1765
10981TIP3    H254359   5.758   4.745  16.280  1.5095  1.2521  0.4305
10982TIP3   OH254360   0.271   0.789   1.797 -0.0426 -0.1495  0.1331
10982TIP3    H154361   0.217   0.806   1.874 -0.4640 -2.1820  0.3413
10982TIP3    H254362   0.274   0.694   1.790  2.3118 -0.0885 -0.7339
10983TIP3   OH254363   1.686   2.704  11.944 -0.5169 -0.3912 -0.3293
10983TIP3    H154364   1.712   2.700  11.852  0.8297  0.6620 -0.0287
10983TIP3    H254365   1.601   2.661  11.947  0.0118 -1.6462 -1.8404
10984TIP3   OH254366   2.823   3.011   0.464  0.3615  1.0456 -0.1261
10984TIP3    H154367   2.807   2.928   0.419 -0.5313  0.4042  1.3002
10984TIP3    H254368   2.775   3.003   0.546  0.2586  2.9821  0.0466
10985TIP3   OH254369   4.778   3.133  11.781  0.0861  0.8297 -0.0173
10985TIP3    H154370   4.798   3.148  11.874  2.3120 -2.4170  0.2027
10985TIP3    H254371   4.863   3.143  11.738 -0.5974  0.6084 -1.4433
10986TIP3   OH254372   0.689   5.227   5.120  0.6488  0.2257  0.1090
10986TIP3    H154373   0.743   5.151   5.144  0.3937  0.6283  2.1504
10986TIP3    H254374   0.669   5.269   5.204  0.2817  2.2161 -0.9185
10987TIP3   OH254375   3.154   5.261   0.260  0.0397  0.1978 -0.0344
10987TIP3    H154376   3.081   5.253   0.199 -0.3153 -0.0756  0.4212
10987TIP3    H254377   3.197   5.176   0.256 -0.1115  0.1078  0.2571
10988TIP3   OH254378   5.879   1.316   4.365 -0.0043  0.5306 -0.5996
10988TIP3    H154379   5.971   1.301   4.348 -0.3493 -1.8041 -0.6828
10988TIP3    H254380   5.839   1.327   4.278 -0.4464 -3.0940 -1.0181
10989TIP3   OH254381   5.593   0.530  16.701 -0.2479  0.3219  0.2376
10989TIP3    H154382   5.622   0.605  16.649  0.0726  0.5368  0.7143
10989TIP3    H254383   5.569   0.567  16.786 -0.6585 -0.0366  0.2819
10990TIP3   OH254384   5.862   0.592  14.198 -0.2355 -0.2111 -0.5387
10990TIP3    H154385   5.895   0.503  14.204 -2.6099 -1.2296 -1.2310
10990TIP3    H254386   5.919   0.635  14.134  0.2636 -1.6044 -1.0615
10991TIP3   OH254387   4.510   3.026  16.042  0.3602 -0.7416 -0.1315
10991TIP3    H154388   4.495   3.120  16.028  0.8772 -0.3136  1.8109
10991TIP3    H254389   4.595   3.009  16.003 -0.3267 -0.7419 -1.6998
10992TIP3   OH254390   3.662   1.887  13.020 -0.3021 -0.1652 -0.6033
10992TIP3    H154391   3.731   1.947  12.990 -0.7665  0.7111  0.0213
10992TIP3    H254392   3.702   1.837  13.091 -0.4305  0.6868  0.0908
10993TIP3   OH254393   3.652   1.107   3.409 -0.0069 -0.0799  0.4104
10993TIP3    H154394   3.686   1.032   3.361 -0.8154 -0.2180  0.0366
10993TIP3    H254395   3.729   1.147   3.450  0.4992 -0.7777  0.1453
10994TIP3   OH254396   2.151   4.304  15.748  0.5018 -0.2157  0.9880
10994TIP3    H154397   2.087   4.331  15.814 -1.5246 -0.6631 -0.6769
10994TIP3    H254398   2.112   4.227  15.707  1.8337 -0.1583 -0.5037
10995TIP3   OH254399   3.216   5.560   6.150 -0.2684 -0.3707 -0.6814
10995TIP3    H154400   3.195   5.598   6.235  0.9830  0.6188 -0.7770
10995TIP3    H254401   3.312   5.560   6.147 -0.2881 -0.5994 -1.9880
10996TIP3   OH254402   3.255   5.054  14.497 -0.1710 -0.1180  0.2277
10996TIP3    H154403   3.316   4.981  14.502  0.4100  0.3801  0.5449
10996TIP3    H254404   3.236   5.064  14.403  2.7425  1.7328 -0.2945
10997TIP3   OH254405   1.594   3.028  11.093 -0.3184 -0.3155  0.2669
10997TIP3    H154406   1.681   3.058  11.119  0.1522 -1.7956  0.4972
10997TIP3    H254407   1.584   3.057  11.003 -0.2882  1.3247  0.7719
10998TIP3   OH254408   6.159   0.386   2.711 -0.3108 -0.0267  0.7410
10998TIP3    H154409   6.217   0.354   2.642 -3.7828 -2.7194 -1.2732
10998TIP3    H254410   6.101   0.448   2.666 -2.2067 -1.3154  1.2821
10999TIP3   OH254411   6.019   1.465  12.164 -0.3013 -0.0242  0.4533
10999TIP3    H154412   5.970   1.470  12.246  0.2115  1.9830  0.7011
10999TIP3    H254413   6.015   1.554  12.129  1.5626 -0.2583 -0.4571
11000TIP3   OH254414   2.410   1.027  14.710  0.1155 -0.0265  0.4218
11000TIP3    H154415   2.317   1.038  14.692  0.0725 -1.4442 -0.4149
11000TIP3    H254416   2.451   1.106  14.676 -0.5259 -0.5210 -1.6439
11001TIP3   OH254417   3.481   6.434   4.427  0.6608  0.4648 -0.2515
11001TIP3    H154418   3.462   6.408   4.337 -2.8199 -0.3382  0.5591
11001TIP3    H254419   3.447   6.524   4.433 -1.8099 -0.4469  0.8572
11002TIP3   OH254420   5.988   3.184  13.405 -0.5145  0.1410 -0.7269
11002TIP3    H154421   6.077   3.220  13.395 -0.5318  0.0880 -1.0812
11002TIP3    H254422   5.944   3.208  13.324 -0.6237 -0.4041 -0.8296
11003TIP3   OH254423   3.185   6.282  15.307 -0.3388  0.4774 -0.3805
11003TIP3    H154424   3.093   6.294  15.286 -0.5278 -0.3157 -0.0473
11003TIP3    H254425   3.206   6.195  15.274 -0.3588 -0.3679  1.6781
11004TIP3   OH254426   3.641   2.049  13.298  0.6234 -0.0041  0.2596
11004TIP3    H154427   3.715   2.072  13.354 -0.6691 -0.3565  2.1961
11004TIP3    H254428   3.612   1.963  13.329 -2.3725  1.3364  1.6145
11005TIP3   OH254429   2.464   5.151   4.526 -0.6260 -0.0977 -0.1477
11005TIP3    H154430   2.541   5.207   4.522 -0.0637 -0.8962 -0.9651
11005TIP3    H254431   2.425   5.169   4.612  0.7430 -0.0181  0.4822
11006TIP3   OH254432   1.519   4.153   6.585 -0.0258  0.2490  0.1751
11006TIP3    H154433   1.476   4.163   6.500 -1.5901  0.9394  0.9931
11006TIP3    H254434   1.543   4.243   6.610 -0.7777  0.2357  1.0198
11007TIP3   OH254435   0.440   5.461   0.164 -0.2025  0.4309 -0.0364
11007TIP3    H154436   0.377   5.525   0.199  0.9372  1.3922  0.3252
11007TIP3    H254437   0.482   5.425   0.242 -0.6018 -0.5509 -0.2573
11008TIP3   OH254438   6.341   3.343   6.517 -0.2909 -0.5466 -0.1993
11008TIP3    H154439   6.294   3.266   6.548 -1.3384  0.3120  0.4180
11008TIP3    H254440   6.400   3.365   6.589 -2.0066  0.8514  0.8714
11009TIP3   OH254441   4.041   2.028  16.810  0.1847 -0.2629  0.0860
11009TIP3    H154442   4.004   1.990  16.730  0.9220 -1.3532  0.2311
11009TIP3    H254443   4.115   2.080  16.780 -0.6465  0.8503 -0.0854
11010TIP3   OH254444   4.631   2.269  13.764  0.1746  0.0186 -0.0701
11010TIP3    H154445   4.716   2.225  13.754 -0.1784 -0.3639 -1.6478
11010TIP3    H254446   4.570   2.198  13.784 -0.1123 -0.0179 -1.0107
11011TIP3   OH254447   5.960   2.222  12.027 -0.2291 -0.1472 -0.4855
11011TIP3    H154448   5.940   2.223  12.121 -0.9504 -1.5829 -0.6062
11011TIP3    H254449   6.043   2.176  12.021  0.3833  0.9332 -0.4699
11012TIP3   OH254450   6.197   6.457  14.717  0.2249  0.5626  0.2768
11012TIP3    H154451   6.251   6.506  14.779  0.7723  0.3514 -0.0223
11012TIP3    H254452   6.201   6.509  14.636 -2.0753  1.8754  0.9284
11013TIP3   OH254453   4.908   3.821  16.690 -0.0440  0.0812  0.3471
11013TIP3    H154454   4.868   3.886  16.632  2.2474  1.8800  0.6275
11013TIP3    H254455   4.876   3.844  16.777 -1.8760 -1.3641  0.1332
11014TIP3   OH254456   0.878   1.017  16.711 -0.2712  0.3717 -0.9078
11014TIP3    H154457   0.842   0.956  16.775  1.0523  0.1334 -0.3633
11014TIP3    H254458   0.900   0.963  16.635 -0.8569  0.4866 -1.1660
11015TIP3   OH254459   1.436   1.882  13.410  0.1447  0.4310 -0.2431
11015TIP3    H154460   1.529   1.876  13.429 -0.0129 -0.1014  0.4211
11015TIP3    H254461   1.393   1.875  13.496 -0.4816  1.5283 -0.4360
11016TIP3   OH254462   6.437   1.509   6.066 -0.0555  0.2591  0.2396
11016TIP3    H154463   6.426   1.586   6.122 -0.4830 -0.5111  1.2350
11016TIP3    H254464   6.532   1.501   6.055  0.1770 -0.6265  2.3932
11017TIP3   OH254465   5.843   6.676   1.976  0.1033  0.2874 -0.2814
11017TIP3    H154466   5.856   6.673   1.882 -1.5587  0.2345 -0.5373
11017TIP3    H254467   5.851   6.585   2.005 -1.0739  0.0466 -0.6516
11018TIP3   OH254468   0.292   5.461   6.300 -0.5309 -0.0258 -0.5413
11018TIP3    H154469   0.218   5.459   6.240 -0.3309  1.7668 -0.8915
11018TIP3    H254470   0.332   5.547   6.287  1.0661 -0.5873  0.3103
11019TIP3   OH254471   0.337   4.797   2.192  0.0841  0.3321 -0.0481
11019TIP3    H154472   0.268   4.786   2.127 -0.6442 -2.2884  1.0190
11019TIP3    H254473   0.408   4.739   2.162  1.5441  2.3386 -0.6806
11020TIP3   OH254474   3.520   0.031   5.852  0.0419 -0.5971  0.1119
11020TIP3    H154475   3.564   0.000   5.773 -0.3178 -0.4241 -0.1537
11020TIP3    H254476   3.468  -0.043   5.881  0.1994 -0.6716  0.2101
11021TIP3   OH254477   4.520   2.002  12.820 -0.3651  0.3914  0.4001
11021TIP3    H154478   4.602   2.037  12.784  0.1641 -0.2628  0.9417
11021TIP3    H254479   4.480   1.954  12.748 -0.2004  0.5962  0.1732
11022TIP3   OH254480   2.770   6.244   1.318 -0.3948  0.1282 -0.0382
11022TIP3    H154481   2.713   6.306   1.272  1.0180 -1.0352 -3.7157
11022TIP3    H254482   2.736   6.158   1.294  2.4134 -0.5930 -1.8522
11023TIP3   OH254483   2.293   4.673   5.407  0.3836 -0.0636 -0.0045
11023TIP3    H154484   2.295   4.618   5.486  0.7670  0.6553  0.4991
11023TIP3    H254485   2.301   4.611   5.335 -1.5047 -0.8787  0.4364
11024TIP3   OH254486   6.307   6.141   0.335 -0.2819 -0.4794  0.2638
11024TIP3    H154487   6.376   6.181   0.283 -1.1035 -1.1506 -1.3998
11024TIP3    H254488   6.340   6.144   0.425  1.1334  0.7883 -0.2635
11025TIP3   OH254489   4.387   5.116   4.981 -0.5606 -0.4527 -0.0077
11025TIP3    H154490   4.371   5.031   4.942 -2.0637 -0.2318  0.0386
11025TIP3    H254491   4.306   5.165   4.965 -0.3203  0.4326  1.2973
11026TIP3   OH254492   3.842   3.952   3.289  0.5692 -0.3076  0.3565
11026TIP3    H154493   3.918   3.981   3.338 -0.4425  2.5083  0.4309
11026TIP3    H254494   3.854   3.990   3.202 -0.4278 -0.3482  0.1912
11027TIP3   OH254495   3.904   2.717  14.799  0.5003  0.0501 -0.3375
11027TIP3    H154496   3.829   2.775  14.813  0.3104  0.3172 -2.2139
11027TIP3    H254497   3.872   2.648  14.741  1.3518 -0.5974 -0.0622
11028TIP3   OH254498   5.423   2.895   1.331  1.1835 -0.0274 -0.5924
11028TIP3    H154499   5.353   2.954   1.306  1.0412  0.1777  0.2426
11028TIP3    H254500   5.379   2.820   1.371  1.4091 -0.2165 -0.6932
11029TIP3   OH254501   3.269   0.837  13.834 -0.5364 -0.3164  0.0318
11029TIP3    H154502   3.319   0.845  13.753 -0.8399 -2.9525 -0.5130
11029TIP3    H254503   3.277   0.922  13.876 -0.2534  1.1105 -2.6844
11030TIP3   OH254504   3.510   2.338   0.881  0.5652  0.0187  0.0954
11030TIP3    H154505   3.551   2.273   0.822 -0.5926  0.0054 -0.7226
11030TIP3    H254506   3.435   2.371   0.832  1.8510  3.0014 -0.0800
11031TIP3   OH254507   6.614   5.938  10.983 -0.5549  0.0740 -0.2349
11031TIP3    H154508   6.547   5.988  10.936 -0.3548  0.1438 -0.4458
11031TIP3    H254509   6.671   5.904  10.915  0.1484  0.7629 -0.0131
11032TIP3   OH254510   0.597   2.282  13.369 -0.2754  0.2636  0.3264
11032TIP3    H154511   0.645   2.313  13.445 -1.3280 -0.3077  1.2543
11032TIP3    H254512   0.626   2.191  13.358  0.6300  0.6441 -0.5999
11033TIP3   OH254513   5.125   5.080   0.234  0.1485 -0.4777  0.0209
11033TIP3    H154514   5.093   5.170   0.236 -0.7108 -0.7830  0.7321
11033TIP3    H254515   5.156   5.063   0.323 -0.1174 -1.0215  0.0197
11034TIP3   OH254516   3.997   1.265   5.735 -0.0650 -0.5440  0.0118
11034TIP3    H154517   4.026   1.275   5.645 -0.0839 -1.0659 -0.0516
11034TIP3    H254518   3.944   1.185   5.736  0.4482 -0.8922  0.6089
11035TIP3   OH254519   6.691   3.666   2.843 -0.2104  0.8263  0.1917
11035TIP3    H154520   6.675   3.697   2.755 -0.1023  1.4385  0.3832
11035TIP3    H254521   6.718   3.744   2.892  0.4979  0.3574  0.5735
11036TIP3   OH254522   6.440   5.715   3.324 -0.3192  0.2007  0.0421
11036TIP3    H154523   6.379   5.721   3.397  1.4641 -2.0769  1.8578
11036TIP3    H254524   6.421   5.630   3.284  0.5816  0.1943 -0.3875
11037TIP3   OH254525   4.734   4.448   0.466  0.0764  0.2777  0.0225
11037TIP3    H154526   4.676   4.435   0.542 -1.1363 -2.0768 -1.1941
11037TIP3    H254527   4.677   4.487   0.399  0.6630  0.6332 -0.2776
11038TIP3   OH254528   0.247   1.618   3.523 -0.0992  0.2105 -0.5908
11038TIP3    H154529   0.207   1.704   3.510  1.2587  0.7302 -1.6352
11038TIP3    H254530   0.250   1.607   3.618 -1.7181  0.6005 -0.4705
11039TIP3   OH254531   5.734   1.480   2.512 -0.0649 -0.7236 -0.6356
11039TIP3    H154532   5.743   1.496   2.418  1.6153 -1.3909 -0.6269
11039TIP3    H254533   5.703   1.389   2.518 -0.4207 -0.5960 -0.5512
11040TIP3   OH254534   0.400   1.009   1.243 -0.2572 -0.3585  0.7003
11040TIP3    H154535   0.308   1.010   1.267 -0.4009 -1.4217  0.2206
11040TIP3    H254536   0.408   0.938   1.180  0.3183  1.5882 -1.5822
11041TIP3   OH254537   1.055   2.205   3.746  0.5173 -0.4952 -0.2239
11041TIP3    H154538   1.056   2.210   3.651  0.0620  1.8448 -0.1491
11041TIP3    H254539   1.147   2.199   3.771  0.7370  0.5738 -0.7581
11042TIP3   OH254540   0.383   2.648   3.062  0.1407  0.1686 -0.1639
11042TIP3    H154541   0.403   2.614   3.149  0.0421  2.7860  0.9668
11042TIP3    H254542   0.287   2.649   3.058  0.1390 -0.6666 -0.6451
11043TIP3   OH254543   4.884   4.107  12.612  0.4974  0.3547 -0.1952
11043TIP3    H154544   4.941   4.162  12.666 -1.4216  2.6146 -0.3211
11043TIP3    H254545   4.854   4.165  12.542  0.1120 -1.5230 -1.6533
11044TIP3   OH254546   0.327   5.221  16.513  0.4177  0.0434  0.4198
11044TIP3    H154547   0.359   5.249  16.427 -0.3102 -0.1694  0.0709
11044TIP3    H254548   0.391   5.156  16.542  1.1196  0.7217  0.4221
11045TIP3   OH254549   5.389   2.834   6.026  0.2281  0.5754 -0.3360
11045TIP3    H154550   5.317   2.839   5.962 -0.2816  1.0273  0.2674
11045TIP3    H254551   5.346   2.835   6.111  0.8100 -1.3968  0.0402
11046TIP3   OH254552   6.553   0.370   2.045 -0.4495 -0.5797 -0.0356
11046TIP3    H154553   6.536   0.371   2.139 -0.2183  2.0702  0.0661
11046TIP3    H254554   6.471   0.342   2.005 -1.3951  0.7635  0.8861
11047TIP3   OH254555   0.104   5.981  14.729  0.3873  0.0977 -0.2967
11047TIP3    H154556   0.181   6.002  14.676 -0.8317  1.2193 -1.6793
11047TIP3    H254557   0.106   6.046  14.799 -0.1549  1.1645 -1.2427
11048TIP3   OH254558   4.175   2.038   5.277  0.0127  0.0776  0.0956
11048TIP3    H154559   4.256   2.070   5.316 -0.8442  2.2202  0.2603
11048TIP3    H254560   4.110   2.105   5.298 -1.5120 -0.9237 -1.1626
11049TIP3   OH254561   2.971   0.787   0.031 -0.5364  0.1751  0.4799
11049TIP3    H154562   2.962   0.851  -0.039  0.8273  0.5163  0.5869
11049TIP3    H254563   3.058   0.803   0.068 -0.6294 -0.9733  1.2767
11050TIP3   OH254564   5.212   1.304  16.288  0.0744  0.2059  0.3189
11050TIP3    H154565   5.238   1.375  16.347 -0.3504  1.7085 -1.2501
11050TIP3    H254566   5.261   1.320  16.208  0.6176 -1.7986  0.1996
11051TIP3   OH254567   1.949   3.590  13.606  0.6545 -0.0882 -0.6166
11051TIP3    H154568   1.920   3.580  13.696  3.0715  0.8085  0.3477
11051TIP3    H254569   2.041   3.618  13.613  0.8586  0.2192 -3.3442
11052TIP3   OH254570   4.605   5.011  13.784  0.3597 -0.2384  0.2505
11052TIP3    H154571   4.602   5.028  13.878 -1.2272  2.4914 -0.1927
11052TIP3    H254572   4.667   5.075  13.749  0.0713 -0.4514 -0.7014
11053TIP3   OH254573   3.483   5.708   6.054  0.1370  0.2584 -0.3819
11053TIP3    H154574   3.559   5.723   5.997 -0.4872 -0.7638 -1.5500
11053TIP3    H254575   3.495   5.618   6.085  0.4485  0.7833  1.1340
11054TIP3   OH254576   4.079   5.272   2.203 -0.4439 -0.1847 -0.7215
11054TIP3    H154577   4.124   5.333   2.261  0.0370  0.1261 -1.4107
11054TIP3    H254578   4.146   5.211   2.174 -0.8416 -0.8073 -0.3469
11055TIP3   OH254579   3.441   6.610  11.792  0.4512 -0.3363 -0.5358
11055TIP3    H154580   3.416   6.517  11.791  1.5375 -0.6718  0.8911
11055TIP3    H254581   3.406   6.643  11.875  2.3489 -0.1723  0.2530
11056TIP3   OH254582   4.404   4.833  12.522  0.0286  0.2036  0.2730
11056TIP3    H154583   4.392   4.761  12.583  2.0013 -0.5858 -0.2051
11056TIP3    H254584   4.317   4.845  12.481 -0.1359 -2.5567 -0.3379
11057TIP3   OH254585   0.476   3.074  12.480 -0.2717 -0.4735  0.2984
11057TIP3    H154586   0.505   2.999  12.533  2.3891  0.1715 -0.0900
11057TIP3    H254587   0.557   3.110  12.443 -1.7523  0.8472 -1.9045
11058TIP3   OH254588   5.086   4.129   0.055 -0.5640 -0.1789  0.3958
11058TIP3    H154589   5.123   4.203   0.104 -0.4725 -0.2300  0.4042
11058TIP3    H254590   5.055   4.068   0.123  1.3366 -1.1668  0.4537
11059TIP3   OH254591   6.593   4.287   2.889 -0.2819  0.1911  0.3658
11059TIP3    H154592   6.568   4.379   2.896  0.3434  0.2877  1.4736
11059TIP3    H254593   6.668   4.277   2.948 -0.7846 -1.1783  0.8285
11060TIP3   OH254594   3.111   4.637   4.203 -0.3090  0.1065  0.0539
11060TIP3    H154595   3.039   4.684   4.244 -1.5799 -2.2454  0.7217
11060TIP3    H254596   3.186   4.651   4.261 -1.1518 -0.2366  1.2528
11061TIP3   OH254597   3.836   5.753  14.864  0.0573 -0.3455 -0.7026
11061TIP3    H154598   3.878   5.681  14.817  0.7941 -1.1456  1.0841
11061TIP3    H254599   3.758   5.713  14.904  0.9412 -0.4419  1.0359
11062TIP3   OH254600   1.682   6.598  16.581  0.2789 -0.1474  0.6334
11062TIP3    H154601   1.597   6.635  16.605  0.5288  1.1380 -0.3343
11062TIP3    H254602   1.693   6.522  16.639 -0.9927  0.3544  1.5739
11063TIP3   OH254603   0.675   1.600   2.725  0.3674  0.0964  0.5335
11063TIP3    H154604   0.593   1.606   2.774  1.3340  2.1548  2.0562
11063TIP3    H254605   0.671   1.515   2.683 -2.1770 -0.2181  1.2145
11064TIP3   OH254606   4.401   3.560  17.228  0.1381 -0.1155 -0.3169
11064TIP3    H154607   4.496   3.558  17.238  0.2138 -2.4857 -0.8939
11064TIP3    H254608   4.386   3.524  17.140 -1.2798  1.2592 -0.6831
11065TIP3   OH254609   5.356   0.421   1.406 -0.2064  0.3720 -0.2382
11065TIP3    H154610   5.319   0.400   1.320 -0.1599 -1.6355  0.1831
11065TIP3    H254611   5.345   0.341   1.457  2.6021  0.4300  0.6479
11066TIP3   OH254612   6.386   5.340   1.474  0.6717 -0.1600  0.0582
11066TIP3    H154613   6.409   5.269   1.415 -1.2421 -0.0801 -0.8606
11066TIP3    H254614   6.419   5.419   1.431  2.0414 -0.3798  0.6629
11067TIP3   OH254615   4.121   5.215  12.700  0.0635  0.6709  0.5525
11067TIP3    H154616   4.097   5.243  12.788  1.4862  1.0523  0.8552
11067TIP3    H254617   4.203   5.168  12.711 -0.4607 -0.5366 -0.4128
11068TIP3   OH254618   5.302   5.484  12.759 -0.2397 -0.0514 -0.1532
11068TIP3    H154619   5.233   5.440  12.710  1.0360 -0.4980 -1.6265
11068TIP3    H254620   5.363   5.516  12.693  0.2241  1.6589  1.0223
11069TIP3   OH254621   4.713   5.014  16.864 -0.2516 -0.0807 -0.1106
11069TIP3    H154622   4.679   5.103  16.848  0.8862  0.5187  0.6407
11069TIP3    H254623   4.649   4.956  16.823 -2.0522  1.0068  1.0146
11070TIP3   OH254624   5.485   3.402   0.562 -0.2115 -0.2057  0.2603
11070TIP3    H154625   5.500   3.488   0.522  0.6273  0.8300  2.6253
11070TIP3    H254626   5.534   3.341   0.508  0.8137  1.1126 -0.3458
11071TIP3   OH254627   5.893   1.180  13.098  0.8030  1.0032  0.6032
11071TIP3    H154628   5.798   1.168  13.097  0.8411  0.5886  1.1882
11071TIP3    H254629   5.920   1.168  13.008  0.2720  1.3600  0.3903
11072TIP3   OH254630   5.500   3.182  15.065  0.3772 -0.2910  0.4900
11072TIP3    H154631   5.465   3.265  15.097  1.1824 -0.4263  1.8298
11072TIP3    H254632   5.488   3.185  14.970 -1.1269  0.6202  0.6843
11073TIP3   OH254633   4.727   6.554  13.442 -0.7944 -0.3320  0.0005
11073TIP3    H154634   4.779   6.609  13.500 -0.3154  0.5955 -1.2769
11073TIP3    H254635   4.790   6.518  13.380 -1.5607  0.2236 -1.1232
11074TIP3   OH254636   1.308   5.625  14.717 -0.4615 -0.0185  0.0834
11074TIP3    H154637   1.311   5.721  14.711 -2.2661  0.0408 -0.2996
11074TIP3    H254638   1.309   5.607  14.811 -2.1231  0.5018  0.2296
11075TIP3   OH254639   0.844   1.121   6.579 -0.0744 -0.7305  0.4529
11075TIP3    H154640   0.918   1.166   6.539 -0.9954 -0.0891 -0.6054
11075TIP3    H254641   0.833   1.162   6.664  0.8554 -0.9185  0.6643
11076TIP3   OH254642   4.325   6.610   5.278  0.4521  0.3256 -0.2991
11076TIP3    H154643   4.380   6.589   5.353  1.1483  0.9492 -0.6216
11076TIP3    H254644   4.247   6.556   5.289  0.9342 -0.2386  0.3999
11077TIP3   OH254645   0.474   1.544   5.714  0.1020 -0.6066 -0.0566
11077TIP3    H154646   0.400   1.563   5.656  0.9276 -0.2020 -1.0093
11077TIP3    H254647   0.440   1.481   5.777 -2.2320  2.4135  2.0202
11078TIP3   OH254648   2.209   0.526   3.797  0.1286  0.9139  0.0255
11078TIP3    H154649   2.273   0.559   3.735 -1.1541  0.6162 -1.5249
11078TIP3    H254650   2.149   0.473   3.744  0.5806 -1.7548  1.9788
11079TIP3   OH254651   3.277   2.816  13.607 -0.1181 -0.4042  0.3909
11079TIP3    H154652   3.224   2.844  13.532 -0.5118 -2.3676 -0.1222
11079TIP3    H254653   3.245   2.729  13.628  2.9602 -1.7582 -0.0331
11080TIP3   OH254654   3.075   0.810   5.399 -0.3728  0.0939  0.3015
11080TIP3    H154655   3.070   0.782   5.491  0.0407 -0.1362  0.2535
11080TIP3    H254656   3.067   0.905   5.403 -3.2551 -0.0600  0.3581
11081TIP3   OH254657   2.525   5.462   5.741  0.2274 -0.3589  0.0618
11081TIP3    H154658   2.458   5.434   5.804 -0.5470  1.7349  0.2421
11081TIP3    H254659   2.476   5.506   5.672  1.2880 -0.4173 -0.7395
11082TIP3   OH254660   0.315   6.443   5.768 -0.0432  0.1503 -0.2317
11082TIP3    H154661   0.247   6.397   5.818  0.1200 -1.2379 -1.2264
11082TIP3    H254662   0.366   6.489   5.835 -0.9144 -0.1906  0.7029
11083TIP3   OH254663   1.518   5.351   5.416 -0.4870 -0.3401  0.2327
11083TIP3    H154664   1.452   5.283   5.430  0.0416 -0.7683  0.6857
11083TIP3    H254665   1.578   5.342   5.489  1.1089 -1.1768 -1.1088
11084TIP3   OH254666   1.090   5.912   3.331  0.3801 -0.3255  0.2632
11084TIP3    H154667   1.080   5.838   3.271 -1.3145 -1.2424  1.5950
11084TIP3    H254668   1.033   5.891   3.404 -0.4235  2.4851  0.5351
11085TIP3   OH254669   1.198   1.061   1.961  0.3006  0.1522 -0.4230
11085TIP3    H154670   1.262   0.992   1.977 -0.1453  0.2923  2.6666
11085TIP3    H254671   1.141   1.026   1.893  0.2101 -2.4911  0.8740
11086TIP3   OH254672   5.095   3.134  11.954  0.0112 -0.5470 -0.2771
11086TIP3    H154673   5.171   3.188  11.934  0.0454 -0.0578  1.0410
11086TIP3    H254674   5.073   3.157  12.045 -1.2420 -1.2329 -0.3866
11087TIP3   OH254675   4.081   1.366  16.899  0.3709 -0.3036 -0.0911
11087TIP3    H154676   4.059   1.450  16.858  0.7742 -0.2535 -0.2065
11087TIP3    H254677   4.088   1.305  16.826 -1.6405 -0.8452  0.1088
11088TIP3   OH254678   0.327   0.161   2.698 -0.2285 -0.5030  0.0638
11088TIP3    H154679   0.386   0.123   2.634 -0.7379 -1.2692  0.0418
11088TIP3    H254680   0.349   0.117   2.780 -1.4546 -1.5628 -0.1467
11089TIP3   OH254681   2.663   5.247   1.091  0.2232 -0.5491  0.4647
11089TIP3    H154682   2.713   5.176   1.050  1.0494  0.3069 -0.0418
11089TIP3    H254683   2.730   5.308   1.123 -0.4690  0.9510 -0.7987
11090TIP3   OH254684   6.240   3.097  16.958  0.1817  0.8724 -0.4518
11090TIP3    H154685   6.303   3.151  17.006  1.6399  0.0135 -1.3072
11090TIP3    H254686   6.176   3.069  17.024  0.8287  1.5924  0.5005
11091TIP3   OH254687   2.106   5.510  14.266  0.5644 -0.0735 -0.4864
11091TIP3    H154688   2.158   5.483  14.342 -0.5571 -1.0387 -0.0297
11091TIP3    H254689   2.170   5.550  14.206  1.7072 -0.6134  0.3301
11092TIP3   OH254690   6.333   3.585   3.968 -0.0814  0.1213 -0.5392
11092TIP3    H154691   6.382   3.667   3.963  0.5550 -0.1332  1.1392
11092TIP3    H254692   6.377   3.535   4.036 -1.1320 -1.1788 -0.7894
11093TIP3   OH254693   2.253   2.142  13.090  0.0448  0.8201 -0.0840
11093TIP3    H154694   2.328   2.083  13.101 -0.6516  0.2929  2.2916
11093TIP3    H254695   2.273   2.191  13.010  1.9139 -0.7572 -0.6649
11094TIP3   OH254696   6.714   4.775  12.170  0.1838 -0.4673  0.2497
11094TIP3    H154697   6.734   4.689  12.134  0.6323  0.3465 -1.5622
11094TIP3    H254698   6.760   4.836  12.113  1.1467  0.9317  2.4090
11095TIP3   OH254699   3.151   6.225  14.175  0.0273  0.1505 -0.0441
11095TIP3    H154700   3.081   6.278  14.137  1.4448  0.7004 -2.0850
11095TIP3    H254701   3.145   6.141  14.130  1.1298  0.4760 -0.8528
11096TIP3   OH254702   1.569   5.544  15.367 -0.3642  0.1701 -0.1973
11096TIP3    H154703   1.515   5.620  15.386  0.7304  0.5903  1.4126
11096TIP3    H254704   1.517   5.492  15.306 -2.7798  0.3414  1.6031
11097TIP3   OH254705   6.144   0.068   2.289 -0.6529  0.1652  0.9076
11097TIP3    H154706   6.147   0.086   2.195 -0.4695 -1.0322  0.6616
11097TIP3    H254707   6.069   0.117   2.321 -0.6739  0.6432  0.1500
11098TIP3   OH254708   5.490   2.024   0.642 -0.4127 -0.1559 -0.2234
11098TIP3    H154709   5.396   2.031   0.662 -0.1057  1.0118  0.9006
11098TIP3    H254710   5.499   2.064   0.556 -0.8285  0.5214  0.0362
11099TIP3   OH254711   4.473   4.392  16.794  0.3548  0.2559  0.5201
11099TIP3    H154712   4.409   4.387  16.723  2.2632 -1.5750 -1.2375
11099TIP3    H254713   4.433   4.343  16.866 -0.1778 -1.0562 -0.6230
11100TIP3   OH254714   2.223   6.394   3.249 -0.0603  0.2844  0.6523
11100TIP3    H154715   2.288   6.464   3.262  1.0722 -0.2336 -1.6117
11100TIP3    H254716   2.212   6.355   3.336  0.7997  1.9768  1.5729
11101TIP3   OH254717   2.612   1.585   0.950  0.4793  0.0984  1.2513
11101TIP3    H154718   2.580   1.527   0.880  2.8679  0.0771  0.0660
11101TIP3    H254719   2.621   1.528   1.026  0.9603 -0.6737  0.6383
11102TIP3   OH254720   5.414   0.794  13.637 -0.2325  0.1443 -0.3801
11102TIP3    H154721   5.437   0.760  13.724 -0.4064  0.7152 -0.1050
11102TIP3    H254722   5.465   0.874  13.629  0.3922 -0.3164 -1.1422
11103TIP3   OH254723   0.853   2.620   0.843  0.1946  0.0297  0.1009
11103TIP3    H154724   0.917   2.572   0.791 -0.1291 -1.6222  1.1489
11103TIP3    H254725   0.777   2.630   0.785  0.1706 -0.9960 -0.0503
11104TIP3   OH254726   4.642   2.267   5.093  0.2770  0.1050 -0.3071
11104TIP3    H154727   4.724   2.228   5.062  0.7310  1.5701 -1.0280
11104TIP3    H254728   4.656   2.280   5.186  1.0277  0.7090 -0.4972
11105TIP3   OH254729   4.465   4.345  12.477  0.2298 -0.1711  0.0276
11105TIP3    H154730   4.505   4.286  12.413 -0.6795 -1.9998  1.0566
11105TIP3    H254731   4.372   4.323  12.475 -0.4449  2.3340 -0.6287
11106TIP3   OH254732   3.313   5.736  16.226  0.1733  0.0321  0.3563
11106TIP3    H154733   3.306   5.775  16.139  0.5879 -0.1821  0.2287
11106TIP3    H254734   3.384   5.673  16.219  0.6230  0.4612  1.0214
11107TIP3   OH254735   0.839   4.803   2.738 -0.6445 -0.2539 -0.1181
11107TIP3    H154736   0.920   4.852   2.751 -0.7316  0.1211 -0.9188
11107TIP3    H254737   0.769   4.867   2.753 -0.8537 -0.8756  1.8528
11108TIP3   OH254738   2.987   3.475   1.125  0.2464 -0.0642 -0.2234
11108TIP3    H154739   2.917   3.539   1.120 -0.4306 -0.8623 -1.4430
11108TIP3    H254740   3.037   3.488   1.044  1.4373  0.4054  0.5659
11109TIP3   OH254741   2.937   5.115  15.696  0.3485 -0.2990  0.3935
11109TIP3    H154742   2.880   5.048  15.734  1.2037 -0.2745  1.8050
11109TIP3    H254743   2.897   5.198  15.722  0.6815 -0.2840  0.8860
11110TIP3   OH254744   5.273   2.527   0.560  0.5992 -0.0948 -0.1745
11110TIP3    H154745   5.196   2.581   0.576  0.0060 -1.4024  1.8189
11110TIP3    H254746   5.248   2.470   0.487  0.5725  0.9952 -1.0556
11111TIP3   OH254747   2.744   0.055   3.861  0.4919  0.0469  0.2779
11111TIP3    H154748   2.804   0.017   3.796 -1.3879 -0.1526 -1.4284
11111TIP3    H254749   2.657   0.045   3.823 -0.6884  0.2778  2.6896
11112TIP3   OH254750   3.594   4.887   6.075  0.4661 -0.1912 -0.3175
11112TIP3    H154751   3.684   4.858   6.062  0.7581  0.8159 -0.6292
11112TIP3    H254752   3.592   4.975   6.038 -0.5106 -0.0026  0.1617
11113TIP3   OH254753   3.918   0.639   5.921  0.0346  0.2310  0.7036
11113TIP3    H154754   3.966   0.713   5.886 -1.1616 -0.0772 -1.8888
11113TIP3    H254755   3.893   0.665   6.009 -1.8474  3.7295 -0.6836
11114TIP3   OH254756   2.796   2.373   0.850  0.1139 -0.2661  0.0604
11114TIP3    H154757   2.769   2.343   0.763  0.7992 -0.8157  0.0160
11114TIP3    H254758   2.733   2.333   0.910  1.4421 -2.5465  0.0720
11115TIP3   OH254759   1.150   2.803  15.521 -0.4212 -0.9259  0.4347
11115TIP3    H154760   1.197   2.812  15.604 -0.6451  0.5001  0.4363
11115TIP3    H254761   1.089   2.876  15.520  3.3146  2.7495 -3.3635
11116TIP3   OH254762   1.932   4.564  12.043  0.3860  0.4227 -0.0501
11116TIP3    H154763   1.886   4.629  12.096 -1.0387 -0.0983 -0.5976
11116TIP3    H254764   1.907   4.480  12.083  1.9520  0.1647  0.4570
11117TIP3   OH254765   0.205   4.419  15.021  0.2171  0.2041  0.6420
11117TIP3    H154766   0.214   4.345  14.960  1.3175  0.0228  1.0055
11117TIP3    H254767   0.130   4.395  15.076  0.2729 -0.4216  0.4592
11118TIP3   OH254768   3.405   0.179  11.410  0.5626  0.2788  0.3678
11118TIP3    H154769   3.381   0.140  11.494 -0.3292  0.4447  0.2057
11118TIP3    H254770   3.351   0.258  11.404  0.4846  0.1794 -0.4292
11119TIP3   OH254771   5.983   1.219  12.838  0.0284 -0.0857  0.5539
11119TIP3    H154772   5.905   1.257  12.798  1.1059 -0.1130 -1.7485
11119TIP3    H254773   6.050   1.287  12.830  0.2958 -0.0756  2.4549
11120TIP3   OH254774   1.314   1.705   1.684  0.0393  0.1823  0.0407
11120TIP3    H154775   1.242   1.653   1.650  0.9116 -0.8047 -0.3466
11120TIP3    H254776   1.352   1.651   1.754  1.3830 -0.0253 -0.8232
11121TIP3   OH254777   1.569   4.500   2.179  0.7594 -0.7294 -0.0864
11121TIP3    H154778   1.527   4.490   2.264  1.2801  0.7470  0.3793
11121TIP3    H254779   1.621   4.581   2.187  0.4146 -0.2664 -1.9634
11122TIP3   OH254780   6.282   2.075   4.949  0.7488 -0.0379  0.2344
11122TIP3    H154781   6.314   2.160   4.981  1.8613  0.2406 -1.4835
11122TIP3    H254782   6.342   2.052   4.878  0.1880 -2.0656  0.3630
11123TIP3   OH254783   2.211   0.363  16.762  0.3457 -0.2125  0.7954
11123TIP3    H154784   2.287   0.419  16.748  0.2217  0.1363  1.4834
11123TIP3    H254785   2.242   0.275  16.742  0.7427  0.0102  0.4206
11124TIP3   OH254786   1.120   5.530  16.292  0.5641  0.4392  0.3885
11124TIP3    H154787   1.089   5.463  16.231 -1.1232  0.9633  0.6301
11124TIP3    H254788   1.084   5.504  16.376 -0.8469  2.0686  0.3339
11125TIP3   OH254789   4.832   2.575   5.521 -0.2251 -0.6598  0.3039
11125TIP3    H154790   4.797   2.663   5.510  1.1509 -0.1309 -0.0494
11125TIP3    H254791   4.759   2.524   5.555 -1.0390  0.6162  0.5231
11126TIP3   OH254792   1.240   4.765   6.612 -0.4967  0.8851  0.0248
11126TIP3    H154793   1.159   4.743   6.566 -0.8334  1.3304  0.3906
11126TIP3    H254794   1.307   4.708   6.573 -1.4221 -1.1868  1.2935
11127TIP3   OH254795   4.110   5.464   0.759  0.3918  0.1854  0.0371
11127TIP3    H154796   4.168   5.404   0.806  1.5558  1.6319  0.4999
11127TIP3    H254797   4.068   5.515   0.828 -0.5337 -0.0091 -0.3584
11128TIP3   OH254798   2.248   3.742   3.471  0.0885  0.9316 -0.3544
11128TIP3    H154799   2.264   3.751   3.565 -0.3682  0.9133 -0.2747
11128TIP3    H254800   2.228   3.649   3.458 -0.5386  1.0681 -0.3642
11129TIP3   OH254801   2.695   3.441  13.899 -0.3417  0.6506  0.2196
11129TIP3    H154802   2.659   3.463  13.813  0.2703 -0.2156 -0.2707
11129TIP3    H254803   2.782   3.407  13.881 -0.0205  0.8989  1.2327
11130TIP3   OH254804   5.515   4.028  12.556  0.5020 -0.2406 -0.1093
11130TIP3    H154805   5.500   4.115  12.519  0.5696 -0.7856 -1.4597
11130TIP3    H254806   5.593   4.038  12.611  1.5948  0.1776 -1.6663
11131TIP3   OH254807   0.189   3.448   3.939 -0.3759  0.1801 -0.7055
11131TIP3    H154808   0.275   3.408   3.930 -0.6703 -1.0198  1.1545
11131TIP3    H254809   0.131   3.392   3.888 -0.4304 -0.5766  0.1414
11132TIP3   OH254810   3.890   6.544   5.201 -0.2782  0.3127 -0.5312
11132TIP3    H154811   3.916   6.547   5.292 -4.1332 -2.1083  0.9408
11132TIP3    H254812   3.955   6.488   5.159 -0.5904 -2.0464  1.8396
11133TIP3   OH254813   4.719   5.268   1.385  0.8570 -0.9940  0.2884
11133TIP3    H154814   4.709   5.203   1.315  2.7445 -0.4357 -0.5556
11133TIP3    H254815   4.631   5.307   1.394  0.4481 -1.4432 -1.4173
11134TIP3   OH254816   1.353   0.365   1.195  0.4121  0.5340  0.7457
11134TIP3    H154817   1.431   0.311   1.182  1.5139  1.7837  1.8029
11134TIP3    H254818   1.325   0.344   1.284  0.9536  1.7547  1.2349
11135TIP3   OH254819   5.536   6.013   4.507  0.3638  1.0165  0.0218
11135TIP3    H154820   5.587   6.025   4.427  1.0604 -1.4902  0.0248
11135TIP3    H254821   5.445   6.023   4.480  0.3713 -2.4200 -1.7573
11136TIP3   OH254822   3.982   2.296   1.467  0.4768 -0.1214 -0.2093
11136TIP3    H154823   4.046   2.363   1.442 -0.4683  0.8457 -0.1251
11136TIP3    H254824   4.006   2.272   1.557  0.3874  0.6452  0.0266
11137TIP3   OH254825   1.836   0.584   0.607 -0.0563 -0.1562 -0.5459
11137TIP3    H154826   1.799   0.618   0.689  0.2700  2.1547 -1.2773
11137TIP3    H254827   1.870   0.662   0.563  0.1706 -1.4092 -2.6806
11138TIP3   OH254828   3.736   4.214  15.369 -0.1712  0.2055  0.0135
11138TIP3    H154829   3.830   4.235  15.370 -0.1290  0.0369  1.3797
11138TIP3    H254830   3.708   4.225  15.460 -1.9294  2.1388 -0.6822
11139TIP3   OH254831   3.656   0.968  15.787 -0.7569  0.0244 -0.0215
11139TIP3    H154832   3.593   1.038  15.767 -1.3453 -0.0854  1.2988
11139TIP3    H254833   3.621   0.927  15.866  0.9778 -0.0335  0.7641
11140TIP3   OH254834   1.610   5.312   1.495 -0.6894  0.0252  0.6064
11140TIP3    H154835   1.602   5.357   1.579 -3.0302  0.6450  0.1163
11140TIP3    H254836   1.563   5.229   1.507 -0.5129 -0.1569  0.0905
11141TIP3   OH254837   5.767   4.330   1.042  0.2128 -0.0209 -0.0653
11141TIP3    H154838   5.701   4.312   0.976 -0.4961 -0.2216  0.6916
11141TIP3    H254839   5.842   4.364   0.992  0.0109 -0.9628 -1.0575
11142TIP3   OH254840   1.471   1.902  15.185  0.1148  0.2012 -0.0327
11142TIP3    H154841   1.475   1.916  15.280 -1.7539 -0.2803  0.1568
11142TIP3    H254842   1.451   1.989  15.149  1.2750  0.4756 -0.0497
11143TIP3   OH254843   5.750   4.352   5.759  0.3961  0.4924 -0.4979
11143TIP3    H154844   5.719   4.278   5.708  3.8701 -0.5420 -1.3548
11143TIP3    H254845   5.772   4.315   5.845  0.1202  0.9900 -0.2063
11144TIP3   OH254846   1.217   3.380   1.640 -0.1442 -0.4471  0.3590
11144TIP3    H154847   1.210   3.445   1.710 -2.4897  0.9082 -1.0080
11144TIP3    H254848   1.129   3.345   1.631  0.2451 -1.0510 -1.4674
11145TIP3   OH254849   6.474   5.482   4.261 -0.0065 -0.0041 -0.2683
11145TIP3    H154850   6.540   5.513   4.324 -2.5930  0.2657  2.5564
11145TIP3    H254851   6.402   5.545   4.269 -1.7151 -1.7325 -1.1450
11146TIP3   OH254852   1.521   1.408  12.401 -0.5288 -0.8988  0.0046
11146TIP3    H154853   1.565   1.344  12.345  0.9316  1.8736 -2.2701
11146TIP3    H254854   1.583   1.426  12.471  0.1843 -0.1860 -0.7804
11147TIP3   OH254855   6.044   5.492   4.646  0.2800 -0.0266 -0.1029
11147TIP3    H154856   6.104   5.497   4.721  1.2686  0.2192 -0.8846
11147TIP3    H254857   6.097   5.455   4.575 -0.1933  1.1591 -1.1088
11148TIP3   OH254858   3.717   0.643  11.415  0.0818  0.4159  0.4174
11148TIP3    H154859   3.705   0.638  11.510  0.8607  0.0264  0.5012
11148TIP3    H254860   3.718   0.737  11.397 -0.5693  0.4907  0.7217
11149TIP3   OH254861   1.656   2.508  14.215 -0.5627  0.2997  0.2871
11149TIP3    H154862   1.720   2.526  14.283  0.9200 -0.8093 -0.7277
11149TIP3    H254863   1.625   2.420  14.233 -1.1839  0.5131  0.2909
11150TIP3   OH254864   0.567   5.352   0.422  0.3944  0.4557 -0.4168
11150TIP3    H154865   0.523   5.351   0.507  1.0044  0.1899 -0.1008
11150TIP3    H254866   0.602   5.264   0.412  0.4274  0.5200 -0.8946
11151TIP3   OH254867   4.442   6.124  11.745  0.0891  0.5384  0.7557
11151TIP3    H154868   4.437   6.205  11.796  1.2293 -0.7778  3.1289
11151TIP3    H254869   4.359   6.079  11.764 -0.2275  0.7899  0.0212
11152TIP3   OH254870   3.092   2.617   6.145  0.0967 -0.2218 -0.0591
11152TIP3    H154871   3.147   2.557   6.095  0.7795  1.1507 -1.0164
11152TIP3    H254872   3.023   2.643   6.084 -0.8288 -0.8522  0.6970
11153TIP3   OH254873   1.318   1.294   3.835  0.3430  0.4714  0.0462
11153TIP3    H154874   1.335   1.215   3.885 -0.1072  0.8082  0.7536
11153TIP3    H254875   1.323   1.267   3.744 -0.3737 -0.4985  0.2838
11154TIP3   OH254876   0.078   3.692  13.444  0.4246  0.3213  0.2107
11154TIP3    H154877   0.001   3.696  13.388  1.1214 -0.0236 -0.7928
11154TIP3    H254878   0.094   3.784  13.468  0.4642  0.5512 -0.6513
11155TIP3   OH254879   5.995   2.998   4.283  0.0736 -0.3954  1.1080
11155TIP3    H154880   5.971   2.931   4.347  0.0108 -1.3365  0.1388
11155TIP3    H254881   6.079   2.969   4.248  0.3676  0.3947  1.1522
11156TIP3   OH254882   6.522   5.314  11.453  0.4109 -0.1815 -0.7179
11156TIP3    H154883   6.546   5.244  11.393 -0.0426 -1.0745  0.1130
11156TIP3    H254884   6.464   5.273  11.517 -1.2318  1.3254 -1.1644
11157TIP3   OH254885   5.845   3.548   4.252 -0.3669  0.5244 -0.6888
11157TIP3    H154886   5.872   3.459   4.274  0.3533  0.7390 -0.6663
11157TIP3    H254887   5.857   3.597   4.333  0.1308  0.8321 -0.9393
11158TIP3   OH254888   0.622   1.402   4.511  0.1251 -0.5772 -0.2153
11158TIP3    H154889   0.666   1.328   4.469  0.3741 -0.0476 -0.9042
11158TIP3    H254890   0.628   1.473   4.447 -1.9889 -0.5600 -0.4765
11159TIP3   OH254891   0.796   3.864  13.136  0.5221 -0.1889 -0.3854
11159TIP3    H154892   0.729   3.819  13.188  0.1807  1.6162  0.8613
11159TIP3    H254893   0.879   3.834  13.172  0.3333 -0.6029 -0.2888
11160TIP3   OH254894   4.386   1.781   1.057 -0.7425  0.2451  0.4213
11160TIP3    H154895   4.342   1.706   1.096 -1.2735  1.3275  1.9794
11160TIP3    H254896   4.448   1.742   0.994 -3.2502 -1.3486 -1.2600
11161TIP3   OH254897   2.212   1.468   0.061 -0.3230  0.1069 -0.2742
11161TIP3    H154898   2.163   1.542   0.098 -1.1230  0.7099 -2.3802
11161TIP3    H254899   2.146   1.416   0.016  0.8375  0.7010 -2.8203
11162TIP3   OH254900   4.459   3.967   3.066 -0.4536 -0.2245  0.5882
11162TIP3    H154901   4.439   3.942   2.976 -0.8535 -1.9208  1.1054
11162TIP3    H254902   4.375   3.961   3.112 -0.2289  0.4718  1.1119
11163TIP3   OH254903   4.615   1.393  11.451 -0.0241  0.2343  0.6917
11163TIP3    H154904   4.550   1.325  11.435  0.6090 -0.1870 -0.1755
11163TIP3    H254905   4.572   1.474  11.424 -0.5016  0.0763  0.9736
11164TIP3   OH254906   4.538   0.056  12.655  0.1568 -0.4665  0.3141
11164TIP3    H154907   4.631   0.079  12.647  0.1223 -0.3167  0.3389
11164TIP3    H254908   4.524  -0.009  12.586  0.3353 -0.6640  0.4612
11165TIP3   OH254909   0.398   3.134   2.367 -0.1996  0.0352  0.2364
11165TIP3    H154910   0.353   3.211   2.402 -0.8774 -0.1301 -0.2485
11165TIP3    H254911   0.459   3.169   2.303 -1.2797  0.1006 -0.7801
11166TIP3   OH254912   4.385   3.909  11.543  0.0509 -0.4457 -0.6272
11166TIP3    H154913   4.479   3.917  11.529  0.2447  0.9187  1.0529
11166TIP3    H254914   4.346   3.956  11.469  0.7927  1.2553  0.0146
11167TIP3   OH254915   1.264   2.845  16.824 -0.5227 -0.1949 -0.4216
11167TIP3    H154916   1.348   2.800  16.816  0.2556  0.8713  1.2255
11167TIP3    H254917   1.243   2.873  16.735  0.3759 -1.3127 -1.0124
11168TIP3   OH254918   3.526   0.012  16.047 -0.1407 -0.3067  0.2619
11168TIP3    H154919   3.442  -0.020  16.081 -0.8642  0.5828 -0.5867
11168TIP3    H254920   3.512   0.018  15.952  0.4165  1.1279  0.2359
11169TIP3   OH254921   0.033   4.770  14.953 -0.3000  0.5865  0.2015
11169TIP3    H154922   0.124   4.764  14.983 -0.4208  0.4625  0.5567
11169TIP3    H254923   0.014   4.863  14.952 -1.2994  0.5903  3.7063
11170TIP3   OH254924   6.091   6.054   5.211  0.1488  0.0222  0.1138
11170TIP3    H154925   6.150   5.984   5.184 -0.6533 -0.7494  0.2933
11170TIP3    H254926   6.148   6.126   5.235  0.9623 -0.1410 -1.2342
11171TIP3   OH254927   1.981   2.628   4.345 -0.2053 -0.3101  0.5481
11171TIP3    H154928   1.958   2.707   4.392  0.8489 -0.5553  1.5139
11171TIP3    H254929   2.015   2.569   4.412  1.2137 -0.7156 -0.4793
11172TIP3   OH254930   4.846   3.361  11.347  0.3536  0.0830 -0.6417
11172TIP3    H154931   4.821   3.270  11.336  1.8390 -0.3297 -0.9132
11172TIP3    H254932   4.937   3.358  11.378  0.6024  1.4607 -1.1224
11173TIP3   OH254933   5.899   2.255  16.713  0.4001  0.2394 -0.0254
11173TIP3    H154934   5.805   2.235  16.718 -0.1789  2.0015 -2.1318
11173TIP3    H254935   5.932   2.192  16.648  0.1819  1.0129 -0.9102
11174TIP3   OH254936   0.775   1.723  14.908 -0.1290 -0.1426  0.0036
11174TIP3    H154937   0.851   1.711  14.852 -0.6262 -0.2387 -0.6516
11174TIP3    H254938   0.800   1.796  14.966  0.4081 -0.0848 -0.2913
11175TIP3   OH254939   1.813   0.145  10.787  0.0608 -0.2356  0.4045
11175TIP3    H154940   1.869   0.141  10.865  0.4985  0.8370  0.1594
11175TIP3    H254941   1.857   0.207  10.729 -0.0118 -1.3716 -0.9082
11176TIP3   OH254942   0.797   3.464   4.340  1.0205 -0.1815  0.4518
11176TIP3    H154943   0.869   3.416   4.300  1.6865 -0.1407  1.5737
11176TIP3    H254944   0.718   3.426   4.300  1.6034 -1.1277  0.1783
11177TIP3   OH254945   6.062   0.262   5.378 -0.3783 -0.0378 -0.0627
11177TIP3    H154946   5.985   0.206   5.371  0.1447 -0.8003  0.0766
11177TIP3    H254947   6.029   0.351   5.371 -1.3339 -0.3363  0.5587
11178TIP3   OH254948   6.381   1.429   4.316 -0.6017 -0.0252  0.3564
11178TIP3    H154949   6.441   1.424   4.241  0.4674 -0.5481  1.2270
11178TIP3    H254950   6.432   1.397   4.390 -1.7423  0.1975  1.2651
11179TIP3   OH254951   2.647   5.167  14.989 -0.2905 -0.4365  0.3295
11179TIP3    H154952   2.685   5.150  15.075 -2.2100 -2.7313  0.8209
11179TIP3    H254953   2.567   5.215  15.006  0.1703  0.6174 -0.3568
11180TIP3   OH254954   6.471   3.020  15.946 -0.6345  0.2349 -0.3109
11180TIP3    H154955   6.463   3.108  15.983 -0.9695 -0.7251  2.0830
11180TIP3    H254956   6.432   2.962  16.012  0.7706 -1.8540 -1.1852
11181TIP3   OH254957   4.692   3.369   1.783  0.2841 -0.1046 -0.1493
11181TIP3    H154958   4.714   3.296   1.725  0.6229  0.0748 -0.2514
11181TIP3    H254959   4.746   3.354   1.861 -0.4741 -0.5688  0.2926
11182TIP3   OH254960   4.133   1.889   6.189 -0.0434 -0.0234 -0.4111
11182TIP3    H154961   4.192   1.932   6.127  1.6565 -1.1181  0.3888
11182TIP3    H254962   4.176   1.898   6.274 -1.6607  0.2371  0.4146
11183TIP3   OH254963   2.798   0.648  14.834 -0.2199 -0.2903 -0.1338
11183TIP3    H154964   2.813   0.741  14.818 -1.5948 -0.2356 -1.2990
11183TIP3    H254965   2.755   0.616  14.755 -3.0457 -1.1203  1.5872
11184TIP3   OH254966   1.614   5.269  17.146 -0.3265 -0.4398 -0.1246
11184TIP3    H154967   1.530   5.286  17.189 -0.6783  0.7533 -1.2095
11184TIP3    H254968   1.677   5.260  17.217 -0.7166  2.3271  0.6561
11185TIP3   OH254969   4.531   3.715   1.471 -0.4577 -0.3486  0.3089
11185TIP3    H154970   4.620   3.687   1.447 -0.0621 -0.5835  1.8986
11185TIP3    H254971   4.483   3.634   1.484 -0.0549 -0.3208  2.3061
11186TIP3   OH254972   4.941   3.121  16.547  0.1632  0.5804 -0.4329
11186TIP3    H154973   5.029   3.160  16.548  0.7462 -0.6834 -0.7656
11186TIP3    H254974   4.956   3.027  16.546 -1.2174  0.3258  0.0743
11187TIP3   OH254975   0.651   1.800   0.726 -0.1820 -0.2770  0.0353
11187TIP3    H154976   0.588   1.830   0.791 -0.2437 -1.1268  0.3707
11187TIP3    H254977   0.607   1.728   0.681  0.4251 -0.6621  0.0548
11188TIP3   OH254978   5.157   1.994  11.785 -0.1206  0.1334  0.2870
11188TIP3    H154979   5.245   2.027  11.768 -1.3090  3.6269  0.1751
11188TIP3    H254980   5.139   1.935  11.712  1.3745  0.9664 -0.7968
11189TIP3   OH254981   5.583   4.609  17.053  0.2925  0.6274 -0.8711
11189TIP3    H154982   5.566   4.650  16.968  1.4015 -0.9476 -1.9091
11189TIP3    H254983   5.678   4.604  17.058  0.2266 -1.9481 -0.9155
11190TIP3   OH254984   4.800   3.048   5.230  0.9745  0.3066  0.2095
11190TIP3    H154985   4.894   3.064   5.222  1.0412 -0.9990 -2.5585
11190TIP3    H254986   4.785   2.963   5.188 -1.5795  1.0134 -0.5489
11191TIP3   OH254987   3.241   2.073  15.124 -0.2488 -0.6775  0.8251
11191TIP3    H154988   3.314   2.101  15.070 -0.0837 -0.4960  1.1445
11191TIP3    H254989   3.278   2.009  15.184 -0.5155 -1.1938  0.4514
11192TIP3   OH254990   6.701   6.485  14.233  0.2105 -0.5296  0.7461
11192TIP3    H154991   6.781   6.527  14.266  0.3669  1.4722 -1.9400
11192TIP3    H254992   6.632   6.549  14.246 -0.1111 -0.5235 -0.8198
11193TIP3   OH254993   4.076   1.205  12.686 -0.6632 -0.2406  0.2682
11193TIP3    H154994   4.021   1.278  12.658 -1.3937 -1.1817 -0.7922
11193TIP3    H254995   4.033   1.127  12.652 -0.1455 -1.2300  1.7752
11194TIP3   OH254996   2.338   3.296  16.243  0.4500  0.5312  0.9628
11194TIP3    H154997   2.362   3.354  16.171  1.7458 -0.7746  0.2866
11194TIP3    H254998   2.276   3.235  16.205  0.4782  0.3680  1.1744
11195TIP3   OH254999   1.073   5.599   0.735 -0.1572  0.0046 -0.2280
11195TIP3    H155000   1.161   5.606   0.698 -0.9316  0.1702 -2.1186
11195TIP3    H255001   1.024   5.672   0.697 -1.4155 -0.7242 -0.0798
11196TIP3   OH255002   5.576   3.774  12.446 -0.4554 -0.2265 -0.2731
11196TIP3    H155003   5.607   3.748  12.533  0.7677 -0.8235 -0.8601
11196TIP3    H255004   5.551   3.866  12.455  1.0349  0.1334  0.3678
11197TIP3   OH255005   3.208   1.657  12.098  0.4017  0.0127  0.4440
11197TIP3    H155006   3.204   1.752  12.110 -1.2448 -0.1640  1.7605
11197TIP3    H255007   3.156   1.640  12.019  1.0285  0.2237 -0.0204
11198TIP3   OH255008   4.058   4.389  12.818 -0.3878 -0.2842 -0.1302
11198TIP3    H155009   4.053   4.310  12.764 -0.5214 -0.0961 -0.3951
11198TIP3    H255010   4.065   4.461  12.754  0.2790 -0.1246  0.1154
11199TIP3   OH255011   2.405   1.386  16.879 -0.5052 -0.1826  0.9051
11199TIP3    H155012   2.475   1.442  16.846 -1.5438  0.1765 -0.7976
11199TIP3    H255013   2.402   1.313  16.818 -0.7744 -0.8482  1.7061
11200TIP3   OH255014   6.518   4.573   2.804 -0.3528  0.0456 -0.6421
11200TIP3    H155015   6.537   4.548   2.714  0.6282 -2.1877  0.1075
11200TIP3    H255016   6.582   4.641   2.824  0.0439 -0.1098 -1.3542
11201TIP3   OH255017   1.629   0.666   1.940 -0.5180 -0.0062 -0.0537
11201TIP3    H155018   1.598   0.631   2.024  0.8513 -0.7539  0.1626
11201TIP3    H255019   1.561   0.641   1.877 -1.9168  1.1635  0.9152
11202TIP3   OH255020   5.336   2.607  15.739  0.7726 -0.2537 -0.2116
11202TIP3    H155021   5.260   2.594  15.682 -0.3248  0.9846  0.9153
11202TIP3    H255022   5.376   2.688  15.708 -1.1124  1.6816  2.0233
11203TIP3   OH255023   0.082   3.423  12.592 -0.3972  0.2849 -0.0372
11203TIP3    H155024   0.032   3.377  12.524  0.2417 -0.8298  0.2087
11203TIP3    H255025   0.038   3.507  12.603 -2.2135 -0.6539  0.1816
11204TIP3   OH255026   6.575   6.464  12.851  0.0080  0.2114  0.5395
11204TIP3    H155027   6.525   6.471  12.770  1.0449  0.4741 -0.0854
11204TIP3    H255028   6.519   6.505  12.917 -0.6408  0.4157 -0.1229
11205TIP3   OH255029   0.867   4.029   5.581  0.6932  0.3685 -0.5050
11205TIP3    H155030   0.847   4.069   5.496  0.4487 -1.6754 -1.4703
11205TIP3    H255031   0.940   4.081   5.615  0.6421  1.3831 -1.8470
11206TIP3   OH255032   6.108   5.476   6.157 -0.7029 -1.1963  0.0798
11206TIP3    H155033   6.175   5.428   6.204 -1.0992 -0.8284  1.0571
11206TIP3    H255034   6.129   5.464   6.065  0.9652 -0.7110  0.3755
11207TIP3   OH255035   5.805   0.668   2.972 -0.1426  0.1255  0.1110
11207TIP3    H155036   5.803   0.603   2.902  0.2836 -0.9123  1.0260
11207TIP3    H255037   5.889   0.652   3.016 -1.2908 -0.7100  2.1555
11208TIP3   OH255038   5.827   1.635   1.323 -0.5690  0.2690  0.2145
11208TIP3    H155039   5.802   1.703   1.261 -1.0773 -0.1685 -0.0726
11208TIP3    H255040   5.875   1.571   1.270 -1.0685 -0.1417  0.2512
11209TIP3   OH255041   1.815   5.444  12.785 -0.2977 -0.6395  0.8903
11209TIP3    H155042   1.781   5.508  12.847 -0.7102  0.9961 -0.9376
11209TIP3    H255043   1.742   5.384  12.769 -0.4225 -0.6208  1.3825
11210TIP3   OH255044   0.927   1.712   2.789 -0.0352  0.1393  0.2657
11210TIP3    H155045   0.959   1.651   2.855  0.2398 -0.5316 -0.4673
11210TIP3    H255046   0.838   1.683   2.769  0.1859 -0.1878 -0.2659
11211TIP3   OH255047   2.842   2.703   3.253 -0.0246 -0.1292  0.2873
11211TIP3    H155048   2.917   2.756   3.280  0.7305 -2.2111  2.7293
11211TIP3    H255049   2.859   2.683   3.161  0.7827  1.9532 -0.0734
11212TIP3   OH255050   3.546   5.196   3.988  1.0280 -0.0151 -0.5504
11212TIP3    H155051   3.494   5.173   3.911  0.6932 -0.7003 -0.1328
11212TIP3    H255052   3.488   5.252   4.039  1.0591  0.0139 -0.5470
11213TIP3   OH255053   0.834   1.502   2.487 -0.0257  0.8632 -0.1076
11213TIP3    H155054   0.762   1.564   2.476 -0.5927  0.5614  1.6395
11213TIP3    H255055   0.793   1.416   2.475  0.6145  0.7520 -1.8009
11214TIP3   OH255056   5.106   4.941  12.334 -0.4280 -0.3654 -0.2648
11214TIP3    H155057   5.036   4.891  12.375 -1.1772  0.9819  0.1573
11214TIP3    H255058   5.117   5.018  12.389  0.4341  0.1290 -1.0855
11215TIP3   OH255059   2.460   3.789  15.666 -0.0056  0.2884 -0.2196
11215TIP3    H155060   2.470   3.853  15.595  0.6937  0.4408  0.0152
11215TIP3    H255061   2.487   3.836  15.745 -1.0715  0.2206  0.2054
11216TIP3   OH255062   3.600   1.924   0.066 -0.0295  0.3418  0.3168
11216TIP3    H155063   3.654   2.003   0.066 -0.8816  0.9490  0.7271
11216TIP3    H255064   3.572   1.914   0.157 -3.2475  1.9648 -0.3465
11217TIP3   OH255065   5.349   3.990   4.705 -0.0602  0.1318  0.0300
11217TIP3    H155066   5.432   3.978   4.751 -0.1306  0.1984  0.1751
11217TIP3    H255067   5.292   4.033   4.769 -0.3693 -0.3907  0.1111
11218TIP3   OH255068   6.673   4.912   5.625  0.0194 -0.0650 -0.5899
11218TIP3    H155069   6.743   4.974   5.646 -0.6816  0.7521 -0.5949
11218TIP3    H255070   6.621   4.906   5.705 -1.1160  0.9903 -1.2116
11219TIP3   OH255071   5.476   6.688   4.759 -0.4058 -0.2525 -0.2102
11219TIP3    H155072   5.391   6.704   4.801 -0.5420 -0.1906 -0.5059
11219TIP3    H255073   5.481   6.593   4.751 -0.3348 -0.2703  0.0358
11220TIP3   OH255074   1.990   2.040  14.965  0.8578 -0.2400 -0.3645
11220TIP3    H155075   2.074   2.036  15.010  0.9927 -1.1130 -0.6834
11220TIP3    H255076   1.995   2.120  14.913  2.0906 -1.0392 -1.5245
11221TIP3   OH255077   5.450   0.200   3.663 -0.6763  0.1210 -0.4062
11221TIP3    H155078   5.537   0.236   3.650 -1.1233  1.4955  0.2819
11221TIP3    H255079   5.459   0.144   3.740 -0.4592  0.4623 -0.1819
11222TIP3   OH255080   0.454   0.016  12.869  0.1624 -0.2309  0.2234
11222TIP3    H155081   0.383  -0.047  12.877  0.6375 -0.7154  0.6950
11222TIP3    H255082   0.497  -0.006  12.786  0.8510 -1.0890  0.7941
11223TIP3   OH255083   1.269   0.206  14.429 -0.2199 -0.8990 -0.1734
11223TIP3    H155084   1.333   0.174  14.367  0.5473 -2.0641  1.1674
11223TIP3    H255085   1.270   0.142  14.501 -0.3510  0.8699  1.4987
11224TIP3   OH255086   2.375   1.754  16.946  0.0921  0.6098  0.5775
11224TIP3    H155087   2.314   1.700  16.995 -0.5153  0.5033 -0.2808
11224TIP3    H255088   2.342   1.844  16.956  0.7309  0.7600  1.4599
11225TIP3   OH255089   6.626   4.090   2.068 -0.5604  0.2825 -0.2222
11225TIP3    H155090   6.650   4.176   2.035 -0.4230  0.3963  0.1731
11225TIP3    H255091   6.631   4.098   2.163 -0.0230 -0.3070 -0.1919
11226TIP3   OH255092   5.757   1.834  14.935  0.0787  0.0674 -0.2056
11226TIP3    H155093   5.718   1.879  14.860  0.8226  0.1708 -0.5474
11226TIP3    H255094   5.753   1.897  15.006  0.8369  0.5771 -0.5995
11227TIP3   OH255095   0.574   5.605  17.126 -0.2101  0.2478 -0.7744
11227TIP3    H155096   0.548   5.522  17.164 -0.0001  0.4468 -0.1776
11227TIP3    H255097   0.669   5.598  17.114 -0.2027  0.3716 -0.8003
11228TIP3   OH255098   6.221   3.253  14.070 -0.0869  0.3231 -0.0888
11228TIP3    H155099   6.178   3.188  14.014  2.2335 -0.5569 -0.9870
11228TIP3    H255100   6.160   3.326  14.073 -0.6396  0.1585 -3.3345
11229TIP3   OH255101   6.324   3.721   0.776 -0.6342  0.0875  0.3535
11229TIP3    H155102   6.365   3.677   0.851  0.6670 -0.3099 -0.5682
11229TIP3    H255103   6.251   3.663   0.752 -1.3150  0.4172  1.5358
11230TIP3   OH255104   1.641   5.952   1.450 -0.9681  0.4316 -0.0375
11230TIP3    H155105   1.616   5.915   1.365  0.2464 -1.1380  0.2342
11230TIP3    H255106   1.715   6.010   1.430  0.8896 -1.7256  0.1246
11231TIP3   OH255107   5.091   3.221   3.569 -0.2512  0.0409  0.2739
11231TIP3    H155108   5.069   3.152   3.507  2.7388 -0.8303  0.0076
11231TIP3    H255109   5.118   3.174   3.648  0.1189  0.9632  0.7116
11232TIP3   OH255110   1.862   6.607  15.145 -0.2795 -0.6622  0.5759
11232TIP3    H155111   1.791   6.559  15.104 -0.2343 -0.6295  0.4584
11232TIP3    H255112   1.835   6.699  15.140 -0.3528 -0.6720  0.7747
11233TIP3   OH255113   1.912   2.626   5.907 -0.4673  0.0751 -0.0929
11233TIP3    H155114   1.888   2.663   5.992 -0.1984 -0.9166  0.4299
11233TIP3    H255115   1.959   2.546   5.928  0.0980  0.1001 -1.1734
11234TIP3   OH255116   5.080   2.572   2.916  0.5919  0.5945  0.3905
11234TIP3    H155117   5.069   2.661   2.951 -1.0444  0.8488 -0.6711
11234TIP3    H255118   5.168   2.572   2.879  0.9570  1.4704  1.1934
11235TIP3   OH255119   5.512   6.541  14.070  0.2446 -0.3076 -0.3164
11235TIP3    H155120   5.511   6.446  14.054 -0.7237 -0.3304 -0.1919
11235TIP3    H255121   5.594   6.571  14.030 -0.6613 -0.7887 -2.6773
11236TIP3   OH255122   0.974   5.078  13.685  0.4424  0.0772  0.3425
11236TIP3    H155123   1.004   5.157  13.641 -0.0163  1.7764  2.8366
11236TIP3    H255124   0.899   5.049  13.634  2.4529 -0.6741 -2.4323
11237TIP3   OH255125   0.678   0.501   5.816  0.3573  0.2082 -0.2108
11237TIP3    H155126   0.679   0.506   5.911 -1.7184  0.6874 -0.1677
11237TIP3    H255127   0.769   0.516   5.790  0.5022  3.2314  1.5730
11238TIP3   OH255128   0.591   4.769   2.142  0.3379  0.8350  0.1883
11238TIP3    H155129   0.634   4.796   2.222 -0.4789  0.7270  0.6750
11238TIP3    H255130   0.661   4.735   2.087  0.7468 -0.1533  1.2919
11239TIP3   OH255131   3.330   0.362  14.776 -0.0070 -0.3242 -0.2976
11239TIP3    H155132   3.288   0.275  14.776  0.4889 -0.5953  1.2432
11239TIP3    H255133   3.418   0.346  14.809 -0.1231  0.8586  0.6335
11240TIP3   OH255134   1.831   1.414  13.767 -0.3877  0.0101 -0.0150
11240TIP3    H155135   1.802   1.367  13.844  0.6330 -0.2618  0.2173
11240TIP3    H255136   1.806   1.505  13.783  1.9433  0.4236  1.7801
11241TIP3   OH255137   5.937   4.526  12.990 -0.2388 -0.2185  0.4186
11241TIP3    H155138   5.895   4.611  13.005  0.4944  0.1571  0.3713
11241TIP3    H255139   6.031   4.545  12.989  0.0550 -1.2885  2.1717
11242TIP3   OH255140   2.596   3.127   2.421 -0.7309  0.1356 -0.1531
11242TIP3    H155141   2.531   3.058   2.406 -0.0684 -0.3051 -1.1585
11242TIP3    H255142   2.676   3.092   2.382  0.6104 -0.0980  2.6072
11243TIP3   OH255143   2.973   2.386   6.528  0.2417 -0.0434  0.3446
11243TIP3    H155144   3.042   2.381   6.463 -1.6031 -0.9016 -1.6705
11243TIP3    H255145   2.945   2.478   6.525  0.9740  0.2020  0.8440
11244TIP3   OH255146   1.602   5.985   4.877 -0.7234  0.0086  0.0367
11244TIP3    H155147   1.559   5.987   4.791 -1.0911 -0.8226  0.1844
11244TIP3    H255148   1.618   5.892   4.893 -0.3010  0.1892  0.6939
11245TIP3   OH255149   3.607   3.890   1.042 -0.3292  0.3902 -0.0221
11245TIP3    H155150   3.608   3.939   1.125  1.3897  1.1404 -0.4411
11245TIP3    H255151   3.529   3.921   0.997 -0.9534  0.4269  1.0550
11246TIP3   OH255152   6.454   4.836  11.785  0.4410  0.0154  0.4857
11246TIP3    H155153   6.504   4.903  11.832  1.1474  0.3250 -0.6681
11246TIP3    H255154   6.434   4.875  11.700  2.3352 -1.7805 -0.9008
11247TIP3   OH255155   1.402   0.975   3.715 -0.2144  0.1468  0.0288
11247TIP3    H155156   1.465   1.044   3.736 -0.5904  0.3909  0.3476
11247TIP3    H255157   1.323   0.999   3.762  0.2710 -1.6172  1.8949
11248TIP3   OH255158   1.547   4.252  16.127  0.3049 -0.8046  0.2922
11248TIP3    H155159   1.550   4.279  16.035  0.8616  3.5824  1.3436
11248TIP3    H255160   1.466   4.201  16.135 -1.9899  2.0836 -1.9924
11249TIP3   OH255161   6.644   6.392   5.318 -0.2482  0.3936 -0.4252
11249TIP3    H155162   6.586   6.322   5.348  0.4629  0.0453  0.1545
11249TIP3    H255163   6.712   6.397   5.385  0.0387  1.2302 -0.7763
11250TIP3   OH255164   4.862   1.984  15.000 -0.0113  0.9225 -0.0171
11250TIP3    H155165   4.821   1.899  15.017  0.7167  0.5508 -0.0778
11250TIP3    H255166   4.892   1.977  14.909 -1.5125  1.9068 -0.6369
11251TIP3   OH255167   5.014   4.634   2.076 -0.4156 -0.3335  0.0076
11251TIP3    H155168   5.067   4.637   2.156 -1.2527  1.4154  0.5477
11251TIP3    H255169   4.982   4.543   2.072 -1.3792 -0.1626  2.3820
11252TIP3   OH255170   1.743   4.825  11.673 -0.2068  0.1092  0.1437
11252TIP3    H155171   1.833   4.796  11.693 -0.7202 -1.4472  0.3295
11252TIP3    H255172   1.723   4.888  11.741 -0.0855 -1.3118  1.5531
11253TIP3   OH255173   3.202   6.732   4.621 -0.2360  0.1299  0.1988
11253TIP3    H155174   3.164   6.818   4.636 -2.3413 -0.5478 -0.9185
11253TIP3    H255175   3.154   6.674   4.680 -1.6542 -0.8916 -1.8692
11254TIP3   OH255176   5.111   1.640  14.135  0.0955  0.2901 -0.1391
11254TIP3    H155177   5.128   1.576  14.066  1.0333 -0.0303  0.3844
11254TIP3    H255178   5.053   1.705  14.093  1.2067  0.4844 -1.4477
11255TIP3   OH255179   6.465   6.745  16.441  0.4973 -0.4737 -0.7815
11255TIP3    H155180   6.549   6.748  16.487 -0.2995 -1.0027  0.7688
11255TIP3    H255181   6.425   6.830  16.457 -0.3268 -1.0948  0.6273
11256TIP3   OH255182   6.529   4.787  15.311 -0.2479 -0.8104  0.4889
11256TIP3    H155183   6.582   4.716  15.274 -2.9692 -2.4952 -0.4732
11256TIP3    H255184   6.543   4.782  15.405  1.0131 -1.4024  0.2893
11257TIP3   OH255185   0.998   2.513   0.639  0.3158 -0.0885 -0.1670
11257TIP3    H155186   1.047   2.546   0.565  0.7111 -0.1242  0.0743
11257TIP3    H255187   0.948   2.439   0.604  0.1671  0.1605 -0.4885
11258TIP3   OH255188   6.021   5.793   5.993  0.2667 -0.0432  0.8084
11258TIP3    H155189   5.973   5.841   6.060 -0.4662  0.2089  0.1194
11258TIP3    H255190   6.004   5.840   5.911  1.1265 -0.3509  0.4285
11259TIP3   OH255191   5.286   1.786  13.382 -0.3341  0.8254  0.5887
11259TIP3    H155192   5.305   1.810  13.291 -0.0238  0.5348  0.5767
11259TIP3    H255193   5.285   1.690  13.382  1.9851  0.7440  1.3498
11260TIP3   OH255194   3.876   1.776  14.298 -0.3140  0.7080  0.9562
11260TIP3    H155195   3.782   1.764  14.281 -0.1622  0.2876  0.3673
11260TIP3    H255196   3.880   1.842  14.367 -1.0269  1.0930  0.6391
11261TIP3   OH255197   2.831   1.674  14.228  0.3033 -0.5164  0.2298
11261TIP3    H155198   2.818   1.646  14.319 -0.2856  0.1343  0.3540
11261TIP3    H255199   2.879   1.602  14.188  0.5322 -0.8360  1.0446
11262TIP3   OH255200   0.729   1.999  15.878 -0.3438 -0.5942 -0.4710
11262TIP3    H155201   0.713   1.968  15.967  1.8045 -1.3304 -0.2870
11262TIP3    H255202   0.792   2.070  15.888 -0.1344 -0.6271 -1.3921
11263TIP3   OH255203   3.116   0.424  16.850 -0.0104  0.7219  0.0642
11263TIP3    H155204   3.115   0.502  16.905 -2.2187  1.8429 -1.4325
11263TIP3    H255205   3.198   0.429  16.802 -1.2479  3.6664 -1.9759
11264TIP3   OH255206   0.617   0.162   1.344  0.3177  0.8354 -0.0211
11264TIP3    H155207   0.580   0.167   1.256 -1.6030  1.6184  0.7782
11264TIP3    H255208   0.604   0.250   1.381  3.4669  1.3445  0.1909
11265TIP3   OH255209   2.917   1.533  15.030 -0.2976 -0.1059 -0.1926
11265TIP3    H155210   2.988   1.525  14.966  2.0637 -2.3539  2.4321
11265TIP3    H255211   2.907   1.444  15.066 -2.8006  0.6667  1.2439
11266TIP3   OH255212   5.879   5.952  11.760  0.2809  0.3111 -0.2804
11266TIP3    H155213   5.913   6.030  11.716  0.9395 -0.5016 -1.2501
11266TIP3    H255214   5.867   5.979  11.851 -0.1871  1.7436 -0.7486
11267TIP3   OH255215   4.799   0.660   0.749 -0.9559 -0.0307 -0.3118
11267TIP3    H155216   4.879   0.609   0.761 -1.9173 -1.4068  0.7048
11267TIP3    H255217   4.828   0.742   0.710  0.9141 -0.5581 -0.1399
11268TIP3   OH255218   4.662   0.822  10.942 -0.4473  0.1171  0.3004
11268TIP3    H155219   4.742   0.853  10.898 -0.4166  0.5629  0.6623
11268TIP3    H255220   4.621   0.764  10.878 -0.9895  1.6350 -0.7894
11269TIP3   OH255221   4.092   1.329   2.743  0.3121 -0.0785 -0.5923
11269TIP3    H155222   4.028   1.358   2.808  1.1324 -0.0335  0.2230
11269TIP3    H255223   4.092   1.234   2.750  1.5932 -0.0104  0.6846
11270TIP3   OH255224   5.017   2.175   3.186  0.1311  0.4704 -0.1155
11270TIP3    H155225   4.926   2.145   3.189 -0.0227  0.9825  1.2988
11270TIP3    H255226   5.040   2.189   3.278  0.8894  2.5933 -0.5864
11271TIP3   OH255227   6.721   5.823   4.661 -0.4379 -0.3815 -0.1590
11271TIP3    H155228   6.775   5.843   4.584 -0.2047 -2.2902 -0.5396
11271TIP3    H255229   6.773   5.761   4.712 -1.2525 -0.3487  0.7455
11272TIP3   OH255230   2.329   4.711  15.227  0.2718 -0.2708 -0.0995
11272TIP3    H155231   2.415   4.733  15.192  0.7405 -2.2182 -0.2290
11272TIP3    H255232   2.312   4.622  15.198 -1.3573 -0.2968  0.7805
11273TIP3   OH255233   3.437   2.326  15.005  0.3214 -0.1705 -0.3722
11273TIP3    H155234   3.474   2.281  14.929  2.6676 -1.5541  1.4617
11273TIP3    H255235   3.497   2.399  15.021 -0.0507  0.0065  0.2700
11274TIP3   OH255236   3.403   5.635   3.842 -0.3661  0.2679  0.4900
11274TIP3    H155237   3.471   5.639   3.909  0.4153  0.0447 -0.2757
11274TIP3    H255238   3.345   5.708   3.863  1.0543  1.5472  0.1745
11275TIP3   OH255239   1.131   1.937   4.443  0.0433  0.3278  0.0359
11275TIP3    H155240   1.173   1.864   4.397 -0.6296 -0.6307  0.9011
11275TIP3    H255241   1.147   1.919   4.536  1.2374  2.1395  0.2383
11276TIP3   OH255242   6.222   5.184  14.732 -0.0813 -0.0703 -0.0916
11276TIP3    H155243   6.244   5.123  14.661  0.2795 -0.0423 -0.0056
11276TIP3    H255244   6.181   5.129  14.799  1.8301 -0.5552  0.7504
11277TIP3   OH255245   6.664   2.180   4.217 -0.2800 -0.1312 -0.7374
11277TIP3    H155246   6.597   2.194   4.284 -2.0120 -0.5005 -2.3187
11277TIP3    H255247   6.730   2.126   4.260  0.0995  1.9532  1.5086
11278TIP3   OH255248   5.233   1.810   1.188 -0.1898 -0.5046  0.2230
11278TIP3    H155249   5.219   1.905   1.194 -1.0768 -0.5136 -1.1006
11278TIP3    H255250   5.181   1.774   1.260  1.8548  0.0808  2.1106
11279TIP3   OH255251   4.847   6.002   0.883  0.2507 -0.2194  0.0042
11279TIP3    H155252   4.857   6.096   0.868 -0.7290 -0.1730 -0.4513
11279TIP3    H255253   4.866   5.990   0.976  1.7675  0.2033 -0.2190
11280TIP3   OH255254   6.608   1.682   5.463  0.1917  0.2521  0.1862
11280TIP3    H155255   6.557   1.660   5.385  1.8250 -0.7034 -0.6661
11280TIP3    H255256   6.543   1.716   5.525 -1.4269 -0.6133 -0.9448
11281TIP3   OH255257   0.894   1.514  15.933  0.0678 -0.0476 -0.6598
11281TIP3    H155258   0.819   1.573  15.931 -0.2292 -0.2966  1.2591
11281TIP3    H255259   0.881   1.454  15.859 -0.7789  0.8917 -1.2821
11282TIP3   OH255260   0.111   5.101   5.092 -0.3448  0.1995  0.0521
11282TIP3    H155261   0.084   5.051   5.170 -0.1912 -0.4070 -0.2732
11282TIP3    H255262   0.114   5.192   5.121 -1.1355  0.0831  0.5316
11283TIP3   OH255263   4.797   4.294  14.290  0.2254 -0.1966 -0.4675
11283TIP3    H155264   4.771   4.330  14.205  0.9267  0.4269 -0.4317
11283TIP3    H255265   4.812   4.201  14.273  1.9800  0.2066 -1.4523
11284TIP3   OH255266   5.344   5.079   2.598 -0.0518  0.3006  0.3090
11284TIP3    H155267   5.391   5.045   2.522 -0.3971 -3.1040  1.4777
11284TIP3    H255268   5.408   5.076   2.669 -0.8730 -0.4490  1.0244
11285TIP3   OH255269   0.852   6.197  16.004  0.3628 -0.3930 -0.2190
11285TIP3    H155270   0.929   6.158  15.964 -0.3748 -3.8159  1.3420
11285TIP3    H255271   0.783   6.131  15.994 -0.9793  0.3826  2.7642
11286TIP3   OH255272   6.322   5.797   1.727  0.1213 -0.1590  0.3796
11286TIP3    H155273   6.332   5.842   1.643  0.5371  1.7684  1.4130
11286TIP3    H255274   6.374   5.717   1.717  0.9996  0.5225 -0.8658
11287TIP3   OH255275   0.591   2.333  11.426  0.1939 -0.2422 -0.4271
11287TIP3    H155276   0.604   2.334  11.521 -0.7134  0.7459 -0.2964
11287TIP3    H255277   0.503   2.298  11.415 -0.0086  0.3987 -0.8614
11288TIP3   OH255278   4.353   3.025  11.623 -0.2445  0.6579 -0.0440
11288TIP3    H155279   4.294   2.967  11.576 -0.5839  1.5055 -0.7035
11288TIP3    H255280   4.331   3.113  11.591  0.3055  1.1452  0.8581
11289TIP3   OH255281   0.580   3.195   0.517 -0.1700 -0.5348 -0.0516
11289TIP3    H155282   0.531   3.245   0.583  0.5263  0.4280 -0.2397
11289TIP3    H255283   0.555   3.235   0.434  1.0773  0.1290 -0.1364
11290TIP3   OH255284   2.872   5.347   1.234  0.6106  0.0447  0.2667
11290TIP3    H155285   2.871   5.304   1.320  0.2813 -0.4323  0.0303
11290TIP3    H255286   2.930   5.293   1.181  0.0863 -0.1894 -0.0743
11291TIP3   OH255287   6.645   1.506  16.366  0.3786 -0.3005  0.0714
11291TIP3    H155288   6.684   1.426  16.330  2.2121  1.2175 -1.5723
11291TIP3    H255289   6.593   1.542  16.294  1.1127  0.9182  0.1101
11292TIP3   OH255290   3.640   4.246   5.158  0.2918  0.2243 -0.3752
11292TIP3    H155291   3.702   4.242   5.085 -0.6253 -0.2502 -1.1578
11292TIP3    H255292   3.656   4.331   5.199 -0.0870  1.1107 -1.9831
11293TIP3   OH255293   0.418   4.645  16.224  0.0977  0.3643 -0.0942
11293TIP3    H155294   0.350   4.690  16.175 -0.9481 -0.1909  0.8076
11293TIP3    H255295   0.485   4.624  16.158 -0.9006  0.3294 -1.1268
11294TIP3   OH255296   5.302   6.341  15.576 -0.4044  0.0389 -0.1859
11294TIP3    H155297   5.376   6.396  15.552 -0.0818 -0.6107 -0.7106
11294TIP3    H255298   5.342   6.259  15.606 -0.8930 -0.1269  0.0168
11295TIP3   OH255299   5.973   5.216  14.484  0.2748  0.2300 -0.1544
11295TIP3    H155300   5.950   5.172  14.403 -0.0746  0.2577 -0.0731
11295TIP3    H255301   6.068   5.215  14.486  0.3002  0.6472 -0.7929
11296TIP3   OH255302   5.855   4.563   1.972  0.2283 -0.7369  0.6838
11296TIP3    H155303   5.837   4.482   1.923 -1.0035 -0.4210  0.5732
11296TIP3    H255304   5.901   4.533   2.050 -0.0715 -1.5344  0.5715
11297TIP3   OH255305   0.127   5.354  10.832  0.2971 -0.1710  0.3962
11297TIP3    H155306   0.169   5.348  10.746  0.5087 -0.8774  0.5435
11297TIP3    H255307   0.115   5.448  10.846  0.3995 -0.0417 -0.3371
11298TIP3   OH255308   0.103   4.969  15.883 -0.0891 -0.0118 -0.3190
11298TIP3    H155309   0.173   4.963  15.819 -1.6984 -0.2174 -2.1481
11298TIP3    H255310   0.040   5.031  15.845  0.0192  1.8162  2.2310
11299TIP3   OH255311   2.730   0.209   4.822 -0.3890 -0.3590 -0.1477
11299TIP3    H155312   2.777   0.289   4.800 -0.7225 -0.2657 -0.5386
11299TIP3    H255313   2.748   0.194   4.915  2.1917 -1.4755 -0.7180
11300TIP3   OH255314   4.335   3.029  14.395 -0.4992  0.0205  0.0056
11300TIP3    H155315   4.319   3.123  14.398 -2.8631 -0.3574  1.5096
11300TIP3    H255316   4.393   3.017  14.320 -0.3343  2.6277 -0.3717
11301TIP3   OH255317   2.154   1.178  11.705  0.6353  0.4392 -0.5936
11301TIP3    H155318   2.107   1.133  11.775 -0.1577 -0.0824 -1.4390
11301TIP3    H255319   2.246   1.171  11.730  0.4260 -0.4323 -0.0010
11302TIP3   OH255320   4.775   1.827   2.144  0.4342  0.0331 -0.1715
11302TIP3    H155321   4.820   1.787   2.218 -1.1030  1.8470  1.8658
11302TIP3    H255322   4.724   1.755   2.105  1.8239 -1.1041  0.0366
11303TIP3   OH255323   4.623   1.073  16.884  0.4211  0.2093 -1.0650
11303TIP3    H155324   4.584   1.020  16.815 -2.1155 -0.7152  0.9280
11303TIP3    H255325   4.717   1.071  16.866 -0.0117 -1.2421 -3.5651
11304TIP3   OH255326   2.037   0.796   3.852 -0.6946  0.1058  0.4938
11304TIP3    H155327   2.119   0.845   3.859 -0.2424 -0.1853 -1.7744
11304TIP3    H255328   2.062   0.705   3.870  0.0913 -0.3712 -2.3535
11305TIP3   OH255329   4.745   1.734  15.032  0.0858 -0.5555 -0.0747
11305TIP3    H155330   4.748   1.638  15.029  3.4477 -0.5412 -1.6690
11305TIP3    H255331   4.708   1.759  14.947  1.0916 -0.4965 -0.5167
11306TIP3   OH255332   0.849   2.338  16.866 -0.1970 -0.1763  0.1497
11306TIP3    H155333   0.878   2.401  16.932  0.4522 -0.1341 -0.1696
11306TIP3    H255334   0.927   2.321  16.813 -0.4194 -1.1000  0.1136
11307TIP3   OH255335   3.088   6.230   6.216  0.5781 -0.2718  0.3068
11307TIP3    H155336   3.035   6.253   6.292  0.7628 -0.4963  0.5054
11307TIP3    H255337   3.046   6.151   6.181  0.4821 -0.1579  0.1652
11308TIP3   OH255338   4.352   5.611  10.693  0.0511 -0.6097 -0.4678
11308TIP3    H155339   4.340   5.704  10.675  2.3576 -0.6437 -2.5224
11308TIP3    H255340   4.443   5.602  10.720 -0.2204 -2.2467  0.0637
11309TIP3   OH255341   5.714   0.499  12.654 -0.0633 -0.3920  0.2106
11309TIP3    H155342   5.691   0.465  12.568 -0.6073  1.0907 -0.2723
11309TIP3    H255343   5.706   0.594  12.645 -0.7095 -0.2158  2.0454
11310TIP3   OH255344   3.520   5.654   6.434  0.0496 -0.0397  0.1463
11310TIP3    H155345   3.519   5.581   6.372 -0.4727 -0.7700  0.9925
11310TIP3    H255346   3.453   5.713   6.401  1.2529  0.6537 -1.1955
11311TIP3   OH255347   6.615   5.397   3.303 -0.2612 -0.5866 -0.1035
11311TIP3    H155348   6.597   5.413   3.395  0.8730  0.3949 -0.0136
11311TIP3    H255349   6.530   5.401   3.260 -0.7366 -0.5000  0.8336
11312TIP3   OH255350   4.798   5.562  13.162 -0.1257 -0.2615 -0.5965
11312TIP3    H155351   4.774   5.650  13.192  1.8011  0.4465 -0.9520
11312TIP3    H255352   4.761   5.555  13.074 -1.1028 -0.1968 -0.2026
11313TIP3   OH255353   0.104   3.789   0.155 -0.8060 -0.2149  0.4840
11313TIP3    H155354   0.097   3.883   0.174 -2.0005 -0.4677  1.4291
11313TIP3    H255355   0.163   3.784   0.080 -0.1327  1.2336  0.8821
11314TIP3   OH255356   6.743   2.844   2.937 -0.3493 -0.2046  0.5251
11314TIP3    H155357   6.798   2.798   2.874  0.4156  1.2387  0.0962
11314TIP3    H255358   6.796   2.848   3.016  0.3115  1.3956  0.0404
11315TIP3   OH255359   4.430   3.112  17.254 -0.2152 -0.4580  0.4193
11315TIP3    H155360   4.468   3.062  17.326  0.3004  0.1109  0.5482
11315TIP3    H255361   4.494   3.179  17.234 -0.8468  0.0840  0.1642
11316TIP3   OH255362   4.792   0.429   4.201  0.0965  0.3077 -0.8146
11316TIP3    H155363   4.716   0.468   4.157  1.4524  1.2872 -2.4474
11316TIP3    H255364   4.811   0.490   4.273 -1.7090 -0.9219  0.7865
11317TIP3   OH255365   0.017   3.191  14.642  0.1220  0.2148 -0.6453
11317TIP3    H155366   0.100   3.206  14.597  0.3598 -1.7966 -0.9943
11317TIP3    H255367  -0.039   3.152  14.575 -1.3322  2.0557 -0.5660
11318TIP3   OH255368   6.233   3.499  12.451 -0.2114 -0.0833  0.3710
11318TIP3    H155369   6.262   3.577  12.497 -1.2895  0.8079 -0.4090
11318TIP3    H255370   6.307   3.438  12.457 -0.3139 -0.0647  3.2881
11319TIP3   OH255371   2.688   2.249   0.597  0.4331 -0.7219  0.0484
11319TIP3    H155372   2.681   2.315   0.528 -1.0870 -3.3295 -2.4926
11319TIP3    H255373   2.751   2.186   0.563 -0.1505 -1.9486  1.1658
11320TIP3   OH255374   2.053   6.512   5.798  0.1793 -0.1656  0.1390
11320TIP3    H155375   2.132   6.567   5.798 -0.1352  0.2979  1.1791
11320TIP3    H255376   1.981   6.573   5.785 -0.1034 -0.4467  0.3729
11321TIP3   OH255377   5.902   5.950   4.344 -0.4257 -0.0078  0.0339
11321TIP3    H155378   5.938   5.900   4.417  0.7949  0.1794 -0.4297
11321TIP3    H255379   5.892   5.885   4.274  0.8460  0.3065 -0.4600
11322TIP3   OH255380   2.762   2.334  16.072  0.6053  0.2094 -0.1107
11322TIP3    H155381   2.735   2.242  16.073  2.3337 -0.3502 -0.8482
11322TIP3    H255382   2.683   2.381  16.045  0.1479 -1.2515 -1.5324
11323TIP3   OH255383   0.079   2.123   0.507 -0.4477 -0.6485  0.3461
11323TIP3    H155384   0.089   2.033   0.539  3.3076 -0.7856 -0.7312
11323TIP3    H255385   0.029   2.113   0.426  1.1203 -2.0427 -0.5173
11324TIP3   OH255386   1.313   2.014   4.008  0.1900  0.4493 -0.2110
11324TIP3    H155387   1.286   1.970   3.928  0.0008  0.7701 -0.3259
11324TIP3    H255388   1.243   1.996   4.071  0.2033  0.4289 -0.2020
11325TIP3   OH255389   3.974   0.262   5.525  0.0680  0.4464  0.2464
11325TIP3    H155390   3.950   0.277   5.433 -1.6945 -0.3070  0.5352
11325TIP3    H255391   4.046   0.200   5.521 -1.1777 -1.0170 -0.6303
11326TIP3   OH255392   0.519   0.693  10.913  0.5139 -0.4911 -0.3075
11326TIP3    H155393   0.612   0.674  10.923  0.5762  0.0448  0.2278
11326TIP3    H255394   0.479   0.609  10.891  0.8502 -1.1721  1.5162
11327TIP3   OH255395   2.499   4.141  14.604  0.5121 -0.4215 -0.1933
11327TIP3    H155396   2.468   4.231  14.598  0.6633 -0.3958 -0.6686
11327TIP3    H255397   2.551   4.138  14.684  0.7662 -0.0053 -0.3419
11328TIP3   OH255398   0.844   5.129  10.882  0.0696  0.1847  0.1561
11328TIP3    H155399   0.753   5.157  10.891 -0.1714  0.0196 -1.4371
11328TIP3    H255400   0.856   5.064  10.951 -1.1510 -0.0834  0.1466
11329TIP3   OH255401   2.013   5.700  12.943  0.2148 -0.5297  0.2040
11329TIP3    H155402   1.970   5.675  13.025  0.5979 -0.3387  0.4712
11329TIP3    H255403   2.102   5.725  12.970  0.0551  0.4571 -0.1360
11330TIP3   OH255404   4.049   3.804   0.433  0.1595  0.1615  0.4613
11330TIP3    H155405   4.122   3.829   0.376 -0.7008  0.5225 -0.5130
11330TIP3    H255406   4.064   3.711   0.452 -0.3718 -0.4302 -1.7092
11331TIP3   OH255407   0.210   6.479  16.288 -0.1466 -0.1335 -0.0227
11331TIP3    H155408   0.288   6.455  16.338  0.6593 -1.7679 -1.9536
11331TIP3    H255409   0.236   6.557  16.239 -0.2320  0.1804  0.4205
11332TIP3   OH255410   5.167   1.952   5.109 -0.5100  0.4035 -0.6886
11332TIP3    H155411   5.254   1.915   5.125 -0.2235  1.1004 -0.6154
11332TIP3    H255412   5.143   1.919   5.023 -0.5949 -0.5811 -0.3077
11333TIP3   OH255413   4.732   5.481  16.136 -0.2941 -0.7925 -0.4560
11333TIP3    H155414   4.736   5.558  16.079 -1.6055 -1.5048 -1.5883
11333TIP3    H255415   4.657   5.432  16.103 -1.2350 -1.1691  2.0270
11334TIP3   OH255416   5.357   3.362  12.165 -0.0509  0.4169 -0.1982
11334TIP3    H155417   5.425   3.334  12.226  0.4080 -0.2608 -1.0013
11334TIP3    H255418   5.299   3.417  12.217 -0.6468 -1.5140  1.3166
11335TIP3   OH255419   2.379   0.640   0.225  0.7596  0.0263 -0.0475
11335TIP3    H155420   2.301   0.615   0.176  1.6498 -1.4198 -0.7814
11335TIP3    H255421   2.357   0.622   0.317 -0.0113  0.3216 -0.1701
11336TIP3   OH255422   1.405   0.016   2.524 -0.2810 -0.0644  0.1299
11336TIP3    H155423   1.324   0.032   2.574  0.4355 -0.6029  1.5106
11336TIP3    H255424   1.467  -0.016   2.589  1.1414  0.5940 -0.8606
11337TIP3   OH255425   6.049   1.000   4.748 -0.1881 -0.0711  0.4281
11337TIP3    H155426   6.020   1.087   4.719  2.0635 -0.1720 -2.5497
11337TIP3    H255427   5.979   0.941   4.720  0.8759  0.1523 -3.1329
11338TIP3   OH255428   1.966   6.070   5.528  0.5866 -0.1061  0.1077
11338TIP3    H155429   1.877   6.105   5.528  1.0519  1.2763 -2.0255
11338TIP3    H255430   2.022   6.147   5.517  1.7314 -1.2357 -3.2741
11339TIP3   OH255431   6.166   1.632   2.849 -0.2041 -0.8336 -0.0927
11339TIP3    H155432   6.254   1.650   2.816  0.1815  1.4283  1.9150
11339TIP3    H255433   6.152   1.539   2.831  2.7858 -1.3796 -0.0438
11340TIP3   OH255434   4.069   3.522   0.426  0.1596 -0.2175 -0.2351
11340TIP3    H155435   4.054   3.494   0.336  3.1573  1.9603 -1.5770
11340TIP3    H255436   4.151   3.480   0.451 -0.6976 -0.8977  1.6067
11341TIP3   OH255437   0.722   3.717   6.163  0.0958 -0.1230 -0.2242
11341TIP3    H155438   0.659   3.787   6.146  0.1321 -0.1384 -0.4279
11341TIP3    H255439   0.668   3.640   6.178 -0.1052  0.5153  3.0383
11342TIP3   OH255440   6.637   2.671   0.584 -0.2151 -0.5403  0.5564
11342TIP3    H155441   6.711   2.731   0.575 -1.2096  0.7683  0.8692
11342TIP3    H255442   6.566   2.712   0.535 -1.5769 -0.2955  2.6106
11343TIP3   OH255443   3.969   5.631  15.847  0.2523 -0.4703 -0.3633
11343TIP3    H155444   3.923   5.602  15.768  0.3213  0.9558 -0.9587
11343TIP3    H255445   3.907   5.614  15.918 -0.1503 -0.9879 -0.8269
11344TIP3   OH255446   0.779   4.917  11.512  0.6296  0.0700 -0.0633
11344TIP3    H155447   0.710   4.982  11.508  1.8688  1.3586 -2.7903
11344TIP3    H255448   0.860   4.968  11.516  1.5367 -1.3723  0.9278
11345TIP3   OH255449   0.162   6.325   5.961  0.1598 -0.4097  0.1438
11345TIP3    H155450   0.216   6.247   5.968  0.4922 -0.1004  1.2567
11345TIP3    H255451   0.152   6.356   6.051 -1.4086 -0.1343 -0.0868
11346TIP3   OH255452   4.907   3.876  16.953  0.2758 -0.3002 -0.8145
11346TIP3    H155453   4.943   3.940  17.014  0.0537  0.0728 -1.0701
11346TIP3    H255454   4.975   3.810  16.944 -0.7710 -1.9909  2.1664
11347TIP3   OH255455   2.852   6.081   1.742  0.1724 -0.2431  0.1784
11347TIP3    H155456   2.845   6.169   1.779  0.3061 -0.9254  1.9800
11347TIP3    H255457   2.800   6.026   1.802 -1.1671 -1.1872 -1.7566
11348TIP3   OH255458   5.607   1.213   6.094  0.2202 -0.7848 -0.3441
11348TIP3    H155459   5.674   1.145   6.099  0.8826 -0.0871  0.4425
11348TIP3    H255460   5.654   1.292   6.069  0.2144  0.3239  2.7322
11349TIP3   OH255461   0.333   2.938  12.127 -0.0997 -0.2697 -0.6346
11349TIP3    H155462   0.342   2.912  12.035  0.1160 -0.3346 -0.5945
11349TIP3    H255463   0.254   2.992  12.128  0.8243  1.1458 -1.1767
11350TIP3   OH255464   3.155   1.621  13.854  0.1135 -0.3083 -0.4323
11350TIP3    H155465   3.143   1.713  13.880  0.0069 -0.7326  1.0916
11350TIP3    H255466   3.246   1.602  13.873  0.4854 -0.1738 -1.9616
11351TIP3   OH255467   6.738   3.882  14.602 -0.5793  0.7066  0.3396
11351TIP3    H155468   6.822   3.927  14.616 -0.3058 -0.2565  1.9834
11351TIP3    H255469   6.676   3.952  14.585  0.3546  1.5099  0.1369
11352TIP3   OH255470   1.015   1.151   5.365 -0.0215 -0.2939 -0.0642
11352TIP3    H155471   1.057   1.131   5.449  1.1506  0.8940 -0.3287
11352TIP3    H255472   0.951   1.219   5.386  0.8565  0.6025 -0.2492
11353TIP3   OH255473   3.231   2.758  17.081  0.3647  0.8946 -0.1153
11353TIP3    H155474   3.327   2.766  17.082  0.4645 -0.2399  0.6312
11353TIP3    H255475   3.212   2.701  17.006  0.4887 -1.0838  1.3093
11354TIP3   OH255476   4.062   3.463  14.409 -0.3878  0.6889 -0.8824
11354TIP3    H155477   3.972   3.446  14.382 -0.9167  1.5160  0.2878
11354TIP3    H255478   4.075   3.557  14.391 -0.5431  1.1119  1.0595
11355TIP3   OH255479   6.082   1.552  17.185  0.7127 -0.2759  0.3121
11355TIP3    H155480   6.115   1.529  17.271  1.0866  1.2849  0.6183
11355TIP3    H255481   6.104   1.645  17.175  0.8279 -0.4635 -1.5322
11356TIP3   OH255482   3.312   3.132   3.652  0.0077 -0.6055  0.2001
11356TIP3    H155483   3.298   3.057   3.710  1.2114 -1.1814 -0.2175
11356TIP3    H255484   3.396   3.169   3.680 -0.3106  0.2605  0.0491
11357TIP3   OH255485   5.734   4.915   6.183 -0.4792 -0.5091  0.1673
11357TIP3    H155486   5.825   4.936   6.203 -0.0814  0.6025 -2.3735
11357TIP3    H255487   5.685   4.993   6.210 -0.4924 -0.5913  0.3785
11358TIP3   OH255488   0.089   3.723   1.857  0.2282  0.2327 -0.0239
11358TIP3    H155489   0.057   3.733   1.767  1.7941  0.3112 -0.6103
11358TIP3    H255490   0.015   3.688   1.906 -0.4803 -0.3855 -1.4859
11359TIP3   OH255491   1.296   5.690   0.148 -1.4330 -0.2238 -0.1410
11359TIP3    H155492   1.283   5.738   0.066 -0.6289  0.8294  0.3249
11359TIP3    H255493   1.216   5.706   0.199 -1.6320 -0.2942 -0.4287
11360TIP3   OH255494   4.215   2.587   4.979 -0.1433 -0.1548 -0.5397
11360TIP3    H155495   4.249   2.648   5.043 -1.4112  0.4195 -0.3769
11360TIP3    H255496   4.272   2.510   4.985 -0.5842 -0.3553  1.7032
11361TIP3   OH255497   3.040   6.317   4.311  0.7420 -0.1295 -0.5822
11361TIP3    H155498   2.996   6.356   4.235 -0.8347  2.9139  1.6661
11361TIP3    H255499   3.047   6.389   4.374  2.9408 -2.2302  1.8029
11362TIP3   OH255500   6.506   0.779   2.814 -0.0285 -0.9751  0.0564
11362TIP3    H155501   6.575   0.724   2.777  0.0257 -0.2225 -1.0010
11362TIP3    H255502   6.525   0.867   2.781 -0.5050 -0.4340  1.1581
11363TIP3   OH255503   2.472   4.776   3.560 -0.0153  0.2490 -0.2273
11363TIP3    H155504   2.460   4.767   3.466 -0.7667 -2.5413  0.0475
11363TIP3    H255505   2.531   4.705   3.584  0.0029  0.7770  1.4253
11364TIP3   OH255506   2.645   0.181  15.554  0.0163 -0.8993  0.4184
11364TIP3    H155507   2.617   0.260  15.508  1.3429  1.4254  3.2979
11364TIP3    H255508   2.621   0.110  15.495 -1.0223  1.6124 -2.4681
11365TIP3   OH255509   4.098   3.113   1.694  0.1415  0.2476  0.3906
11365TIP3    H155510   4.043   3.037   1.675 -0.5500  0.1440  2.4605
11365TIP3    H255511   4.158   3.119   1.620 -0.0479 -2.0769 -0.0226
11366TIP3   OH255512   6.364   6.675   0.729 -0.4848 -0.3596 -0.3171
11366TIP3    H155513   6.400   6.588   0.744 -2.1530 -0.8822  1.0020
11366TIP3    H255514   6.379   6.722   0.811 -0.4828  0.2753 -0.6734
11367TIP3   OH255515   2.955   4.113   4.744 -0.4731  0.3066  0.1668
11367TIP3    H155516   2.944   4.115   4.649  1.5326  1.4368 -0.1011
11367TIP3    H255517   3.042   4.151   4.759 -0.4460 -0.4835  2.4159
11368TIP3   OH255518   4.619   6.238   2.152 -0.7256 -0.2151 -0.2139
11368TIP3    H155519   4.641   6.188   2.231 -1.7954 -0.8055 -0.2641
11368TIP3    H255520   4.703   6.254   2.109 -0.3319 -2.0739 -0.2350
11369TIP3   OH255521   3.992   4.796   5.420 -0.2289 -0.0364  0.2047
11369TIP3    H155522   4.072   4.774   5.371 -1.4562 -1.1937 -1.3931
11369TIP3    H255523   3.987   4.891   5.416 -0.5760 -0.0897 -2.5394
11370TIP3   OH255524   4.995   5.173   6.022 -0.3673  0.6659 -0.1679
11370TIP3    H155525   4.964   5.245   6.078  1.0150  0.9646  0.2487
11370TIP3    H255526   5.089   5.166   6.041 -0.2711 -0.5765 -0.9677
11371TIP3   OH255527   6.081   2.926   2.877  0.1821 -0.7281 -0.1167
11371TIP3    H155528   6.112   2.838   2.897 -1.0243 -0.9467  0.8465
11371TIP3    H255529   6.043   2.919   2.789 -1.4290 -1.5768  0.6309
11372TIP3   OH255530   1.043   0.117   6.319 -0.2136 -0.3320  0.0969
11372TIP3    H155531   1.070   0.064   6.395  1.3810 -0.2015 -0.3450
11372TIP3    H255532   1.120   0.119   6.263 -0.9271  0.7478 -0.8839
11373TIP3   OH255533   2.462   2.339   1.255 -0.0483 -0.1763  0.0732
11373TIP3    H155534   2.416   2.404   1.309 -0.6452  0.5513 -1.2643
11373TIP3    H255535   2.458   2.258   1.306 -0.9838  0.3869  0.9267
11374TIP3   OH255536   6.561   0.516   0.147 -0.0503  0.2913 -0.1544
11374TIP3    H155537   6.605   0.569   0.213  1.4983 -0.5191 -0.4709
11374TIP3    H255538   6.615   0.525   0.069 -1.4786  0.6965 -1.1416
11375TIP3   OH255539   3.205   1.838  14.390  0.2802  0.4009 -0.2512
11375TIP3    H155540   3.192   1.839  14.295 -0.1715  0.8430 -0.1873
11375TIP3    H255541   3.265   1.909  14.408  2.7123 -1.4591 -0.5095
11376TIP3   OH255542   3.328   1.275   4.169  0.0403  0.2367  1.0249
11376TIP3    H155543   3.393   1.344   4.151  0.2735 -0.2860 -0.2415
11376TIP3    H255544   3.251   1.302   4.119  0.1578 -0.4451  0.4620
11377TIP3   OH255545   1.802   4.916  12.456  0.3208  0.3388  0.4041
11377TIP3    H155546   1.817   4.857  12.382  1.6588  0.4260  0.5767
11377TIP3    H255547   1.742   4.868  12.513 -2.4938  1.1000 -1.6658
11378TIP3   OH255548   6.175   6.454   4.343 -0.3874  0.5133  0.9148
11378TIP3    H155549   6.158   6.382   4.403  0.4103 -0.8172 -0.4057
11378TIP3    H255550   6.257   6.492   4.373 -0.4481  0.4227  1.1953
11379TIP3   OH255551   3.446   4.703  12.270 -0.5655 -0.1113 -0.1014
11379TIP3    H155552   3.445   4.621  12.319  0.8188  0.8759  1.7143
11379TIP3    H255553   3.537   4.714  12.242 -0.7553  0.7466 -0.4287
11380TIP3   OH255554   1.348   5.353   1.075  0.1020  0.2125 -0.3518
11380TIP3    H155555   1.376   5.267   1.044 -1.8113 -0.4786 -0.3167
11380TIP3    H255556   1.380   5.358   1.165  0.9456 -0.0986 -0.6267
11381TIP3   OH255557   2.626   3.868   0.567  0.1756  0.4343 -1.1805
11381TIP3    H155558   2.624   3.956   0.530 -1.5365  0.7332 -0.4475
11381TIP3    H255559   2.541   3.857   0.611  0.5104 -1.4219 -0.8834
11382TIP3   OH255560   4.196   6.073  11.225 -0.2581 -0.0582 -0.0198
11382TIP3    H155561   4.261   6.003  11.234 -1.8366 -1.5576  0.3064
11382TIP3    H255562   4.213   6.132  11.297  1.7325  0.4597 -0.8633
11383TIP3   OH255563   5.758   4.748  15.280  0.3056 -0.5702  0.1631
11383TIP3    H155564   5.794   4.831  15.248 -1.0983  0.0125  0.0243
11383TIP3    H255565   5.806   4.681  15.232 -1.6628  0.2457 -3.2561
11384TIP3   OH255566   6.427   4.201  13.559  0.1930 -0.0773 -0.3888
11384TIP3    H155567   6.334   4.207  13.579 -0.3915  2.0100 -3.0787
11384TIP3    H255568   6.472   4.236  13.636 -1.2608 -0.2967  0.5893
11385TIP3   OH255569   0.460   1.365   3.362  0.2060  0.5838 -0.8626
11385TIP3    H155570   0.533   1.417   3.396 -0.2473  0.3850  0.5143
11385TIP3    H255571   0.500   1.282   3.335  0.2373 -0.6573  2.5051
11386TIP3   OH255572   1.804   6.695  13.936 -0.1514  0.0957  0.2566
11386TIP3    H155573   1.773   6.762  13.997  1.3948  1.2732 -0.1709
11386TIP3    H255574   1.746   6.620  13.950 -0.1378  0.4820  2.8461
11387TIP3   OH255575   0.178   4.082  14.671  0.0502 -0.6457 -0.0034
11387TIP3    H155576   0.224   4.122  14.598 -3.4058  0.1047 -1.9682
11387TIP3    H255577   0.164   4.154  14.733  0.1792 -0.5310 -0.1081
11388TIP3   OH255578   1.076   1.329  11.818  0.4605  0.2940 -0.5907
11388TIP3    H155579   1.062   1.306  11.726 -2.2412 -0.6772 -0.0309
11388TIP3    H255580   1.123   1.412  11.816  0.7139  0.1451 -2.8241
11389TIP3   OH255581   2.136   6.282  12.771  0.4866  0.1771  0.3723
11389TIP3    H155582   2.155   6.272  12.677  1.7063  0.4498  0.5836
11389TIP3    H255583   2.212   6.245  12.815 -0.2977 -0.3997  1.2837
11390TIP3   OH255584   4.600   3.450   3.605  0.1350 -0.7819  0.5030
11390TIP3    H155585   4.544   3.491   3.538  0.5425  1.1042  1.2530
11390TIP3    H255586   4.656   3.390   3.556 -1.4799 -1.5705 -0.4613
11391TIP3   OH255587   2.690   0.988   1.580 -0.1475 -0.5316 -0.5057
11391TIP3    H155588   2.648   0.915   1.626 -0.9725 -0.9096 -1.7988
11391TIP3    H255589   2.684   0.965   1.488  2.5133 -0.3606 -0.8092
11392TIP3   OH255590   5.691   0.743   4.645  0.0546  0.1845  0.4395
11392TIP3    H155591   5.725   0.833   4.648 -0.6766  0.4437  2.0548
11392TIP3    H255592   5.606   0.748   4.689 -0.4597 -1.1266 -0.3528
11393TIP3   OH255593   4.955   3.442   5.910 -0.1182  0.5816  0.0189
11393TIP3    H155594   4.986   3.353   5.928 -1.0872  0.2714  0.2117
11393TIP3    H255595   4.998   3.495   5.976  1.1119  0.3920 -0.6114
11394TIP3   OH255596   0.050   6.445  14.904 -0.1808 -0.2042 -0.6613
11394TIP3    H155597   0.095   6.363  14.926 -1.5914 -1.8771 -3.4024
11394TIP3    H255598   0.120   6.509  14.893  1.0886 -1.4242 -0.0224
11395TIP3   OH255599   0.574   5.936   3.089 -0.5373 -0.1528  0.2624
11395TIP3    H155600   0.563   5.955   3.182 -3.4757 -0.5576  0.1052
11395TIP3    H255601   0.556   5.842   3.081  1.2877 -0.4768 -0.5545
11396TIP3   OH255602   5.704   0.537   0.386  0.2197  0.0789 -0.0936
11396TIP3    H155603   5.720   0.450   0.423 -0.3138  0.5346  1.2801
11396TIP3    H255604   5.790   0.567   0.357  0.4243 -0.8579 -0.4921
11397TIP3   OH255605   1.087   0.586  13.733  0.2814 -0.5837 -0.1294
11397TIP3    H155606   1.034   0.627  13.664  0.0507  1.0412  0.9639
11397TIP3    H255607   1.177   0.591  13.700  0.0111 -1.3260 -1.0179
11398TIP3   OH255608   2.062   1.890  11.539  0.2104 -0.5528  0.4842
11398TIP3    H155609   1.995   1.953  11.511  0.4071 -0.4831  0.1638
11398TIP3    H255610   2.144   1.940  11.534  0.3103 -0.6998  0.6725
11399TIP3   OH255611   2.061   5.060  14.871  0.0696  0.4417 -0.7778
11399TIP3    H155612   2.117   5.034  14.945  0.5091  0.5764 -1.0637
11399TIP3    H255613   2.004   4.984  14.857 -0.6692  0.7681  0.3085
11400TIP3   OH255614   6.636   2.024   4.642 -0.5591 -0.2383  0.4905
11400TIP3    H155615   6.550   1.983   4.635 -0.2260 -0.9993  0.7328
11400TIP3    H255616   6.632   2.078   4.720 -0.5391 -0.9719  1.0051
11401TIP3   OH255617   1.648   5.994  16.504  0.4931 -0.3812 -0.3867
11401TIP3    H155618   1.608   5.917  16.545 -2.4719  0.8190 -0.7589
11401TIP3    H255619   1.655   5.971  16.411  0.1280 -0.4113 -0.4084
11402TIP3   OH255620   0.583   0.350   1.864 -0.2701  0.1944 -0.2028
11402TIP3    H155621   0.600   0.427   1.918  1.9030 -1.8586  2.3422
11402TIP3    H255622   0.501   0.315   1.898  0.4214 -0.3663  0.9518
11403TIP3   OH255623   4.741   4.748   6.254  0.9101  0.3024 -0.6699
11403TIP3    H155624   4.827   4.737   6.294  1.0534  0.1109 -1.0278
11403TIP3    H255625   4.732   4.672   6.197  0.5680  0.4052 -0.7511
11404TIP3   OH255626   4.010   5.462   5.689 -0.1128 -0.1715 -0.2509
11404TIP3    H155627   4.102   5.438   5.678 -0.4774 -1.5186 -0.5714
11404TIP3    H255628   3.973   5.391   5.742 -0.7666  0.8350  0.6708
11405TIP3   OH255629   1.148   5.179  10.927 -0.1035 -0.5615  0.0825
11405TIP3    H155630   1.176   5.097  10.887 -1.7061 -0.0807 -2.2508
11405TIP3    H255631   1.052   5.180  10.916 -0.1025  1.7990 -0.4342
11406TIP3   OH255632   1.793   5.613  16.876  0.0524 -1.0833 -0.2086
11406TIP3    H155633   1.881   5.650  16.872 -0.8129  0.9996 -2.3093
11406TIP3    H255634   1.761   5.636  16.963  0.8495  0.0416 -0.1924
11407TIP3   OH255635   5.709   2.829  15.078 -0.0835  0.2956 -0.7661
11407TIP3    H155636   5.780   2.893  15.077  0.5310 -0.3368  0.4090
11407TIP3    H255637   5.644   2.864  15.017  0.7654  1.4230 -1.0495
11408TIP3   OH255638   5.621   1.721  13.795 -0.2292 -1.0548 -0.0415
11408TIP3    H155639   5.573   1.780  13.736 -0.5278 -1.7405 -0.4955
11408TIP3    H255640   5.597   1.751  13.883  1.1850  0.7607 -0.2194
11409TIP3   OH255641   2.501   0.694   1.435  0.2211 -0.0360 -0.4344
11409TIP3    H155642   2.528   0.617   1.485 -0.6145 -0.6467 -0.8934
11409TIP3    H255643   2.462   0.752   1.501  0.8041 -0.0193 -0.0946
11410TIP3   OH255644   3.676   4.717  16.838 -0.5849 -0.2812  0.4477
11410TIP3    H155645   3.597   4.698  16.787 -1.4382  3.0168  0.2863
11410TIP3    H255646   3.739   4.748  16.772 -0.3623  0.3553  0.9539
11411TIP3   OH255647   4.175   1.503   6.144 -0.0357 -0.3960 -0.0904
11411TIP3    H155648   4.096   1.556   6.154  2.3940  3.7508 -0.5810
11411TIP3    H255649   4.206   1.490   6.234 -2.1407 -3.9063  0.3068
11412TIP3   OH255650   2.340   4.698   5.870 -0.2367  0.4757  0.0897
11412TIP3    H155651   2.414   4.757   5.856  1.0123 -0.8086  1.0483
11412TIP3    H255652   2.281   4.747   5.927  0.1511  1.2705 -0.1624
11413TIP3   OH255653   4.643   2.438  17.369 -0.2509 -0.2777 -0.0879
11413TIP3    H155654   4.575   2.421  17.304 -1.0647  1.0488  0.3793
11413TIP3    H255655   4.704   2.497  17.326 -1.2402  1.2919  0.5787
11414TIP3   OH255656   4.269   2.832   3.430  0.0422 -0.0706  0.0769
11414TIP3    H155657   4.229   2.913   3.398 -1.6960 -1.5794 -1.8166
11414TIP3    H255658   4.224   2.763   3.383  1.0781 -2.2150  2.0468
11415TIP3   OH255659   1.023   3.440  15.485 -0.4529 -0.0052 -0.4251
11415TIP3    H155660   1.031   3.366  15.425  0.2002  0.3163 -0.7519
11415TIP3    H255661   1.027   3.518  15.428  1.6027  0.3440  0.1247
11416TIP3   OH255662   6.311   3.590  11.048  0.1018 -0.1641 -0.0444
11416TIP3    H155663   6.333   3.588  10.955  0.9059 -2.7145  0.1341
11416TIP3    H255664   6.275   3.677  11.061 -0.0175  0.2982 -2.7333
11417TIP3   OH255665   0.747   3.579   0.395 -0.2334 -0.1914 -0.3141
11417TIP3    H155666   0.806   3.583   0.470 -2.0544 -0.1549  1.2112
11417TIP3    H255667   0.750   3.667   0.357 -0.3275  0.2235  0.6027
11418TIP3   OH255668   0.169   2.250   4.643 -0.5075  0.2215 -0.5229
11418TIP3    H155669   0.141   2.308   4.573  1.0680  1.1521 -0.4271
11418TIP3    H255670   0.261   2.270   4.656  0.0695 -2.2005 -0.3661
11419TIP3   OH255671   4.237   1.822   5.876 -0.0182 -0.7799  0.3845
11419TIP3    H155672   4.266   1.899   5.924  1.0077 -1.1286  0.3503
11419TIP3    H255673   4.276   1.748   5.922 -0.3469 -1.2275 -0.0390
11420TIP3   OH255674   6.632   1.617  15.437 -0.1441  0.1536 -0.2131
11420TIP3    H155675   6.581   1.536  15.433  0.1160  0.0243 -1.2706
11420TIP3    H255676   6.665   1.628  15.348  3.4364 -0.8899  0.8195
11421TIP3   OH255677   1.390   2.471   0.890 -0.3818 -0.3597 -0.1811
11421TIP3    H155678   1.422   2.409   0.825  0.2971 -0.9633  0.6893
11421TIP3    H255679   1.470   2.506   0.930 -0.7653  0.7286 -0.3252
11422TIP3   OH255680   1.223   6.072  16.142  0.2856 -0.2562  0.3860
11422TIP3    H155681   1.261   6.000  16.093 -2.0457 -1.7569  0.6641
11422TIP3    H255682   1.184   6.129  16.076 -1.0104 -1.1662  0.3532
11423TIP3   OH255683   2.207   0.737   0.560  0.0995 -0.2295 -0.3507
11423TIP3    H155684   2.192   0.741   0.654 -0.2094  0.8420 -0.4276
11423TIP3    H255685   2.121   0.751   0.521  0.0721 -1.5600 -0.8047
11424TIP3   OH255686   1.679   2.201  16.975  0.3092 -0.1314  0.1020
11424TIP3    H155687   1.700   2.272  17.036 -2.5685  0.3589  0.6799
11424TIP3    H255688   1.612   2.238  16.919 -1.0319 -2.2718  0.1907
11425TIP3   OH255689   2.039   0.677  15.756 -0.2889 -0.0382 -0.0311
11425TIP3    H155690   2.033   0.591  15.714 -2.2972  0.3636 -0.6703
11425TIP3    H255691   1.970   0.677  15.822 -0.4946  1.1834 -0.2209
11426TIP3   OH255692   3.690   0.777  12.315  0.5729  0.2438  0.1359
11426TIP3    H155693   3.753   0.772  12.242 -0.1193  3.4147 -0.8221
11426TIP3    H255694   3.719   0.853  12.366 -2.0144  1.4061  0.0278
11427TIP3   OH255695   1.512   1.422  10.944  0.2493  0.0152  0.1501
11427TIP3    H155696   1.506   1.327  10.948  0.8371  0.0102  1.2766
11427TIP3    H255697   1.580   1.445  11.007  1.0492  1.0965 -1.0630
11428TIP3   OH255698   1.604   6.351   3.584  0.1745  0.0631  0.0814
11428TIP3    H155699   1.566   6.279   3.635  1.0077  0.5275  1.4147
11428TIP3    H255700   1.699   6.342   3.596  0.3628  0.4997 -0.9820
11429TIP3   OH255701   3.947   1.766  11.513  0.0759  0.3847  0.1389
11429TIP3    H155702   4.020   1.817  11.478  0.1714  0.1444 -0.0150
11429TIP3    H255703   3.870   1.799  11.468  0.2788 -0.3606 -0.7765
11430TIP3   OH255704   0.358   6.611  11.503 -0.3502  0.0482 -0.0681
11430TIP3    H155705   0.402   6.620  11.418 -0.5247 -2.3619 -0.4918
11430TIP3    H255706   0.414   6.659  11.564  2.2995 -1.8599 -0.7948
11431TIP3   OH255707   4.796   0.589   0.226  0.4869  0.8230  0.1785
11431TIP3    H155708   4.705   0.616   0.241  0.4631  0.3447  0.9685
11431TIP3    H255709   4.848   0.654   0.273  0.9214  4.0906 -4.1707
11432TIP3   OH255710   1.369   1.097  16.085 -0.5575  0.8926 -0.2813
11432TIP3    H155711   1.359   1.179  16.036 -0.3016  0.7887 -0.5075
11432TIP3    H255712   1.370   1.029  16.017 -1.1377  0.6683 -0.0713
11433TIP3   OH255713   4.334   3.642  14.640 -0.5369 -0.2152 -0.2312
11433TIP3    H155714   4.403   3.707  14.658 -1.3099  1.2218 -2.0495
11433TIP3    H255715   4.333   3.586  14.717  1.9340  0.3563  0.3134
11434TIP3   OH255716   1.608   1.870  12.071  0.2384  0.3248 -0.3414
11434TIP3    H155717   1.620   1.824  12.155 -4.1324  2.0241  1.4991
11434TIP3    H255718   1.692   1.915  12.057  1.9082 -1.8010  1.8472
11435TIP3   OH255719   2.464   0.850   0.377 -0.1914 -0.1133  0.3335
11435TIP3    H155720   2.557   0.869   0.363 -0.2798 -0.1647 -0.3496
11435TIP3    H255721   2.443   0.784   0.311 -1.1481  1.1902 -0.7232
11436TIP3   OH255722   4.886   6.579  16.590  0.6047 -0.0912 -0.0592
11436TIP3    H155723   4.909   6.629  16.668 -0.8257  0.0349  0.3080
11436TIP3    H255724   4.928   6.627  16.518  1.9473 -0.2210  0.6066
11437TIP3   OH255725   6.594   3.533   5.471  0.5380  0.1802 -0.0866
11437TIP3    H155726   6.563   3.622   5.454 -1.8488 -0.6950 -0.6749
11437TIP3    H255727   6.664   3.519   5.407 -0.2634  1.0526 -1.1916
11438TIP3   OH255728   5.028   1.044  13.417 -0.7403  0.3714  0.1792
11438TIP3    H155729   5.090   0.993  13.468 -1.0444 -0.5993 -0.3869
11438TIP3    H255730   4.955   1.059  13.476 -0.5692  0.3096  0.4093
11439TIP3   OH255731   4.766   4.274  11.601 -0.2401  0.5207 -0.1365
11439TIP3    H155732   4.695   4.263  11.537 -0.8492  0.2534  0.5701
11439TIP3    H255733   4.728   4.328  11.670  0.6959  1.5732 -0.4127
11440TIP3   OH255734   2.353   3.986  14.235 -0.8963 -0.1089 -0.3852
11440TIP3    H155735   2.257   3.986  14.242 -0.9313  1.1221 -0.5243
11440TIP3    H255736   2.372   4.061  14.178  0.1153 -0.8250 -1.0192
11441TIP3   OH255737   4.131   2.931  12.414 -0.4107  1.1115  0.2802
11441TIP3    H155738   4.154   2.883  12.494 -0.2563  4.3875  2.3927
11441TIP3    H255739   4.188   2.893  12.347 -0.0659 -1.3369  1.8082
11442TIP3   OH255740   3.855   3.060  11.156  0.0322  0.7417  0.3148
11442TIP3    H155741   3.868   3.102  11.241 -0.3297 -0.4332  0.9697
11442TIP3    H255742   3.806   2.980  11.176  1.1423 -0.2694 -0.8297
11443TIP3   OH255743   3.822   5.803  16.726  0.3732  0.3089  0.4011
11443TIP3    H155744   3.795   5.848  16.646 -1.7324  1.8438  1.8539
11443TIP3    H255745   3.902   5.756  16.701 -0.1125  0.8075 -2.5308
11444TIP3   OH255746   5.126   1.978  16.365 -0.3760  0.3113 -0.6152
11444TIP3    H155747   5.213   1.993  16.404 -0.0162 -1.0125 -0.8488
11444TIP3    H255748   5.076   2.056  16.387  0.0911  0.0395  1.7326
11445TIP3   OH255749   5.047   4.541  12.648 -0.8185  0.6003  0.0610
11445TIP3    H155750   5.024   4.629  12.618 -1.9084  0.0745 -0.7174
11445TIP3    H255751   5.035   4.485  12.571 -1.7151 -0.4734  0.9262
11446TIP3   OH255752   0.052   2.721  10.848 -0.4709  0.0330  0.5656
11446TIP3    H155753  -0.036   2.746  10.819 -0.4608  0.3165  0.7787
11446TIP3    H255754   0.074   2.646  10.794 -1.2959 -0.7445  1.2682
11447TIP3   OH255755   2.110   6.713   4.799 -0.0846  0.0033 -0.9188
11447TIP3    H155756   2.128   6.806   4.788 -1.2482  0.3681  0.0089
11447TIP3    H255757   2.158   6.687   4.878  0.7017 -0.3369 -1.4963
11448TIP3   OH255758   6.656   3.882  15.194 -0.1033  0.4928 -0.6520
11448TIP3    H155759   6.622   3.828  15.266 -0.7454  0.7036 -0.7901
11448TIP3    H255760   6.751   3.875  15.202 -0.1324  1.2238  0.7724
11449TIP3   OH255761   3.302   0.705  13.162  0.4986  0.8066  0.3737
11449TIP3    H155762   3.242   0.701  13.088 -0.4780 -0.8400  1.1967
11449TIP3    H255763   3.380   0.657  13.132 -0.5815 -1.4275  0.9438
11450TIP3   OH255764   0.657   4.600   5.052  0.1138  0.1059  0.4136
11450TIP3    H155765   0.680   4.512   5.023  0.9383  0.3018  0.4495
11450TIP3    H255766   0.568   4.591   5.087 -0.3012 -0.4586 -0.7127
11451TIP3   OH255767   3.220   2.382  10.734 -0.0709  0.4995  0.0560
11451TIP3    H155768   3.249   2.328  10.807 -1.2032  0.4621  0.5072
11451TIP3    H255769   3.142   2.427  10.767 -0.5564  0.5489 -1.0971
11452TIP3   OH255770   3.624   4.197   3.461 -0.2847  0.0745 -0.2838
11452TIP3    H155771   3.642   4.287   3.488  0.4480 -0.3670  0.7452
11452TIP3    H255772   3.674   4.143   3.522 -1.0904 -1.0494 -0.5873
11453TIP3   OH255773   3.312   2.533   2.675 -0.2694  0.1785  0.5083
11453TIP3    H155774   3.399   2.493   2.670  0.1469  1.1604 -0.3689
11453TIP3    H255775   3.265   2.480   2.740  0.2057 -1.8257 -0.6940
11454TIP3   OH255776   2.264   5.443   2.271 -0.0746  0.7068 -0.3203
11454TIP3    H155777   2.334   5.475   2.327  0.7080 -0.4672 -0.5772
11454TIP3    H255778   2.234   5.363   2.315  0.9358 -0.5457 -1.8277
11455TIP3   OH255779   1.823   0.821  14.858 -0.1496  0.2040  0.0620
11455TIP3    H155780   1.812   0.915  14.852 -3.2606 -0.0618 -0.0695
11455TIP3    H255781   1.815   0.790  14.768  1.3507 -0.2009  0.0377
11456TIP3   OH255782   2.304   5.382   4.950 -0.4772 -0.2357 -0.4287
11456TIP3    H155783   2.287   5.455   5.010  1.3635  1.1836 -1.4998
11456TIP3    H255784   2.362   5.324   5.000 -1.2335 -0.5293  0.1236
11457TIP3   OH255785   1.615   1.061   5.474 -0.1611 -0.4884  0.3480
11457TIP3    H155786   1.526   1.026   5.482 -0.2036 -0.2135  1.2098
11457TIP3    H255787   1.613   1.143   5.523  0.3601 -0.0699 -0.3116
11458TIP3   OH255788   2.710   0.061  12.970 -0.1017 -0.1172 -0.5316
11458TIP3    H155789   2.767   0.115  13.024  0.0777 -0.0066 -0.8296
11458TIP3    H255790   2.660   0.123  12.917  1.2251 -0.2626 -2.0110
11459TIP3   OH255791   4.511   1.185  17.092 -0.0275 -0.2604 -0.4454
11459TIP3    H155792   4.537   1.137  17.013 -0.2097  0.3782 -0.9015
11459TIP3    H255793   4.533   1.276  17.074  0.6810 -0.2181  0.5771
11460TIP3   OH255794   4.869   3.588  12.811 -0.5458 -0.4431 -0.2406
11460TIP3    H155795   4.870   3.682  12.793 -2.2548  0.0131  1.7266
11460TIP3    H255796   4.777   3.562  12.805 -0.1662 -1.9006 -0.2729
11461TIP3   OH255797   4.697   6.334  15.350  0.0698  0.2734  0.0417
11461TIP3    H155798   4.650   6.356  15.430 -1.6948 -1.4055 -0.4505
11461TIP3    H255799   4.748   6.256  15.372 -1.2797 -0.8705 -0.6768
11462TIP3   OH255800   4.449   6.686   3.485 -0.0545  0.7355  0.3521
11462TIP3    H155801   4.499   6.642   3.554 -0.3211  2.2167  1.5429
11462TIP3    H255802   4.514   6.708   3.419  0.7537  1.9255  1.5128
11463TIP3   OH255803   6.186   3.877   1.893  0.0440  0.1273 -0.7878
11463TIP3    H155804   6.268   3.918   1.918 -1.0668  1.3794  0.9973
11463TIP3    H255805   6.209   3.822   1.817  2.9969 -1.4506  1.0499
11464TIP3   OH255806   2.575   5.434   4.996  0.1257 -0.2868 -0.1126
11464TIP3    H155807   2.640   5.364   5.000  0.9442  0.3834 -1.2129
11464TIP3    H255808   2.610   5.504   5.050 -0.4641 -0.5307  0.6003
11465TIP3   OH255809   1.999   1.178   2.480 -0.3251 -0.1021 -0.0820
11465TIP3    H155810   1.945   1.100   2.496  0.2131 -0.3102  0.8397
11465TIP3    H255811   1.936   1.247   2.460 -0.8090 -0.7849 -1.0203
11466TIP3   OH255812   0.253   1.015  17.303 -0.1617  0.3942 -0.3185
11466TIP3    H155813   0.311   1.089  17.314 -0.3812  0.5523 -0.2217
11466TIP3    H255814   0.292   0.964  17.232  0.1703  0.4215 -0.1578
11467TIP3   OH255815   2.337   5.457  11.212 -0.4591 -0.1664  0.0864
11467TIP3    H155816   2.304   5.509  11.285  1.6373  0.1999  0.8334
11467TIP3    H255817   2.293   5.493  11.135  0.2112  2.1156  0.7022
11468TIP3   OH255818   2.485   3.281  17.174  0.3100 -0.4704 -0.1908
11468TIP3    H155819   2.416   3.216  17.189 -0.9676  0.3852 -2.0465
11468TIP3    H255820   2.459   3.356  17.227 -0.8461  0.2743 -1.7691
11469TIP3   OH255821   2.308   1.173   6.297  0.9001 -0.3966  0.4940
11469TIP3    H155822   2.386   1.219   6.266 -0.6900  1.4728 -1.0209
11469TIP3    H255823   2.342   1.101   6.350  3.6721 -0.4783 -1.1972
11470TIP3   OH255824   2.535   5.557  14.335  0.1044  0.1790  0.0811
11470TIP3    H155825   2.461   5.611  14.307 -0.2900 -0.4785 -0.1813
11470TIP3    H255826   2.547   5.495  14.262  2.4787  1.7972 -1.0053
11471TIP3   OH255827   3.461   4.748  15.136  0.1482  0.5257  0.3359
11471TIP3    H155828   3.475   4.825  15.082  0.1882  1.1223  1.1757
11471TIP3    H255829   3.380   4.709  15.102  0.5390  0.4953 -0.5880
11472TIP3   OH255830   2.241   3.471  15.091  0.3044 -0.3916  0.1366
11472TIP3    H155831   2.264   3.379  15.078  1.1825 -0.1975  0.2564
11472TIP3    H255832   2.292   3.518  15.025  1.2083  0.1650  1.2155
11473TIP3   OH255833   5.936   2.461  14.087 -0.2699  0.1108  0.0230
11473TIP3    H155834   5.977   2.533  14.134 -1.2460  1.0642 -0.5412
11473TIP3    H255835   5.964   2.472  13.996  0.5274 -0.9346  0.1245
11474TIP3   OH255836   3.683   5.185  11.849 -0.3310  0.0034  0.1305
11474TIP3    H155837   3.763   5.159  11.895 -0.4943  2.3280  1.9066
11474TIP3    H255838   3.710   5.258  11.794 -1.0756  0.3584  0.2247
11475TIP3   OH255839   3.630   3.749  13.846  0.3760  0.0022  0.5777
11475TIP3    H155840   3.633   3.656  13.824  1.5166 -0.1850  1.4415
11475TIP3    H255841   3.661   3.793  13.766 -0.6541 -0.3037 -0.0095
11476TIP3   OH255842   6.426   0.269  17.032  0.1664  0.2392 -0.1976
11476TIP3    H155843   6.419   0.184  16.989  1.0471  1.1464 -2.3259
11476TIP3    H255844   6.336   0.295  17.050 -0.1769 -0.6747 -0.5452
11477TIP3   OH255845   4.699   4.383   4.444 -0.5230  0.1597  0.1093
11477TIP3    H155846   4.759   4.325   4.396  2.1189  2.0256  0.8956
11477TIP3    H255847   4.722   4.370   4.536 -1.9953  0.3077  0.5179
11478TIP3   OH255848   0.200   3.599  13.658 -0.5303  0.5750  0.1733
11478TIP3    H155849   0.135   3.623  13.591 -0.4727  1.0935  0.2957
11478TIP3    H255850   0.262   3.672  13.657 -0.4979  0.5525  0.7509
11479TIP3   OH255851   0.655   1.107   2.761 -0.1398  0.9808  0.0374
11479TIP3    H155852   0.668   1.087   2.854  2.1812  2.0877  0.0049
11479TIP3    H255853   0.630   1.023   2.722  1.1176 -0.0078  1.2698
11480TIP3   OH255854   6.451   5.081   6.653 -0.6668 -0.5117  0.6777
11480TIP3    H155855   6.414   5.160   6.613 -0.5934  0.0074  1.5973
11480TIP3    H255856   6.381   5.049   6.710 -0.6496 -1.0548  0.3998
11481TIP3   OH255857   0.883   4.025  11.502  0.0597 -0.0438  0.0905
11481TIP3    H155858   0.902   4.031  11.596  0.9598  0.3438 -0.1007
11481TIP3    H255859   0.820   3.954  11.494  1.3178 -1.3037  0.8233
11482TIP3   OH255860   4.963   6.477   1.397 -0.0034  0.1495 -0.3174
11482TIP3    H155861   4.967   6.384   1.419 -0.3054 -0.2282 -1.7248
11482TIP3    H255862   4.878   6.506   1.431  0.3343  0.0657  0.6222
11483TIP3   OH255863   6.525   1.977  15.514 -0.0913  0.6677 -0.0590
11483TIP3    H155864   6.494   1.980  15.604  0.7927  0.9051  0.2476
11483TIP3    H255865   6.600   1.919  15.516 -0.0968  0.6285 -0.6587
11484TIP3   OH255866   6.663   4.915   5.938 -0.1207 -0.2589 -0.5451
11484TIP3    H155867   6.576   4.877   5.924 -0.4223  0.8847 -2.0636
11484TIP3    H255868   6.647   5.009   5.946  0.9914  0.0148 -1.2596
11485TIP3   OH255869   3.618   1.303   2.852 -0.8991  0.3250 -1.0746
11485TIP3    H155870   3.591   1.306   2.944  0.9133  1.2069 -0.5104
11485TIP3    H255871   3.619   1.210   2.829  0.1613 -0.0354  0.3156
11486TIP3   OH255872   4.361   0.595   1.647  0.0783 -0.0999  0.6679
11486TIP3    H155873   4.358   0.526   1.581 -0.6352 -0.2430  0.8404
11486TIP3    H255874   4.423   0.564   1.712  0.8524  0.0801  0.0282
11487TIP3   OH255875   3.472   4.300  16.998 -0.0239  0.4823  0.1043
11487TIP3    H155876   3.442   4.343  17.078  0.8384  2.1722 -0.4345
11487TIP3    H255877   3.531   4.363  16.958  0.5882 -0.8694 -1.2105
11488TIP3   OH255878   1.034   6.474   4.038 -0.0972  0.0639 -0.3020
11488TIP3    H155879   0.954   6.453   4.085 -0.4148  3.0579  0.6949
11488TIP3    H255880   1.008   6.475   3.946 -1.0823  0.5411 -0.0291
11489TIP3   OH255881   6.201   2.099  11.931  0.6674  0.0697 -0.4051
11489TIP3    H155882   6.175   2.016  11.892  0.0974  0.3027 -0.5326
11489TIP3    H255883   6.247   2.075  12.012  1.1305 -0.3843 -0.7995
11490TIP3   OH255884   0.781   5.215   4.725  0.6759 -1.0764  0.2532
11490TIP3    H155885   0.702   5.165   4.746 -0.0054  0.9834  3.2598
11490TIP3    H255886   0.847   5.183   4.787  1.1086 -0.3261  0.1933
11491TIP3   OH255887   0.737   4.031  12.358 -0.0997  0.1337  0.3827
11491TIP3    H155888   0.793   3.954  12.358 -0.2928 -0.0952  3.4767
11491TIP3    H255889   0.732   4.058  12.449 -2.7418  1.8569 -0.1578
11492TIP3   OH255890   6.614   3.947  15.963 -0.1560  0.4264 -0.8064
11492TIP3    H155891   6.594   4.034  15.997  1.0715  0.2516  0.4545
11492TIP3    H255892   6.535   3.921  15.916 -0.7373  1.9905 -0.7435
11493TIP3   OH255893   0.060   5.502  15.366  0.2447  0.1392 -0.3373
11493TIP3    H155894   0.120   5.499  15.291 -0.4870 -0.1160 -0.9279
11493TIP3    H255895   0.012   5.419  15.362  0.9135 -0.3349  1.0321
11494TIP3   OH255896   5.847   5.139   0.249  0.6161 -0.3060  0.1016
11494TIP3    H155897   5.848   5.228   0.284  1.0116 -1.5438  3.5621
11494TIP3    H255898   5.940   5.114   0.246  0.4633 -0.8500 -0.1883
11495TIP3   OH255899   2.659   4.502  11.684  0.1337  0.0065  0.3932
11495TIP3    H155900   2.629   4.443  11.615  0.3720 -2.1595  2.0708
11495TIP3    H255901   2.583   4.558  11.702 -1.2529 -1.9642  1.0033
11496TIP3   OH255902   2.506   6.019   6.062  0.3004 -0.3250  0.2805
11496TIP3    H155903   2.556   6.098   6.080 -1.5700  1.5135 -1.8611
11496TIP3    H255904   2.431   6.024   6.120  0.7356 -1.1565  0.9321
11497TIP3   OH255905   2.838   0.219  16.304  0.0500 -0.1342  0.0888
11497TIP3    H155906   2.771   0.158  16.275  0.6203 -1.0198  0.5780
11497TIP3    H255907   2.803   0.258  16.384  0.6476 -1.6235  1.1297
11498TIP3   OH255908   1.982   3.241  17.111  0.0402  0.6933  0.4562
11498TIP3    H155909   1.968   3.175  17.180 -1.9959  0.3670 -0.1795
11498TIP3    H255910   1.977   3.191  17.029  1.6225  1.1971  0.0277
11499TIP3   OH255911   2.993   5.819   1.924 -0.3087 -0.1674  0.1172
11499TIP3    H155912   3.013   5.766   2.002  0.4847  0.3992  0.3059
11499TIP3    H255913   2.907   5.857   1.943  0.4132  0.9727  1.2899
11500TIP3   OH255914   2.389   4.264  16.183 -0.0959 -0.2690  0.1691
11500TIP3    H155915   2.427   4.305  16.261  0.8008 -0.5394 -0.1047
11500TIP3    H255916   2.405   4.327  16.113  0.0509 -0.4774  0.0108
11501TIP3   OH255917   5.542   2.967  11.050 -0.8212  0.4977  0.0437
11501TIP3    H155918   5.473   2.958  10.984 -0.8949 -1.7011  0.3338
11501TIP3    H255919   5.517   2.904  11.118  1.5482 -0.4922  0.0717
11502TIP3   OH255920   5.153   1.564   3.055  0.7791 -0.4756  0.2599
11502TIP3    H155921   5.077   1.605   3.098  1.5671  0.6792  0.6023
11502TIP3    H255922   5.124   1.475   3.037 -0.4514 -0.2501  0.9408
11503TIP3   OH255923   6.464   0.037   4.966 -1.2253 -0.1160  0.0936
11503TIP3    H155924   6.490  -0.053   4.985 -0.4117  0.6721  3.1284
11503TIP3    H255925   6.388   0.053   5.021 -0.9049  1.2873  0.1664
11504TIP3   OH255926   1.643   3.354  15.031 -0.3715 -0.5629 -0.3315
11504TIP3    H155927   1.722   3.404  15.009 -1.8609  2.1906  0.0731
11504TIP3    H255928   1.642   3.353  15.127  0.3107 -2.6643 -0.2981
11505TIP3   OH255929   5.390   3.627   2.878  0.3546 -0.5690  0.2363
11505TIP3    H155930   5.319   3.641   2.815  0.5623  0.9413  0.2837
11505TIP3    H255931   5.461   3.684   2.847  1.5174 -1.9191  0.2808
11506TIP3   OH255932   4.993   0.246  12.567 -0.1241 -0.2223 -0.2867
11506TIP3    H155933   4.972   0.206  12.483 -0.5593  0.2655 -0.4170
11506TIP3    H255934   5.089   0.255  12.566  0.0691 -1.9153  0.0617
11507TIP3   OH255935   3.845   2.068  12.923 -0.0245 -0.0663  0.7031
11507TIP3    H155936   3.916   2.033  12.975 -2.2493 -3.2146  1.8991
11507TIP3    H255937   3.831   2.156  12.958  2.7399  0.3925  0.8644
11508TIP3   OH255938   5.669   0.298  14.974 -0.1931  0.4068 -0.2640
11508TIP3    H155939   5.699   0.263  14.890 -0.2548  0.3427 -0.2591
11508TIP3    H255940   5.696   0.233  15.039 -2.0626 -0.6217 -0.4628
11509TIP3   OH255941   2.120   0.141   0.844 -0.4988 -0.1569 -0.2582
11509TIP3    H155942   2.207   0.123   0.807 -0.8678 -0.3055 -1.0653
11509TIP3    H255943   2.085   0.213   0.791 -0.8665 -0.0787  0.0802
11510TIP3   OH255944   5.577   5.546   2.347  0.4578  0.1001  0.2479
11510TIP3    H155945   5.653   5.489   2.347  0.0408 -0.4760  1.0692
11510TIP3    H255946   5.609   5.628   2.385  0.7787  0.0162  0.1628
11511TIP3   OH255947   4.307   4.187  14.324  0.1146  0.3068 -0.0219
11511TIP3    H155948   4.356   4.146  14.396 -0.7114  0.3240  0.5655
11511TIP3    H255949   4.360   4.263  14.299 -0.0229  0.8048  1.1619
11512TIP3   OH255950   1.056   1.133   5.633 -0.2180  0.2179 -0.4381
11512TIP3    H155951   1.099   1.090   5.707 -1.0345 -0.7758 -0.5139
11512TIP3    H255952   0.969   1.156   5.666 -0.6779 -0.4548 -1.1435
11513TIP3   OH255953   0.673   6.581  10.617  0.0390 -0.6007  0.1422
11513TIP3    H155954   0.734   6.559  10.547 -0.6989 -2.1382 -0.0499
11513TIP3    H255955   0.653   6.674  10.602  2.4137  0.0158  0.3268
11514TIP3   OH255956   2.303   4.474   3.461  0.2992  0.2349  0.0902
11514TIP3    H155957   2.244   4.443   3.530  0.2252  1.7209  0.7421
11514TIP3    H255958   2.360   4.537   3.505  1.6706 -0.3496 -0.7735
11515TIP3   OH255959   1.802   2.536   4.624 -0.3849  0.0161  0.3599
11515TIP3    H155960   1.762   2.621   4.639 -0.4761 -0.0543  0.5158
11515TIP3    H255961   1.896   2.553   4.628 -0.3839  0.2888 -0.5996
11516TIP3   OH255962   5.371   5.042   5.582  0.8764 -0.0283  0.6789
11516TIP3    H155963   5.325   5.073   5.504  0.2212 -0.9482  0.6853
11516TIP3    H255964   5.453   5.007   5.548 -0.1181 -2.0144  0.1271
11517TIP3   OH255965   5.671   3.107  14.200 -0.2312  0.8697 -0.3810
11517TIP3    H155966   5.586   3.063  14.198  0.0293  0.3583 -1.9328
11517TIP3    H255967   5.731   3.043  14.239 -0.4753  1.0933  0.3724
11518TIP3   OH255968   6.392   2.728  14.973 -0.1948 -0.0195  0.0737
11518TIP3    H155969   6.470   2.687  15.012 -0.6846  0.0310  1.1346
11518TIP3    H255970   6.427   2.786  14.906  0.5867 -1.2335 -0.6155
11519TIP3   OH255971   3.061   1.461   1.968  0.2565 -0.0703 -0.0696
11519TIP3    H155972   3.088   1.496   1.883  2.2048 -0.0903  0.4863
11519TIP3    H255973   2.966   1.450   1.961 -0.0702  2.7570 -1.1880
11520TIP3   OH255974   4.143   1.506   3.021  0.4121 -0.1218  0.0567
11520TIP3    H155975   4.054   1.471   3.014  0.7516 -1.0984  0.4032
11520TIP3    H255976   4.159   1.512   3.115  0.5008  0.6074 -0.0057
11521TIP3   OH255977   6.423   6.515   3.119  0.2680 -0.6068 -0.0115
11521TIP3    H155978   6.374   6.472   3.189 -1.0427 -1.6058 -1.4650
11521TIP3    H255979   6.496   6.454   3.100  1.9928  0.7210  1.9234
11522TIP3   OH255980   5.948   5.098   5.250 -0.5531  0.1940  0.0308
11522TIP3    H155981   5.865   5.109   5.297  0.6061  1.0817  2.0469
11522TIP3    H255982   5.957   5.178   5.199 -1.6256 -0.5851 -1.4366
11523TIP3   OH255983   4.124   5.488   4.083  0.3870  0.2082 -0.5668
11523TIP3    H155984   4.070   5.564   4.102  1.0394  1.0131 -1.7747
11523TIP3    H255985   4.213   5.515   4.107  0.1985 -1.5799  2.7699
11524TIP3   OH255986   4.571   0.907   4.439  0.5004 -0.6785  1.0670
11524TIP3    H155987   4.505   0.854   4.395 -1.0661  0.7185  1.5932
11524TIP3    H255988   4.561   0.884   4.532  0.6049 -0.3144  1.1701
11525TIP3   OH255989   0.013   1.197   2.815 -0.0000  0.2763  0.2201
11525TIP3    H155990   0.090   1.194   2.759 -1.4650  2.5779 -2.1389
11525TIP3    H255991   0.032   1.267   2.878  1.0323 -1.3244  1.8180
11526TIP3   OH255992   5.038   0.194  12.912 -0.0591 -0.4879  0.0276
11526TIP3    H155993   4.973   0.127  12.889  0.4617 -0.6348 -1.0948
11526TIP3    H255994   5.068   0.228  12.828 -1.9261  2.8281  0.5317
11527TIP3   OH255995   4.155   3.235  17.276 -0.2657  0.1878 -0.4978
11527TIP3    H155996   4.182   3.322  17.304  0.2348 -0.0346 -0.2650
11527TIP3    H255997   4.235   3.195  17.242 -0.4499 -0.2450 -0.4291
11528TIP3   OH255998   3.541   3.441  12.533 -0.0379  0.4319 -0.4268
11528TIP3    H155999   3.447   3.458  12.540 -0.0811 -0.1619  0.6449
11528TIP3    H256000   3.550   3.346  12.536  0.5938  0.4771 -0.6076
11529TIP3   OH256001   6.686   4.858   1.860 -0.1842  0.4587  0.4551
11529TIP3    H156002   6.678   4.946   1.894 -1.6200  0.6715 -0.3299
11529TIP3    H256003   6.663   4.801   1.934  0.3995  0.7492  0.8631
11530TIP3   OH256004   1.551   1.052   2.209  0.2300 -0.1173  0.1628
11530TIP3    H156005   1.634   1.043   2.161  0.8362 -0.2517  1.2030
11530TIP3    H256006   1.522   1.141   2.189  0.1996 -0.3430 -0.8592
11531TIP3   OH256007   4.169   0.524   3.716  0.4466  0.0291  0.4241
11531TIP3    H156008   4.256   0.531   3.755  1.0263 -1.9197 -0.3713
11531TIP3    H256009   4.118   0.476   3.781  0.5297 -0.4997  0.1058
11532TIP3   OH256010   1.745   5.069   4.578  0.2430 -0.2360  0.1285
11532TIP3    H156011   1.823   5.086   4.525  0.6573  0.1359  0.8475
11532TIP3    H256012   1.723   5.154   4.616 -2.0064  0.2370 -2.0268
11533TIP3   OH256013   1.365   5.367   1.703 -0.3010  0.0605  0.1046
11533TIP3    H156014   1.284   5.366   1.650 -0.1676 -1.9718 -0.1506
11533TIP3    H256015   1.334   5.372   1.793 -0.6382  0.9128 -0.0484
11534TIP3   OH256016   5.490   5.181   0.553  0.7495 -0.2931  0.2212
11534TIP3    H156017   5.511   5.272   0.536 -0.9312  0.1094  0.1118
11534TIP3    H256018   5.543   5.131   0.491  0.8775  0.6760 -0.4652
11535TIP3   OH256019   3.613   3.721   4.261 -0.0921  0.0626  0.1752
11535TIP3    H156020   3.665   3.792   4.223  1.7464 -1.8775 -1.1699
11535TIP3    H256021   3.628   3.728   4.355 -0.3125  1.6780  0.1255
11536TIP3   OH256022   0.294   3.487  14.790 -0.4829  0.2500 -0.4781
11536TIP3    H156023   0.211   3.470  14.836 -0.7284  2.3893 -0.0510
11536TIP3    H256024   0.336   3.556  14.841  1.2421 -0.2879 -1.1158
11537TIP3   OH256025   3.621   5.457  13.770 -0.4253 -0.5972 -0.5045
11537TIP3    H156026   3.581   5.527  13.719  0.7967 -1.1425 -2.3183
11537TIP3    H256027   3.582   5.377  13.736  0.3570 -0.9708 -0.5545
11538TIP3   OH256028   3.511   1.922  13.994 -0.0849  0.0925  0.0493
11538TIP3    H156029   3.561   1.878  13.925  0.1767 -0.5678  0.6481
11538TIP3    H256030   3.534   1.874  14.074  0.7214  1.7358  0.8422
11539TIP3   OH256031   2.721   2.422   4.625  0.1245  0.3799  0.3269
11539TIP3    H156032   2.725   2.344   4.681 -0.4917  2.0186  2.7919
11539TIP3    H256033   2.775   2.400   4.550  1.9139 -1.5711  2.0619
11540TIP3   OH256034   2.168   2.343  15.124  0.5193  0.2081 -0.0351
11540TIP3    H156035   2.232   2.335  15.195  1.8323  2.5596 -0.8309
11540TIP3    H256036   2.113   2.417  15.149 -0.6824 -0.5751 -0.2864
11541TIP3   OH256037   1.159   3.101   5.136 -0.0341 -0.3123 -0.1704
11541TIP3    H156038   1.195   3.065   5.055  1.2593  3.0824 -1.2790
11541TIP3    H256039   1.090   3.161   5.108 -0.6241 -0.2246  1.3662
11542TIP3   OH256040   0.061   0.054  12.889  0.4220  0.1205  0.1151
11542TIP3    H156041   0.077  -0.025  12.941 -0.2450 -0.8882 -1.1391
11542TIP3    H256042   0.031   0.020  12.804 -0.6369  1.7488 -0.1900
11543TIP3   OH256043   2.727   1.333   4.947  0.5465  0.0639  0.1466
11543TIP3    H156044   2.711   1.373   5.032 -2.4722 -1.1269  0.2483
11543TIP3    H256045   2.657   1.365   4.891  0.4566 -1.8075 -0.9053
11544TIP3   OH256046   1.479   3.618  13.513 -0.2339 -0.4241  0.0801
11544TIP3    H156047   1.572   3.627  13.494  0.3055 -0.7451  2.2850
11544TIP3    H256048   1.436   3.680  13.455  1.4766  0.7016 -0.0470
11545TIP3   OH256049   3.061   1.166   1.355  0.1182  0.5503  0.2670
11545TIP3    H156050   3.084   1.186   1.446  0.2079 -0.1172  0.3950
11545TIP3    H256051   2.972   1.199   1.346  0.3803  1.3096  0.3691
11546TIP3   OH256052   0.011   5.446   1.606 -0.2069  0.2044  0.4924
11546TIP3    H156053  -0.005   5.459   1.513 -1.5416 -0.8066  0.5643
11546TIP3    H256054   0.104   5.425   1.611 -0.0631  0.5222 -0.5756
11547TIP3   OH256055   3.619   6.587   3.214 -0.5547 -0.0761 -0.2083
11547TIP3    H156056   3.636   6.628   3.129  1.0422  3.3791  1.6190
11547TIP3    H256057   3.524   6.593   3.225 -0.7276 -0.1420 -1.5054
11548TIP3   OH256058   1.312   5.091   1.905  0.5037  0.5471  0.3430
11548TIP3    H156059   1.395   5.135   1.886  0.4424  0.6121  0.2247
11548TIP3    H256060   1.303   5.096   2.000  0.6854  0.4508  0.3659
11549TIP3   OH256061   0.798   2.636   5.109 -0.5408 -0.2239  0.1181
11549TIP3    H156062   0.863   2.703   5.130 -0.9294 -0.0904  0.9648
11549TIP3    H256063   0.714   2.674   5.137 -0.8902 -0.6627 -0.3190
11550TIP3   OH256064   6.123   0.500   1.383  0.8591 -0.1924 -0.5401
11550TIP3    H156065   6.218   0.501   1.392  0.9956  1.1734 -1.7711
11550TIP3    H256066   6.106   0.548   1.302 -0.9055  0.0102 -0.0907
11551TIP3   OH256067   1.609   2.154  12.799  0.3314  0.1186 -0.3261
11551TIP3    H156068   1.537   2.164  12.737 -0.5476  0.1749  0.6831
11551TIP3    H256069   1.586   2.078  12.851  0.4791  0.7497  0.6908
11552TIP3   OH256070   0.172   4.923   0.860 -0.4178 -0.0318 -0.3272
11552TIP3    H156071   0.256   4.918   0.814 -1.2365  0.7449 -1.9921
11552TIP3    H256072   0.132   4.837   0.846 -0.5520  0.1149 -0.8908
11553TIP3   OH256073   3.117   5.271  15.268 -0.7185  0.0877  0.2227
11553TIP3    H156074   3.055   5.213  15.312  1.3658 -1.7629  0.9244
11553TIP3    H256075   3.194   5.272  15.325  0.6383  0.6962 -1.5263
11554TIP3   OH256076   6.718   3.934  11.516  0.0852  0.0034  0.1026
11554TIP3    H156077   6.660   3.874  11.468 -0.7235 -0.5366  1.6909
11554TIP3    H256078   6.673   4.018  11.513 -0.1973 -0.1390  0.3076
11555TIP3   OH256079   4.840   4.271   4.654 -0.2060  0.0872 -0.1679
11555TIP3    H156080   4.887   4.340   4.702 -0.4728  0.0494  0.1531
11555TIP3    H256081   4.896   4.252   4.579  1.0524 -0.9857  0.9693
11556TIP3   OH256082   3.618   4.301  12.603 -0.7852 -0.0310 -0.0972
11556TIP3    H156083   3.555   4.300  12.675 -1.7838  1.0725 -0.8994
11556TIP3    H256084   3.702   4.320  12.644 -1.2707  0.1913  0.8172
11557TIP3   OH256085   4.907   5.942   0.083  0.1081 -0.3460  0.5382
11557TIP3    H156086   4.846   6.008   0.050  0.5366 -0.4067 -0.3931
11557TIP3    H256087   4.857   5.895   0.150 -0.9325 -0.5257 -0.3333
11558TIP3   OH256088   1.109   0.232   5.403  0.1000 -0.2556 -0.5075
11558TIP3    H156089   1.113   0.153   5.457  0.2957 -0.0936 -0.2828
11558TIP3    H256090   1.170   0.215   5.331  2.2978  0.7888  1.0128
11559TIP3   OH256091   4.184   3.747   6.273  0.0839  0.4263 -1.2003
11559TIP3    H156092   4.277   3.729   6.257  0.5897  3.0545 -1.5970
11559TIP3    H256093   4.141   3.728   6.189  0.1648 -1.0337 -0.9482
11560TIP3   OH256094   4.455   1.341   2.388  0.4441 -0.2372  0.0055
11560TIP3    H156095   4.511   1.284   2.335  0.0504 -0.8950  0.2848
11560TIP3    H256096   4.371   1.296   2.391  0.2470  0.1535  0.5818
11561TIP3   OH256097   0.197   2.557   4.896  0.2795 -0.0972  0.1926
11561TIP3    H156098   0.178   2.634   4.949  0.5169 -0.0924  0.2696
11561TIP3    H256099   0.173   2.583   4.807 -0.7975 -0.3419  0.3935
11562TIP3   OH256100   2.624   2.802   5.469 -0.1164  0.0217 -0.1638
11562TIP3    H156101   2.585   2.740   5.531  0.3867 -1.6896 -1.4605
11562TIP3    H256102   2.663   2.870   5.523 -2.1160  0.1141  1.2775
11563TIP3   OH256103   4.440   2.996  12.213  0.0220  0.4881  0.3881
11563TIP3    H156104   4.438   3.087  12.241 -0.8794  0.2223  1.2297
11563TIP3    H256105   4.428   2.999  12.118  1.0332  1.2877  0.2731
11564TIP3   OH256106   2.078   5.043   3.460 -0.4388  0.1904 -0.0766
11564TIP3    H156107   2.100   4.969   3.517 -0.3297  0.3478  0.0864
11564TIP3    H256108   2.157   5.097   3.458 -1.1689  1.4189  1.5235
11565TIP3   OH256109   5.422   2.856  11.722 -0.6298  0.0127 -0.4130
11565TIP3    H156110   5.334   2.880  11.748  0.1227  1.1110  1.2359
11565TIP3    H256111   5.419   2.760  11.711 -1.7431 -0.0906  0.6803
11566TIP3   OH256112   2.730   1.400  17.076  0.2044 -0.2695  0.4678
11566TIP3    H156113   2.698   1.484  17.109  0.9229  0.4381 -0.5959
11566TIP3    H256114   2.745   1.348  17.155  0.0851  0.7220  1.1622
11567TIP3   OH256115   1.212   2.104   4.986  0.7832 -0.3599 -0.3122
11567TIP3    H156116   1.290   2.143   5.024  0.1367  0.8363 -0.1683
11567TIP3    H256117   1.238   2.076   4.898  1.8319 -1.6026  0.3581
11568TIP3   OH256118   1.462   0.221   4.656 -0.2794 -0.5255  0.4515
11568TIP3    H156119   1.435   0.207   4.565 -1.4058 -1.7050  0.9400
11568TIP3    H256120   1.398   0.283   4.691 -0.5398 -0.9538  0.7478
11569TIP3   OH256121   5.524   4.365  12.760  0.5680 -0.2108  0.2318
11569TIP3    H156122   5.555   4.426  12.826 -0.0890  1.4206 -0.8915
11569TIP3    H256123   5.431   4.356  12.778  0.3164  0.5089 -0.6316
11570TIP3   OH256124   4.672   3.899   3.227  0.3387  0.6054 -0.1868
11570TIP3    H156125   4.663   3.806   3.247  0.3036  0.7574  0.5079
11570TIP3    H256126   4.599   3.917   3.167  0.2110  0.2395 -0.1443
11571TIP3   OH256127   5.051   6.607   6.132  0.2267  0.6630  0.0558
11571TIP3    H156128   4.971   6.574   6.092 -0.4021  1.3557  0.6953
11571TIP3    H256129   5.053   6.566   6.219  1.7726 -1.1258 -0.7555
11572TIP3   OH256130   3.663   3.575   1.969  0.2228  0.1520 -0.0124
11572TIP3    H156131   3.733   3.639   1.984  0.1729  0.1256  0.3419
11572TIP3    H256132   3.602   3.590   2.040  0.2149 -0.3006  0.0780
11573TIP3   OH256133   0.830   5.037   2.552 -0.2807  0.4464  0.0455
11573TIP3    H156134   0.797   5.127   2.559 -0.0531  0.4792  0.7141
11573TIP3    H256135   0.924   5.044   2.569 -0.2380  0.1008 -0.0423
11574TIP3   OH256136   4.619   3.927  12.569 -0.1825 -0.2800 -0.8146
11574TIP3    H156137   4.533   3.966  12.556 -0.4548 -0.0703  1.2472
11574TIP3    H256138   4.680   4.001  12.560 -0.2783 -0.2996 -1.6155
11575TIP3   OH256139   5.865   5.150   3.740  0.0183  0.1419 -0.2619
11575TIP3    H156140   5.849   5.183   3.652  0.7950  1.1684 -0.0362
11575TIP3    H256141   5.926   5.077   3.727  2.5038  2.1058 -0.4106
11576TIP3   OH256142   0.601   0.631   2.925  0.1028 -0.1844  0.3736
11576TIP3    H156143   0.689   0.606   2.897  0.7875 -0.6854  2.7186
11576TIP3    H256144   0.545   0.561   2.892  0.3949  0.5263 -1.8087
11577TIP3   OH256145   2.005   6.558  13.537 -0.2705 -0.4047  0.0189
11577TIP3    H156146   2.084   6.508  13.558  0.6411  0.8642 -0.2592
11577TIP3    H256147   1.933   6.497  13.554  0.6155 -0.8981  2.4339
11578TIP3   OH256148   5.881   1.755   1.832  0.1835 -0.3962 -0.1818
11578TIP3    H156149   5.789   1.756   1.808 -0.1356 -1.9541  0.8857
11578TIP3    H256150   5.902   1.663   1.849  1.6227  0.0539  0.7232
11579TIP3   OH256151   0.056   6.677   3.206 -0.3946 -0.7000  0.2893
11579TIP3    H156152   0.069   6.690   3.112  1.3928 -0.6699  0.5047
11579TIP3    H256153  -0.016   6.614   3.212 -0.9449 -0.2285 -1.0670
11580TIP3   OH256154   2.421   0.454   4.004  0.3587  0.5540 -0.0584
11580TIP3    H156155   2.414   0.475   4.097  0.8144  3.5209 -0.6135
11580TIP3    H256156   2.331   0.439   3.977  0.2340 -0.5433  0.8469
11581TIP3   OH256157   2.962   5.804  12.255 -0.1805 -0.5178  0.1787
11581TIP3    H156158   2.869   5.824  12.265 -0.2944 -0.2978 -1.2033
11581TIP3    H256159   2.965   5.728  12.198  0.5089  0.5565 -1.3109
11582TIP3   OH256160   3.429   0.295   5.277 -1.1133  0.2385  0.0026
11582TIP3    H156161   3.515   0.268   5.309 -1.0081  0.6555  0.0775
11582TIP3    H256162   3.437   0.291   5.181 -1.0129  0.2725  0.0095
11583TIP3   OH256163   4.511   2.255   2.595 -0.2746  0.5223 -0.8506
11583TIP3    H156164   4.528   2.229   2.504 -2.1920  0.3781 -1.2039
11583TIP3    H256165   4.457   2.184   2.631 -0.7773  1.2881 -0.0579
11584TIP3   OH256166   4.816   5.847  17.163 -0.2851  0.6294  0.1628
11584TIP3    H156167   4.828   5.772  17.105 -0.2449 -0.4784  1.5431
11584TIP3    H256168   4.785   5.918  17.106  0.0978 -0.3049 -1.2392
11585TIP3   OH256169   5.406   5.946   4.978  0.4437  0.6916  0.3070
11585TIP3    H156170   5.502   5.939   4.976  0.4917  1.3283 -1.7075
11585TIP3    H256171   5.377   5.903   4.898 -0.9790  0.6019  0.8368
11586TIP3   OH256172   2.651   4.277   3.492  0.1867  0.3015  0.0868
11586TIP3    H156173   2.744   4.267   3.515  0.0541  0.0983  0.5475
11586TIP3    H256174   2.633   4.202   3.434  0.4282  0.6079 -0.3887
11587TIP3   OH256175   4.855   1.690  15.718 -0.1525 -0.4027  0.0688
11587TIP3    H156176   4.822   1.780  15.706  1.1292  0.1545  0.5446
11587TIP3    H256177   4.866   1.657  15.629 -2.7007 -0.9071 -0.1127
11588TIP3   OH256178   6.263   0.313  15.782 -0.4341 -0.0094 -0.6764
11588TIP3    H156179   6.248   0.259  15.860 -0.6576 -1.3956 -1.6409
11588TIP3    H256180   6.350   0.286  15.751 -0.4561  0.3450 -1.0460
11589TIP3   OH256181   5.235   5.353  15.381  0.1154  0.1188  0.2194
11589TIP3    H156182   5.315   5.370  15.430  1.2051  0.0130 -1.4363
11589TIP3    H256183   5.165   5.379  15.440  1.3114 -0.5217  2.0211
11590TIP3   OH256184   6.176   3.721   2.400 -0.3833 -0.0596 -0.4718
11590TIP3    H156185   6.095   3.759   2.434  0.1639  0.5819  0.1555
11590TIP3    H256186   6.204   3.780   2.330  0.5939  0.8792  0.6621
11591TIP3   OH256187   1.252   2.664   5.671  0.3276  0.2301 -0.5428
11591TIP3    H156188   1.187   2.706   5.615  1.0986  0.2607 -1.4429
11591TIP3    H256189   1.293   2.736   5.719 -0.2083  0.2230 -0.0705
11592TIP3   OH256190   4.203   1.577  10.860  0.0116 -0.0561 -0.0067
11592TIP3    H156191   4.166   1.612  10.941 -0.7229  0.1452 -0.4251
11592TIP3    H256192   4.185   1.483  10.864  0.6847 -0.1796  0.4242
11593TIP3   OH256193   1.129   5.048   2.619  0.4560 -0.3434  0.0686
11593TIP3    H156194   1.146   4.960   2.653  1.0347 -0.5154 -0.6477
11593TIP3    H256195   1.171   5.107   2.682  0.3301 -0.5872  0.3868
11594TIP3   OH256196   3.414   4.463   0.995 -0.0858  0.3866  0.2246
11594TIP3    H156197   3.387   4.514   1.072  0.8659  1.1158  0.0994
11594TIP3    H256198   3.393   4.519   0.921 -0.4944 -0.0875 -0.0222
11595TIP3   OH256199   2.709   1.353  13.518  0.2370  0.7296  0.2620
11595TIP3    H156200   2.656   1.405  13.579 -0.1169  1.4408 -0.6214
11595TIP3    H256201   2.768   1.417  13.477 -0.2892  0.4746 -0.9324
11596TIP3   OH256202   3.786   4.959   4.490  0.3011  0.3879 -0.0191
11596TIP3    H156203   3.696   4.933   4.506  0.2587  1.2070  1.1850
11596TIP3    H256204   3.796   4.957   4.394 -1.5200  1.9611 -0.3021
11597TIP3   OH256205   0.838   3.379  13.100 -0.0188  0.0931 -0.4016
11597TIP3    H156206   0.902   3.327  13.149 -1.3148 -0.3831  0.8510
11597TIP3    H256207   0.883   3.400  13.018  2.7116  1.9391  1.3983
11598TIP3   OH256208   4.534   1.036  16.573 -0.2049  0.3433 -0.5265
11598TIP3    H156209   4.471   0.975  16.611  1.3904 -1.5192 -0.6990
11598TIP3    H256210   4.483   1.090  16.512 -1.7684 -0.4202  0.0652
11599TIP3   OH256211   1.649   4.706   4.250  0.2045  0.2139 -0.4685
11599TIP3    H156212   1.738   4.673   4.255  0.2773  0.5563  1.5545
11599TIP3    H256213   1.653   4.791   4.295 -0.9618  0.6762 -1.1833
11600TIP3   OH256214   1.587   1.958   1.708  0.4367 -0.4921 -0.0971
11600TIP3    H156215   1.582   2.053   1.714 -1.7022 -0.6095  0.6936
11600TIP3    H256216   1.582   1.939   1.615 -2.2844  0.1149 -0.1510
11601TIP3   OH256217   4.903   5.399  13.781 -0.4667 -0.4938  0.4639
11601TIP3    H156218   4.824   5.440  13.818  0.1466  0.7112  0.5122
11601TIP3    H256219   4.957   5.377  13.856 -0.9715 -1.8238  0.4596
11602TIP3   OH256220   1.374   1.214   5.285 -0.3084 -0.5563 -0.1614
11602TIP3    H156221   1.341   1.141   5.233 -1.5297 -0.3523  0.2794
11602TIP3    H256222   1.412   1.173   5.363  0.0689 -0.7765 -0.4609
11603TIP3   OH256223   6.472   0.242   2.984 -0.3274 -0.1644  0.1032
11603TIP3    H156224   6.513   0.221   2.900 -1.4769  2.4357 -1.2448
11603TIP3    H256225   6.379   0.220   2.971 -1.0090  2.5818 -0.3477
11604TIP3   OH256226   0.404   2.465   5.866  0.2439  0.2301  0.3525
11604TIP3    H156227   0.372   2.425   5.785  0.5701 -0.3016  0.4851
11604TIP3    H256228   0.488   2.504   5.842  0.2740  0.1952  0.4005
11605TIP3   OH256229   5.841   2.092  16.953 -0.1756 -0.0345  1.0286
11605TIP3    H156230   5.843   2.048  16.868  1.4340  0.9750  0.5027
11605TIP3    H256231   5.923   2.067  16.995  0.0166  1.1580  1.3982
11606TIP3   OH256232   5.033   0.928  17.076 -0.2302  0.1375 -0.0460
11606TIP3    H156233   5.046   0.969  17.161  0.0896  1.5338 -0.7348
11606TIP3    H256234   5.110   0.872  17.064  0.3232  0.8724  0.0572
11607TIP3   OH256235   1.818   5.665  13.141 -0.2980  0.3145 -0.0338
11607TIP3    H156236   1.736   5.645  13.095 -0.3427 -0.9383  0.5687
11607TIP3    H256237   1.801   5.749  13.185 -1.6567 -0.4697  0.9987
11608TIP3   OH256238   0.004   3.516   4.282 -0.3846 -0.1916  0.0306
11608TIP3    H156239  -0.028   3.606   4.270 -1.9133 -0.7949 -0.7232
11608TIP3    H256240  -0.060   3.476   4.341  0.4352 -0.7261  0.5795
11609TIP3   OH256241   5.535   6.410  11.394  0.1693  0.0353  0.4608
11609TIP3    H156242   5.590   6.445  11.323  2.5042 -0.1140  2.0870
11609TIP3    H256243   5.521   6.318  11.369 -1.2283  0.5958 -1.0201
11610TIP3   OH256244   0.202   0.539   1.492  0.4860 -0.2862 -0.2549
11610TIP3    H156245   0.260   0.468   1.521 -0.1546 -0.4570  0.6503
11610TIP3    H256246   0.261   0.607   1.461  1.1559 -0.6779  0.1341
11611TIP3   OH256247   3.113   5.602   5.245  0.2765  0.2938 -0.3005
11611TIP3    H156248   3.053   5.553   5.302 -0.9821 -2.0669 -3.3860
11611TIP3    H256249   3.055   5.659   5.194  1.0657  0.4580 -1.0136
11612TIP3   OH256250   5.731   6.234  12.047  0.0197 -0.2272  0.5199
11612TIP3    H156251   5.814   6.268  12.014  0.4475  1.3771  3.0107
11612TIP3    H256252   5.670   6.307  12.038 -0.2627 -0.3061  1.6420
11613TIP3   OH256253   4.054   0.564  17.117 -0.1052 -0.0277  0.2378
11613TIP3    H156254   3.983   0.566  17.053  0.2755 -1.8422 -0.3201
11613TIP3    H256255   4.134   0.572  17.065  0.1856 -1.0068  0.4997
11614TIP3   OH256256   0.866   3.810  14.313 -0.1733  0.3507 -0.2050
11614TIP3    H156257   0.850   3.754  14.389 -0.9915  1.0485  0.1588
11614TIP3    H256258   0.960   3.828  14.315 -0.2380  0.6334  0.8450
11615TIP3   OH256259   3.581   6.339  16.827 -0.5542  0.3979  0.5899
11615TIP3    H156260   3.557   6.423  16.788  1.2630  0.9262  0.5178
11615TIP3    H256261   3.671   6.324  16.798 -0.8199 -1.5457  0.6756
11616TIP3   OH256262   6.609   0.621  15.801  0.2585 -0.3969  0.3166
11616TIP3    H156263   6.634   0.597  15.712  1.9401  0.3188  0.5587
11616TIP3    H256264   6.655   0.557  15.857  0.5871  0.1953  0.7312
11617TIP3   OH256265   5.930   4.356  15.644 -0.1072 -0.0649  0.1853
11617TIP3    H156266   5.886   4.280  15.682  0.5133  0.0236  1.1282
11617TIP3    H256267   6.023   4.333  15.643 -0.1285 -0.2170 -1.7000
11618TIP3   OH256268   1.907   3.435  15.090 -0.2829 -0.0254 -0.3992
11618TIP3    H156269   1.990   3.393  15.066 -0.1966 -1.2421  1.6979
11618TIP3    H256270   1.929   3.484  15.170 -1.3584  0.5440 -0.4441
11619TIP3   OH256271   2.189   5.241  13.558 -0.0830 -0.5755  0.2551
11619TIP3    H156272   2.147   5.211  13.639  0.7964 -0.5171  0.7358
11619TIP3    H256273   2.118   5.239  13.493 -0.9981  0.1190  1.1868
11620TIP3   OH256274   4.616   3.498  12.743  0.4519  0.0378  0.0513
11620TIP3    H156275   4.525   3.473  12.760  0.4546  0.1628  0.2458
11620TIP3    H256276   4.656   3.419  12.707  0.0270  0.2450 -0.9168
11621TIP3   OH256277   3.190   0.311   0.766 -0.4213 -0.4570 -0.2741
11621TIP3    H156278   3.270   0.285   0.810 -0.3676 -0.0449 -0.1167
11621TIP3    H256279   3.121   0.297   0.831 -0.3612  0.0120 -0.1068
11622TIP3   OH256280   5.127   6.441  11.879  0.7063  0.0796 -0.1143
11622TIP3    H156281   5.126   6.495  11.800 -0.1063  1.0862  0.5515
11622TIP3    H256282   5.160   6.356  11.850  2.5594  1.0770 -1.1016
11623TIP3   OH256283   4.133   3.051   3.337 -0.3992  0.3649 -0.7567
11623TIP3    H156284   4.095   3.127   3.380 -0.3256  1.3009 -2.2839
11623TIP3    H256285   4.218   3.081   3.305  0.2567 -0.7757 -0.1608
11624TIP3   OH256286   4.772   0.159  16.059  0.0288 -0.1561  0.0365
11624TIP3    H156287   4.812   0.231  16.009  0.3127 -2.8755 -4.2354
11624TIP3    H256288   4.679   0.178  16.058 -0.0769 -0.4385 -2.4526
11625TIP3   OH256289   1.941   0.715  13.897  0.2159  0.2028 -0.2832
11625TIP3    H156290   1.879   0.787  13.911  0.1136  0.0752 -0.0677
11625TIP3    H256291   2.000   0.720  13.972  0.5127  0.3688 -0.5283
11626TIP3   OH256292   2.777   1.960   6.111 -0.5329 -0.1934  0.5917
11626TIP3    H156293   2.864   1.955   6.150 -0.7905 -0.5220  1.1331
11626TIP3    H256294   2.786   2.024   6.040  0.2962 -0.6559  0.2622
11627TIP3   OH256295   5.994   4.123   4.606  0.2185 -0.1048  0.1067
11627TIP3    H156296   5.969   4.042   4.650 -0.2674  0.0478  0.1147
11627TIP3    H256297   6.012   4.185   4.677  0.9487 -0.3053  0.1076
11628TIP3   OH256298   2.913   6.382  15.335  0.3372  0.8216 -0.0393
11628TIP3    H156299   2.901   6.381  15.430  0.5148  1.3585 -0.0052
11628TIP3    H256300   2.837   6.429  15.302 -0.9707 -1.3913 -0.3751
11629TIP3   OH256301   4.343   4.932   5.471 -0.0427  0.1751 -0.3027
11629TIP3    H156302   4.405   4.980   5.525 -0.3373 -0.6591  0.8347
11629TIP3    H256303   4.275   4.996   5.449 -0.0545  0.4754  0.5645
11630TIP3   OH256304   5.280   4.049   6.680  0.2145 -0.0523 -0.1375
11630TIP3    H156305   5.291   4.006   6.595  1.4799 -0.6969  0.3351
11630TIP3    H256306   5.369   4.062   6.712 -0.2436  0.4363  0.9771
11631TIP3   OH256307   3.381   5.064   3.730  0.1419 -0.4946 -0.2477
11631TIP3    H156308   3.331   5.063   3.812  0.7129 -0.2370  0.1073
11631TIP3    H256309   3.325   5.016   3.668  1.2659 -4.0402  1.1970
11632TIP3   OH256310   5.695   1.631   3.938 -0.2426  0.8040 -0.0191
11632TIP3    H156311   5.603   1.620   3.911 -0.4450 -1.9908  1.3724
11632TIP3    H256312   5.744   1.580   3.874  0.2796  1.6626 -0.3105
11633TIP3   OH256313   0.483   4.671  11.547  0.1601 -0.1784 -0.0709
11633TIP3    H156314   0.446   4.602  11.602 -0.5461  0.5878  0.4409
11633TIP3    H256315   0.457   4.753  11.591  1.4470  0.4075 -0.3464
11634TIP3   OH256316   1.864   0.243   5.419  0.0706  0.0114  0.5254
11634TIP3    H156317   1.840   0.310   5.483 -1.8253 -0.6993  0.6142
11634TIP3    H256318   1.800   0.173   5.433  1.2331 -1.2851 -0.4093
11635TIP3   OH256319   2.541   2.856   2.160  0.2252 -0.1301 -0.1414
11635TIP3    H156320   2.616   2.876   2.104 -0.3962  0.8099 -0.6592
11635TIP3    H256321   2.547   2.761   2.174  1.2823 -0.1350 -0.4873
11636TIP3   OH256322   4.587   3.593  14.832  0.1255  0.7540 -0.3149
11636TIP3    H156323   4.668   3.541  14.825 -0.7149 -0.4517 -1.5773
11636TIP3    H256324   4.517   3.529  14.828 -0.9727  1.9825 -2.2130
11637TIP3   OH256325   4.673   2.664   1.328 -0.3466  0.3030  0.7640
11637TIP3    H156326   4.660   2.621   1.413  0.2813 -1.6348 -0.0442
11637TIP3    H256327   4.602   2.728   1.322 -1.6655 -0.9772  1.8661
11638TIP3   OH256328   0.164   0.418   2.687 -0.0755 -0.3259 -0.3103
11638TIP3    H156329   0.211   0.335   2.678 -0.4942 -0.5977 -0.0330
11638TIP3    H256330   0.172   0.459   2.601  1.0524 -0.1579 -0.1410
11639TIP3   OH256331   4.641   4.163   1.016 -0.5711 -0.0028 -0.1740
11639TIP3    H156332   4.731   4.132   1.032 -0.9304 -0.9664  0.0748
11639TIP3    H256333   4.605   4.175   1.104 -0.7037  0.3452 -0.2751
11640TIP3   OH256334   0.601   0.055  13.664  0.2217 -0.7961  0.5080
11640TIP3    H156335   0.567   0.114  13.598  2.4238 -0.5225 -0.4754
11640TIP3    H256336   0.655   0.110  13.721  1.3166 -1.6149  0.3125
11641TIP3   OH256337   0.774   6.291   3.925 -0.1651 -0.1004 -0.8838
11641TIP3    H156338   0.796   6.303   3.832 -0.4311 -0.3357 -0.9778
11641TIP3    H256339   0.693   6.240   3.924 -1.7242  2.2234 -0.5605
11642TIP3   OH256340   4.420   0.265  14.473 -0.2614 -0.3175  0.6839
11642TIP3    H156341   4.347   0.238  14.417 -0.3997 -2.8334  1.9048
11642TIP3    H256342   4.386   0.339  14.522 -1.0149  0.2969 -0.6978
11643TIP3   OH256343   5.191   5.553  11.399  0.2874 -0.4109 -0.3710
11643TIP3    H156344   5.108   5.506  11.400 -0.3336  0.6203 -1.5398
11643TIP3    H256345   5.187   5.612  11.474 -1.0592  1.3064 -1.7293
11644TIP3   OH256346   1.233   3.740  17.271 -0.4096 -0.3130  0.4235
11644TIP3    H156347   1.191   3.722  17.355 -0.2556 -0.0280  0.5630
11644TIP3    H256348   1.267   3.829  17.279  0.7159 -0.7304  0.5159
11645TIP3   OH256349   2.824   1.571   1.206  0.1030  0.1837 -0.3534
11645TIP3    H156350   2.796   1.660   1.182  2.6258  1.7070  1.8514
11645TIP3    H256351   2.753   1.538   1.260 -0.2179  1.4794  0.0624
11646TIP3   OH256352   3.178   3.431   1.974  0.1086 -0.1044 -0.0839
11646TIP3    H156353   3.188   3.452   2.067  1.5142  1.4856 -0.5459
11646TIP3    H256354   3.207   3.340   1.967 -2.1418 -1.0094  1.3400
11647TIP3   OH256355   6.117   0.865  15.030  0.8178  0.2992  0.4748
11647TIP3    H156356   6.026   0.837  15.022  1.5499 -1.9287 -0.8785
11647TIP3    H256357   6.143   0.888  14.940  2.6752 -3.0356  0.0059
11648TIP3   OH256358   2.461   2.005  13.207 -0.4356 -0.5441  0.9561
11648TIP3    H156359   2.422   1.926  13.244 -0.5525 -0.1470  1.7038
11648TIP3    H256360   2.555   1.985  13.202 -0.4714 -0.7519  1.1006
11649TIP3   OH256361   0.950   1.270  16.581  0.7213  0.5094  0.3612
11649TIP3    H156362   0.957   1.278  16.486 -0.6164  0.8651  0.2662
11649TIP3    H256363   0.868   1.223  16.595  1.2320 -0.1053  1.3294
11650TIP3   OH256364   3.074   0.530  17.277 -0.1662  0.0070  0.9186
11650TIP3    H156365   3.100   0.592  17.344 -0.0197  0.4955  0.4169
11650TIP3    H256366   2.987   0.499  17.305 -0.1429  0.2715  1.2830
11651TIP3   OH256367   5.470   2.820   5.206 -0.1900  0.7034  0.1099
11651TIP3    H156368   5.487   2.902   5.161  1.6184  0.1425 -0.3211
11651TIP3    H256369   5.406   2.775   5.151  0.3548  0.9634 -0.7656
11652TIP3   OH256370   4.078   0.506   2.084  0.2235 -0.2187 -0.5610
11652TIP3    H156371   4.148   0.495   2.020  0.7686  0.1783 -0.0510
11652TIP3    H256372   4.014   0.439   2.062 -0.8473  1.5015 -3.1380
11653TIP3   OH256373   6.120   5.201   0.237  0.0120  0.2077 -0.2551
11653TIP3    H156374   6.097   5.268   0.302 -0.4720  1.4331 -1.6532
11653TIP3    H256375   6.194   5.238   0.190  1.0095 -1.1162  0.2159
11654TIP3   OH256376   1.767   1.895   1.906  0.3643 -0.3018  0.1410
11654TIP3    H156377   1.841   1.948   1.879  0.6325 -1.3192 -1.2698
11654TIP3    H256378   1.701   1.909   1.839 -0.1727 -0.5120  0.6109
11655TIP3   OH256379   6.384   6.546   3.945  0.6592 -0.1757 -0.7804
11655TIP3    H156380   6.455   6.611   3.947  0.5147  0.0608 -2.1703
11655TIP3    H256381   6.306   6.596   3.921  0.5000 -0.8165 -1.6288
11656TIP3   OH256382   4.332   4.454   1.216  0.5908 -0.4625  0.5799
11656TIP3    H156383   4.410   4.494   1.255 -0.7333  0.9267  1.9702
11656TIP3    H256384   4.299   4.521   1.156 -1.0014  0.1439  2.0570
11657TIP3   OH256385   3.526   1.854  14.533 -0.2475  0.0662 -0.1722
11657TIP3    H156386   3.593   1.806  14.580  1.9427 -0.1604 -3.2219
11657TIP3    H256387   3.523   1.940  14.574  0.6672 -0.4893  1.0835
11658TIP3   OH256388   2.632   1.698  16.005  0.4861  0.3032 -0.0085
11658TIP3    H156389   2.635   1.694  15.909  0.2975 -1.6908  0.0299
11658TIP3    H256390   2.655   1.610  16.033 -2.6287 -0.1245  1.6788
11659TIP3   OH256391   4.731   5.482  12.225  0.6455  0.1626 -0.1885
11659TIP3    H156392   4.713   5.542  12.153 -1.5854  0.7884  0.7686
11659TIP3    H256393   4.701   5.397  12.194 -1.0777  0.5807  0.2134
11660TIP3   OH256394   5.317   5.763   3.872 -0.6324  0.5478 -0.4874
11660TIP3    H156395   5.394   5.739   3.820  0.1759  1.3942  0.2727
11660TIP3    H256396   5.353   5.795   3.955 -1.8493  0.0637  0.2585
11661TIP3   OH256397   4.004   2.435   4.557  0.3309  0.5742 -0.4999
11661TIP3    H156398   3.941   2.368   4.584 -2.9450  3.6979  0.4912
11661TIP3    H256399   4.015   2.421   4.463  0.0097 -1.4756 -0.2725
11662TIP3   OH256400   4.500   0.249   1.036  0.1389  0.2473 -0.1033
11662TIP3    H156401   4.575   0.270   0.979 -0.7522 -0.4672 -1.6170
11662TIP3    H256402   4.426   0.295   0.995 -0.5408 -0.3556  0.4275
11663TIP3   OH256403   3.530   2.342  14.742 -0.2132  0.5357  0.1002
11663TIP3    H156404   3.597   2.384  14.687  1.6581 -0.5377  1.4351
11663TIP3    H256405   3.447   2.375  14.708  0.9362  1.2982 -2.1784
11664TIP3   OH256406   5.334   1.415   3.929  0.5507  0.1623  0.0532
11664TIP3    H156407   5.305   1.324   3.937 -1.7422  0.6702 -1.4794
11664TIP3    H256408   5.342   1.430   3.835 -0.7805  1.9868  0.1712
11665TIP3   OH256409   6.610   4.729  17.081  0.0915  0.2399  0.2810
11665TIP3    H156410   6.574   4.672  17.013  1.8888 -0.2863 -0.3080
11665TIP3    H256411   6.548   4.801  17.088 -1.0539 -0.6212 -0.6212
11666TIP3   OH256412   0.630   0.817   1.813 -0.0397 -0.4125 -0.0222
11666TIP3    H156413   0.717   0.823   1.852 -0.4759 -0.9747  1.0591
11666TIP3    H256414   0.631   0.882   1.743  0.7428  0.6402  0.9434
11667TIP3   OH256415   0.692   1.251  11.383  0.1021  0.3462  0.4445
11667TIP3    H156416   0.666   1.159  11.377  1.8704 -0.1995  0.7625
11667TIP3    H256417   0.682   1.284  11.294 -2.0304  0.3226  0.6079
11668TIP3   OH256418   1.238   4.118   2.163  0.0926 -0.2301 -0.4593
11668TIP3    H156419   1.202   4.033   2.188 -0.3385 -0.6390 -2.3269
11668TIP3    H256420   1.296   4.099   2.089  0.5798  1.0093 -0.4223
11669TIP3   OH256421   2.455   3.747  16.714  0.3758 -0.8162 -0.1868
11669TIP3    H156422   2.505   3.666  16.709 -0.6958 -1.6375  1.4464
11669TIP3    H256423   2.363   3.719  16.708  0.0294  0.4777 -1.3970
11670TIP3   OH256424   1.243   5.842   1.245 -0.0409  0.2153  0.9082
11670TIP3    H156425   1.213   5.853   1.155  0.4492 -1.0203  0.5842
11670TIP3    H256426   1.165   5.861   1.298 -0.3810  0.7656  0.2296
11671TIP3   OH256427   1.736   4.729   2.221  0.6668  0.1588  0.1515
11671TIP3    H156428   1.766   4.814   2.187  2.1753 -0.7113 -0.7915
11671TIP3    H256429   1.778   4.721   2.306  1.2687 -0.0303 -0.1571
11672TIP3   OH256430   3.413   3.088  11.976  0.5561 -0.1362 -0.4051
11672TIP3    H156431   3.344   3.027  11.950 -0.0618  0.3335  0.0919
11672TIP3    H256432   3.367   3.158  12.023  1.4149 -0.0390  0.3271
11673TIP3   OH256433   5.607   6.443   3.480 -0.6047  0.5349  0.2071
11673TIP3    H156434   5.622   6.371   3.541 -0.8003 -0.8412 -1.2821
11673TIP3    H256435   5.514   6.436   3.457 -1.0663  2.4041  1.3863
11674TIP3   OH256436   0.904   1.983   3.054  0.7133 -0.4288 -0.0239
11674TIP3    H156437   0.977   1.982   2.992  0.6248 -1.6227 -0.1427
11674TIP3    H256438   0.863   2.069   3.041  1.1258 -0.3742 -1.1154
11675TIP3   OH256439   3.116   1.368   4.026 -0.5644 -0.5945  0.1709
11675TIP3    H156440   3.104   1.283   3.984  0.9539 -0.0362 -1.5084
11675TIP3    H256441   3.078   1.431   3.964 -0.1467  0.0830  0.5912
11676TIP3   OH256442   2.566   0.426  15.471 -0.4346  0.5634 -0.1105
11676TIP3    H156443   2.650   0.465  15.494 -0.1545  0.4397 -0.8854
11676TIP3    H256444   2.507   0.500  15.459 -0.0211  0.7497 -1.1258
11677TIP3   OH256445   4.817   2.189   2.725  0.1631 -0.2874 -0.1723
11677TIP3    H156446   4.772   2.256   2.776  1.3865  2.8339 -2.8126
11677TIP3    H256447   4.755   2.164   2.657  0.6277  0.2291 -0.8001
11678TIP3   OH256448   4.706   3.208   3.497  0.0194 -0.3560  0.0287
11678TIP3    H156449   4.796   3.238   3.512  0.6549 -1.3670 -1.5129
11678TIP3    H256450   4.711   3.113   3.508 -1.1593 -0.3195  1.1547
11679TIP3   OH256451   6.143   0.065   3.379  0.1313 -0.1040 -0.0537
11679TIP3    H156452   6.149   0.061   3.284 -0.7081  2.9569 -0.3216
11679TIP3    H256453   6.080  -0.004   3.402 -1.2958  0.5010 -1.9218
11680TIP3   OH256454   1.285   5.748  16.281 -0.5142  0.2181 -0.4503
11680TIP3    H156455   1.218   5.680  16.280  0.4271 -0.8639  1.9195
11680TIP3    H256456   1.237   5.828  16.302 -1.2720 -0.2756 -0.2455
11681TIP3   OH256457   6.414   4.958  11.515 -0.5904 -0.1228  0.5255
11681TIP3    H156458   6.390   4.929  11.427  3.1455  0.9482 -1.0628
11681TIP3    H256459   6.358   5.035  11.532 -0.2796  0.6463 -1.6713
11682TIP3   OH256460   6.659   2.699  16.654 -0.1628  0.1353 -0.3873
11682TIP3    H156461   6.673   2.646  16.575 -2.2509  0.1782 -0.8391
11682TIP3    H256462   6.747   2.725  16.680  0.8558 -2.4163 -0.9131
11683TIP3   OH256463   4.286   5.081  13.447 -0.0060  0.2622  0.3365
11683TIP3    H156464   4.372   5.110  13.415 -1.4407  2.6330 -1.7741
11683TIP3    H256465   4.235   5.067  13.368 -2.5595  2.2898  1.5065
11684TIP3   OH256466   1.715   1.342   1.361 -0.0870  0.5204 -0.1296
11684TIP3    H156467   1.718   1.247   1.363  0.0184  0.5214 -0.2009
11684TIP3    H256468   1.625   1.364   1.385 -0.3408  0.3770 -0.9121
11685TIP3   OH256469   3.777   3.484   2.957  0.2765 -0.4324 -0.5676
11685TIP3    H156470   3.699   3.445   2.996  0.4368  1.0303  1.3804
11685TIP3    H256471   3.744   3.534   2.883 -0.5599 -0.3450 -0.1455
11686TIP3   OH256472   3.231   1.566   1.098  0.3937  0.2811 -0.3218
11686TIP3    H156473   3.230   1.595   1.189 -0.3564  1.7614 -0.7786
11686TIP3    H256474   3.164   1.618   1.055  0.6205 -0.5119 -1.7046
11687TIP3   OH256475   4.375   5.229  14.577  0.0731 -0.4163 -0.5875
11687TIP3    H156476   4.298   5.173  14.572  0.1577 -0.4924 -1.1030
11687TIP3    H256477   4.397   5.248  14.486 -1.0491  1.9813 -0.4319
11688TIP3   OH256478   4.180   0.100   4.589 -0.0506 -0.0324 -0.1343
11688TIP3    H156479   4.256   0.119   4.534 -0.4589  0.8102 -0.4407
11688TIP3    H256480   4.118   0.170   4.568  0.0344  0.7407  1.8897
11689TIP3   OH256481   0.677   5.113  12.325 -0.2146  0.2347  0.5344
11689TIP3    H156482   0.608   5.172  12.356  2.3471  2.6005  2.2766
11689TIP3    H256483   0.724   5.164  12.260 -1.6040 -2.3706 -2.7925
11690TIP3   OH256484   3.027   0.596  13.310  0.2484 -0.3479  0.0129
11690TIP3    H156485   2.933   0.582  13.316 -0.2434  2.4387  0.0475
11690TIP3    H256486   3.055   0.607  13.401  0.2560  0.5647 -0.0873
11691TIP3   OH256487   0.195   3.791   3.065  0.4726 -0.3518  0.2077
11691TIP3    H156488   0.172   3.703   3.033  0.9074  0.2489 -1.8757
11691TIP3    H256489   0.137   3.804   3.141 -2.3833 -0.9834 -1.6819
11692TIP3   OH256490   5.000   2.866   1.478 -0.4844 -0.3064  0.9814
11692TIP3    H156491   4.922   2.876   1.423  1.3954  0.4914 -1.7598
11692TIP3    H256492   5.011   2.771   1.486  0.1890 -0.5534 -1.7503
11693TIP3   OH256493   0.837   3.994  11.107  0.0263 -0.0489  0.0503
11693TIP3    H156494   0.927   3.983  11.079 -0.0885  0.5524 -0.5839
11693TIP3    H256495   0.823   4.089  11.107 -0.6515 -0.1417 -0.0419
11694TIP3   OH256496   5.059   1.870   2.323 -0.2452 -0.0177  0.2199
11694TIP3    H156497   5.133   1.931   2.316 -2.2528  2.6608  0.8781
11694TIP3    H256498   5.083   1.796   2.267  2.6896  0.9366  0.0579
11695TIP3   OH256499   5.562   4.234  11.512  0.0348  0.1911  0.2552
11695TIP3    H156500   5.503   4.188  11.571 -2.2701  2.1194 -0.4042
11695TIP3    H256501   5.565   4.324  11.546  0.0753  0.8997 -1.4943
11696TIP3   OH256502   6.420   2.546   1.844  0.0817 -0.2113  0.1691
11696TIP3    H156503   6.444   2.639   1.852 -0.2608 -0.0980 -0.1222
11696TIP3    H256504   6.384   2.524   1.930 -2.1229  0.5863 -0.4868
11697TIP3   OH256505   1.434   0.169   5.011 -0.1507 -0.1198 -0.0413
11697TIP3    H156506   1.471   0.085   4.986  0.9006  0.6485 -1.1973
11697TIP3    H256507   1.452   0.227   4.937  0.9305  1.6520  1.4875
11698TIP3   OH256508   3.124   5.350   5.951  0.1692  0.3655  0.0500
11698TIP3    H156509   3.095   5.440   5.935  0.9791  0.6067 -0.0970
11698TIP3    H256510   3.104   5.303   5.870 -1.7761 -0.0065  0.6929
11699TIP3   OH256511   6.477   2.547   3.543  0.2931 -0.3561 -0.5483
11699TIP3    H156512   6.534   2.558   3.618  1.5153  0.8299 -1.5952
11699TIP3    H256513   6.529   2.498   3.479 -0.1199  0.0765 -1.2386
11700TIP3   OH256514   1.221   3.542   1.864  0.3721 -0.0315 -0.0100
11700TIP3    H156515   1.166   3.531   1.941 -1.0589 -0.3766 -1.0244
11700TIP3    H256516   1.175   3.609   1.812  0.5038 -0.8601 -1.2223
11701TIP3   OH256517   3.696   5.473  16.465  0.1948  0.3145 -0.0266
11701TIP3    H156518   3.637   5.496  16.537 -0.5566 -0.6879 -0.2978
11701TIP3    H256519   3.683   5.543  16.401 -1.2114 -0.2155 -0.3584
11702TIP3   OH256520   2.614   6.483  14.377 -0.1603 -0.5958 -0.1816
11702TIP3    H156521   2.674   6.531  14.434  0.5661 -0.4011 -1.0827
11702TIP3    H256522   2.623   6.392  14.404 -1.0173 -0.3266  1.0676
11703TIP3   OH256523   5.557   2.943  11.459 -0.3786  0.3959  0.0386
11703TIP3    H156524   5.487   2.960  11.521 -0.5811  0.9106 -0.3193
11703TIP3    H256525   5.615   3.019  11.467  0.5161 -0.3544  0.8336
11704TIP3   OH256526   3.694   4.644  12.642  0.0617  0.1579  0.9668
11704TIP3    H156527   3.693   4.618  12.550  2.1319 -1.5002  1.3326
11704TIP3    H256528   3.690   4.740  12.640  0.7920  0.1935 -0.8922
11705TIP3   OH256529   2.612   5.420   2.299  0.5623 -0.2339  0.3863
11705TIP3    H156530   2.581   5.510   2.314  1.0067 -0.0091  0.0019
11705TIP3    H256531   2.573   5.369   2.369  0.1095  0.2188  0.4738
11706TIP3   OH256532   2.713   4.375  16.916  0.1999  0.0639  0.5275
11706TIP3    H156533   2.789   4.425  16.947  1.7319 -0.5816 -1.8707
11706TIP3    H256534   2.736   4.284  16.933 -0.2288 -0.1109  0.1855
11707TIP3   OH256535   6.293   1.221  16.963  0.3943 -0.1069  0.3146
11707TIP3    H156536   6.207   1.198  16.999  0.8837 -0.5828  1.2100
11707TIP3    H256537   6.314   1.306  17.003  1.0058 -0.7069  1.3205
11708TIP3   OH256538   4.977   0.688   3.785 -0.6121 -0.5254 -0.7223
11708TIP3    H156539   4.896   0.644   3.809 -1.2460  0.0871 -1.6784
11708TIP3    H256540   4.956   0.737   3.706  0.4159  0.4966 -0.3992
11709TIP3   OH256541   1.126   3.968   0.410  0.0657  0.0653  0.3793
11709TIP3    H156542   1.140   3.877   0.438 -1.6521 -1.1331 -2.2759
11709TIP3    H256543   1.187   3.980   0.337 -2.2239 -0.3250 -1.7345
11710TIP3   OH256544   2.871   5.030   5.981  0.2115 -0.3765 -0.3144
11710TIP3    H156545   2.820   5.041   6.061  1.6809  1.5820  0.4397
11710TIP3    H256546   2.833   5.094   5.920  0.5129 -0.2936 -0.4156
11711TIP3   OH256547   0.114   1.994   5.468 -0.0990  0.0968 -0.5271
11711TIP3    H156548   0.182   1.956   5.524  1.5411  1.1538 -1.7221
11711TIP3    H256549   0.106   2.084   5.497 -0.3365  0.2348 -1.0110
11712TIP3   OH256550   0.787   5.466  10.695  0.1792  0.3641 -0.0950
11712TIP3    H156551   0.742   5.491  10.614 -0.2066  1.2817  0.3974
11712TIP3    H256552   0.873   5.435  10.666 -0.6950 -1.3332 -1.0422
11713TIP3   OH256553   4.972   5.200   4.267 -0.6668  0.3660  0.0333
11713TIP3    H156554   4.900   5.165   4.320 -1.2476 -2.1909 -2.2352
11713TIP3    H256555   4.929   5.249   4.197 -0.1631 -0.4443 -0.8551
11714TIP3   OH256556   0.147   3.455   1.408  0.3353  0.2696 -0.3489
11714TIP3    H156557   0.114   3.443   1.497  1.2052  1.7291  0.2036
11714TIP3    H256558   0.070   3.444   1.352 -0.4979  0.6896  0.6841
11715TIP3   OH256559   1.186   2.100  15.254 -0.4594  0.1599  0.0751
11715TIP3    H156560   1.213   2.154  15.180 -0.8883  1.3553  0.7779
11715TIP3    H256561   1.268   2.060  15.285 -0.3996 -1.1311 -1.6038
11716TIP3   OH256562   6.233   3.002   0.906 -0.2758  0.1228 -0.2911
11716TIP3    H156563   6.197   2.913   0.908 -1.3002  0.5064 -1.0833
11716TIP3    H256564   6.301   2.999   0.838  1.1274 -0.5438  1.0618
11717TIP3   OH256565   5.852   5.872   3.780  0.4753 -0.0892 -0.3302
11717TIP3    H156566   5.930   5.928   3.782 -0.0249  0.8562 -3.0002
11717TIP3    H256567   5.782   5.929   3.747 -1.4028 -0.9325  1.9352
11718TIP3   OH256568   4.644   6.725  12.351 -0.1113 -0.5501  0.4767
11718TIP3    H156569   4.636   6.814  12.319 -1.2063 -1.0404 -0.7109
11718TIP3    H256570   4.728   6.694  12.316  1.2566  0.5746  2.5036
11719TIP3   OH256571   1.255   0.591  12.434  0.0740 -0.1297 -0.4361
11719TIP3    H156572   1.309   0.627  12.364 -1.0033 -0.9650 -1.7415
11719TIP3    H256573   1.165   0.614  12.410 -0.4276 -1.5584 -0.0437
11720TIP3   OH256574   0.647   5.587  11.506  0.0108  0.2879  0.3418
11720TIP3    H156575   0.619   5.544  11.426  0.7244  0.1135  0.1749
11720TIP3    H256576   0.665   5.678  11.479 -1.9519  0.8595  0.7912
11721TIP3   OH256577   4.054   2.797  15.328  0.0416  0.2738 -0.3882
11721TIP3    H156578   4.061   2.857  15.254  0.5683 -0.7510 -1.1899
11721TIP3    H256579   3.962   2.800  15.352  0.1110  1.6293 -0.2075
11722TIP3   OH256580   1.836   4.698  12.280  0.1029 -0.0269 -0.0328
11722TIP3    H156581   1.896   4.670  12.348  0.3896  0.5146 -0.0622
11722TIP3    H256582   1.771   4.627  12.274  0.0198 -0.0266  0.8642
11723TIP3   OH256583   0.777   5.383  15.380 -0.3299 -0.3799 -0.1131
11723TIP3    H156584   0.698   5.394  15.433 -2.1825  1.8784 -3.0557
11723TIP3    H256585   0.750   5.329  15.306  0.6667  0.8533 -1.4420
11724TIP3   OH256586   4.690   5.562   3.365 -0.0743 -0.1269 -0.1404
11724TIP3    H156587   4.702   5.468   3.374 -2.4171 -0.7064 -2.0652
11724TIP3    H256588   4.711   5.597   3.452  1.7268 -2.2628  0.3794
11725TIP3   OH256589   6.685   2.908  12.266 -0.4970  0.6090 -0.6872
11725TIP3    H156590   6.613   2.942  12.319 -1.3951  0.7272 -1.9507
11725TIP3    H256591   6.685   2.814  12.282 -1.4589  0.4974 -1.2840
11726TIP3   OH256592   5.051   6.158   6.352 -0.5902 -0.7366 -0.2271
11726TIP3    H156593   5.110   6.099   6.398 -0.0593 -1.2613 -1.5403
11726TIP3    H256594   4.976   6.104   6.329 -0.6999 -0.5618 -0.2869
11727TIP3   OH256595   1.670   4.121   6.065 -0.0726  0.0072 -0.2787
11727TIP3    H156596   1.698   4.113   5.974  0.6637  0.8630 -0.1415
11727TIP3    H256597   1.583   4.160   6.060  0.6279  1.6005 -0.5809
11728TIP3   OH256598   4.608   2.151  15.942  0.2316 -0.2988 -0.5195
11728TIP3    H156599   4.516   2.128  15.951 -0.5467  2.2518 -1.2082
11728TIP3    H256600   4.640   2.159  16.032 -0.5007 -0.1831 -0.2677
11729TIP3   OH256601   0.819   1.726   5.081 -0.1265 -0.0185  0.7323
11729TIP3    H156602   0.900   1.777   5.081 -0.7441  0.9855  1.1740
11729TIP3    H256603   0.839   1.650   5.026  0.1300  1.8010 -1.8587
11730TIP3   OH256604   3.159   1.976   5.937 -0.2213 -0.0063 -0.2134
11730TIP3    H156605   3.094   2.018   5.882  0.3593 -0.2980 -1.1540
11730TIP3    H256606   3.112   1.951   6.016 -0.7564  1.6746  0.0333
11731TIP3   OH256607   6.747   4.447  13.946  0.0824 -0.0879 -0.1692
11731TIP3    H156608   6.722   4.481  14.032 -1.7961  0.8630 -1.0431
11731TIP3    H256609   6.742   4.352  13.956  0.8424 -0.0328  1.0146
11732TIP3   OH256610   6.488   2.788   1.975 -0.0738  0.4184  0.0095
11732TIP3    H156611   6.469   2.770   2.067 -0.5942  0.0315 -0.1692
11732TIP3    H256612   6.576   2.826   1.976  0.4122 -0.6815  0.5631
11733TIP3   OH256613   0.928   3.437  17.093 -0.3343  0.0621 -0.2484
11733TIP3    H156614   0.988   3.505  17.061  0.3467 -0.5292 -0.2460
11733TIP3    H256615   0.922   3.375  17.021 -0.8800  0.0729 -0.2140
11734TIP3   OH256616   5.939   6.468   5.538 -0.2164 -0.6433  0.2060
11734TIP3    H156617   5.988   6.523   5.600 -0.2859  0.3003 -0.5440
11734TIP3    H256618   5.906   6.396   5.590  2.6903 -1.8210  0.6090
11735TIP3   OH256619   0.831   3.024  16.964 -0.1671  0.2537 -1.1687
11735TIP3    H156620   0.754   3.080  16.980  0.2122  1.1221 -2.2599
11735TIP3    H256621   0.796   2.949  16.916 -0.5826 -0.1668 -0.2364
11736TIP3   OH256622   3.346   4.106   1.207  0.1797 -0.3632  0.5570
11736TIP3    H156623   3.256   4.076   1.194  0.2002 -0.3965  0.4936
11736TIP3    H256624   3.354   4.185   1.153  0.2074 -0.3951  0.5145
11737TIP3   OH256625   5.190   6.311   5.718 -0.0848  0.9184  0.1053
11737TIP3    H156626   5.268   6.281   5.671 -1.2652  1.2514 -2.1890
11737TIP3    H256627   5.118   6.262   5.680 -0.9815 -0.0095  2.7750
11738TIP3   OH256628   6.038   2.392   0.434  0.1964 -0.1204 -0.3242
11738TIP3    H156629   5.991   2.318   0.475 -1.1449  0.6101 -0.4698
11738TIP3    H256630   6.042   2.368   0.341 -0.2794 -0.0142 -0.3793
11739TIP3   OH256631   6.697   6.520  13.560  0.6556 -0.3902  0.2150
11739TIP3    H156632   6.757   6.573  13.507  0.9411  0.4160  1.3008
11739TIP3    H256633   6.754   6.455  13.602  0.3416 -1.4263 -0.9180
11740TIP3   OH256634   1.353   4.142   3.527  0.0212  0.3180 -0.4302
11740TIP3    H156635   1.305   4.121   3.447 -1.0063 -0.4705  0.3688
11740TIP3    H256636   1.445   4.139   3.502 -0.3049  1.3783 -1.8843
11741TIP3   OH256637   1.977   6.465  12.086 -0.0304  0.2235 -0.1744
11741TIP3    H156638   2.023   6.387  12.053 -0.5863 -0.8575  1.4659
11741TIP3    H256639   1.885   6.440  12.085 -0.4521  1.6882 -1.6548
11742TIP3   OH256640   6.570   4.486   4.762  0.0315  0.1698  0.0440
11742TIP3    H156641   6.621   4.514   4.838  0.3185  1.8821 -0.7437
11742TIP3    H256642   6.515   4.561   4.740 -0.1838 -0.3609 -1.3338
11743TIP3   OH256643   4.753   0.558  14.324 -0.0081 -0.1385 -0.1301
11743TIP3    H156644   4.689   0.554  14.254  0.2850 -2.2124 -0.3290
11743TIP3    H256645   4.705   0.532  14.402  0.3157 -0.5726 -0.0740
11744TIP3   OH256646   5.284   1.707   5.579  0.0953 -1.0068 -0.0837
11744TIP3    H156647   5.265   1.661   5.497 -0.1120 -2.5199  0.7798
11744TIP3    H256648   5.240   1.655   5.647 -0.7490  0.8830  0.8820
11745TIP3   OH256649   3.041   2.024   0.295  0.1292  0.0981  0.4841
11745TIP3    H156650   2.985   1.946   0.295 -0.7965  0.7424 -0.2853
11745TIP3    H256651   3.130   1.990   0.285 -0.2665 -0.8593  0.1246
11746TIP3   OH256652   4.020   6.710  14.912  0.0217 -0.1389 -0.5956
11746TIP3    H156653   3.950   6.744  14.967 -0.2330 -1.4900 -0.0496
11746TIP3    H256654   4.055   6.787  14.867 -0.9665  0.7268  0.0809
11747TIP3   OH256655   3.919   6.243  16.167  0.4403  0.4525 -0.0507
11747TIP3    H156656   3.994   6.213  16.116  1.0002  1.1385  0.3391
11747TIP3    H256657   3.918   6.338  16.155  0.3339  0.5811  0.8560
11748TIP3   OH256658   3.955   3.098   2.866 -0.2854  0.2145  0.4938
11748TIP3    H156659   3.925   3.077   2.777  3.0637  1.7396 -1.1896
11748TIP3    H256660   3.875   3.114   2.915 -2.3009  0.2792 -2.5373
11749TIP3   OH256661   2.225   5.174   4.026 -0.6432  0.2437 -0.2988
11749TIP3    H156662   2.300   5.220   4.065 -0.8323  1.0157 -0.8245
11749TIP3    H256663   2.156   5.240   4.022 -1.1124 -0.2565 -0.5216
11750TIP3   OH256664   1.589   0.841   6.287 -0.0762 -0.2459  0.3879
11750TIP3    H156665   1.683   0.829   6.296 -0.2994 -2.8707 -0.0047
11750TIP3    H256666   1.551   0.771   6.340 -1.7671 -0.2379 -0.7467
11751TIP3   OH256667   4.366   4.774   0.570  0.5249  0.4609  0.3279
11751TIP3    H156668   4.345   4.837   0.501  1.3970 -0.7879 -1.1587
11751TIP3    H256669   4.458   4.790   0.590  1.2328 -1.2963 -1.2140
11752TIP3   OH256670   5.482   2.611  11.872 -0.3672  0.2916 -0.1507
11752TIP3    H156671   5.493   2.518  11.894  0.2997  0.1457 -1.0209
11752TIP3    H256672   5.541   2.656  11.932 -0.0512  0.0738 -0.2922
11753TIP3   OH256673   3.533   6.417   2.243  0.1025  0.2243 -0.6741
11753TIP3    H156674   3.530   6.369   2.326  1.3860 -2.5974 -2.1056
11753TIP3    H256675   3.445   6.408   2.207 -0.0802  0.2491 -0.2377
11754TIP3   OH256676   2.976   3.244   2.128  0.3430 -0.0054 -0.4521
11754TIP3    H156677   2.902   3.249   2.067  1.2665 -1.5051 -1.7640
11754TIP3    H256678   3.050   3.219   2.074  0.8408 -3.3714  1.5116
11755TIP3   OH256679   2.658   3.557   3.023  0.0239 -0.3972  0.5661
11755TIP3    H156680   2.604   3.562   3.101 -0.3340  0.8897  0.2517
11755TIP3    H256681   2.623   3.483   2.974 -0.3587 -0.6171  1.1633
11756TIP3   OH256682   0.870   4.218  16.259 -0.3763  0.4573 -0.4061
11756TIP3    H156683   0.930   4.145  16.270 -1.5090 -0.5206 -0.5073
11756TIP3    H256684   0.887   4.275  16.334  1.2587  0.6563 -0.8946
11757TIP3   OH256685   0.086   5.113  12.690 -0.2857 -0.5675 -0.1117
11757TIP3    H156686   0.055   5.166  12.763  0.5088 -1.0830  0.6236
11757TIP3    H256687   0.023   5.040  12.685  0.3001 -1.1677  0.8443
11758TIP3   OH256688   2.063   1.646  17.045  0.7192 -0.0617  0.6499
11758TIP3    H156689   2.071   1.736  17.077 -2.0394 -0.4287  2.7721
11758TIP3    H256690   2.113   1.594  17.108  0.4213 -0.2140  0.7606
11759TIP3   OH256691   3.073   3.807   3.772  0.5713  0.1754  0.7934
11759TIP3    H156692   3.073   3.781   3.680  0.3065  0.4553  0.7147
11759TIP3    H256693   3.159   3.847   3.786  0.2704  0.9498  0.4383
11760TIP3   OH256694   3.913   6.386   4.633 -0.1515  0.3217  0.1449
11760TIP3    H156695   3.834   6.367   4.583 -0.9375 -0.5917  1.6513
11760TIP3    H256696   3.900   6.474   4.667 -1.0197 -0.1939  1.2167
11761TIP3   OH256697   1.803   4.373  11.578 -0.5732  0.1509 -0.0849
11761TIP3    H156698   1.771   4.444  11.634 -1.0409  0.0260 -0.1912
11761TIP3    H256699   1.892   4.357  11.609 -0.4782  0.7495 -0.0240
11762TIP3   OH256700   2.536   1.132   5.806 -0.0182 -0.0786 -0.7356
11762TIP3    H156701   2.551   1.091   5.720 -0.4826  0.2072 -0.9561
11762TIP3    H256702   2.614   1.187   5.820 -0.2424  0.3981 -1.2878
11763TIP3   OH256703   3.376   1.996   5.187  0.1927 -0.0108 -0.6180
11763TIP3    H156704   3.430   1.951   5.122  0.4044 -1.3428  0.4267
11763TIP3    H256705   3.371   1.934   5.260  0.1375  1.5320  0.7199
11764TIP3   OH256706   4.642   5.237  17.318  0.1107 -0.0314 -0.4577
11764TIP3    H156707   4.668   5.145  17.326  1.2413  0.3284  0.4079
11764TIP3    H256708   4.560   5.235  17.270 -1.0705 -1.6653  1.4566
11765TIP3   OH256709   3.797   0.721  16.225 -0.6932  0.1236 -0.1926
11765TIP3    H156710   3.856   0.687  16.292 -0.9119  0.4277  0.1560
11765TIP3    H256711   3.823   0.813  16.213  2.6925 -1.0456 -4.0846
11766TIP3   OH256712   0.768   2.873   5.534  0.2710  0.1678  1.2733
11766TIP3    H156713   0.715   2.912   5.603 -0.4718 -0.8174  1.2822
11766TIP3    H256714   0.717   2.798   5.504  1.8913 -1.1324  1.6338
11767TIP3   OH256715   0.465   4.964   6.156  0.2943  0.2288  0.0708
11767TIP3    H156716   0.459   4.919   6.241  1.7922 -0.5455 -0.2063
11767TIP3    H256717   0.455   5.057   6.178  0.6594  0.0435  1.1021
11768TIP3   OH256718   3.380   0.196   1.724 -0.1915  0.2488 -0.1576
11768TIP3    H156719   3.462   0.219   1.681  1.0646  0.6681  2.2717
11768TIP3    H256720   3.326   0.275   1.717  0.0509  0.3616 -0.7867
11769TIP3   OH256721   6.111   2.280  15.314  0.2353  0.6194  0.2073
11769TIP3    H156722   6.041   2.320  15.365 -0.3366  0.0653 -0.1317
11769TIP3    H256723   6.167   2.238  15.379 -0.5225 -0.1389  0.3943
11770TIP3   OH256724   6.123   1.727  14.736  0.2869 -0.2289  0.1483
11770TIP3    H156725   6.129   1.694  14.826 -0.4018  2.1057  1.1463
11770TIP3    H256726   6.214   1.733  14.707  0.6562  0.7057  1.4064
11771TIP3   OH256727   6.059   3.992   4.139  0.1812  0.5370 -0.3685
11771TIP3    H156728   6.085   3.949   4.220  1.3131  1.5502 -0.1609
11771TIP3    H256729   6.034   3.920   4.081  2.1660 -0.4410 -0.0854
11772TIP3   OH256730   0.815   3.996   6.441  0.2469  0.3245 -0.1164
11772TIP3    H156731   0.720   3.989   6.438  0.2823  0.1186 -1.3650
11772TIP3    H256732   0.832   4.083   6.476 -0.4023  0.4079  0.0030
11773TIP3   OH256733   5.131   1.058  17.303 -0.2695 -0.2121  0.2646
11773TIP3    H156734   5.223   1.036  17.317 -0.9262 -4.4244 -0.7261
11773TIP3    H256735   5.103   1.096  17.386  1.6728 -1.6758  1.7026
11774TIP3   OH256736   3.881   1.524   1.958  0.2393 -0.4361 -0.2543
11774TIP3    H156737   3.812   1.458   1.949 -0.4823  0.0363  1.4509
11774TIP3    H256738   3.837   1.599   1.997  1.8410 -0.3855  1.5597
11775TIP3   OH256739   3.470   0.142  12.355  0.4525 -0.2854 -0.2480
11775TIP3    H156740   3.444   0.172  12.442 -0.5520 -0.6845 -0.4047
11775TIP3    H256741   3.394   0.157  12.300  0.7989 -0.7860 -0.8852
11776TIP3   OH256742   5.367   1.492   2.344  0.1327  0.3494 -0.0958
11776TIP3    H156743   5.405   1.462   2.427 -1.1927  0.2599  0.4935
11776TIP3    H256744   5.372   1.588   2.349 -0.6633  0.3668  0.4378
11777TIP3   OH256745   0.803   1.133  14.973  0.1026 -0.1707 -0.0426
11777TIP3    H156746   0.818   1.210  14.919  2.0470 -1.5000 -1.5512
11777TIP3    H256747   0.830   1.160  15.061 -0.0451  1.0886 -0.3608
11778TIP3   OH256748   5.879   4.057   4.910 -0.0140 -0.1045  0.6835
11778TIP3    H156749   5.921   4.137   4.881 -0.8244 -0.1030 -0.6069
11778TIP3    H256750   5.813   4.085   4.974 -1.6865  0.5643 -1.2193
11779TIP3   OH256751   0.199   3.130   5.774  0.8180 -0.2475 -0.0452
11779TIP3    H156752   0.137   3.094   5.838  1.7698  0.1846  1.1725
11779TIP3    H256753   0.285   3.100   5.806  1.7535  3.4541  1.4200
11780TIP3   OH256754   3.455   0.035   0.588 -0.5052  0.7294  0.0122
11780TIP3    H156755   3.407  -0.002   0.661  1.6278 -1.1359  0.5536
11780TIP3    H256756   3.528   0.082   0.628  0.6880 -0.3158 -0.8553
11781TIP3   OH256757   1.218   5.442   0.257 -0.0773 -0.7106 -0.0656
11781TIP3    H156758   1.256   5.463   0.342 -0.2922 -1.6048  0.2584
11781TIP3    H256759   1.257   5.506   0.197 -0.4245  0.3488  0.8109
11782TIP3   OH256760   4.237   6.689   3.083  0.0100  0.4406 -0.6004
11782TIP3    H156761   4.200   6.699   2.996  1.1485 -0.4506 -1.2072
11782TIP3    H256762   4.161   6.682   3.141 -0.7843 -1.0769 -1.7729
11783TIP3   OH256763   2.200   5.201  16.644  0.2293 -0.0250 -0.6173
11783TIP3    H156764   2.191   5.276  16.585 -0.7911 -0.4574 -1.0333
11783TIP3    H256765   2.136   5.218  16.714  0.8299  0.0657 -0.0809
11784TIP3   OH256766   6.607   1.149   2.527 -0.1754 -0.4793  0.1527
11784TIP3    H156767   6.651   1.162   2.611 -0.5215 -3.3037  0.8647
11784TIP3    H256768   6.521   1.189   2.539 -0.0143 -0.3413  0.9177
11785TIP3   OH256769   3.545   0.986   4.701 -0.0289 -0.2588  0.2341
11785TIP3    H156770   3.597   0.969   4.623  0.3063 -1.9458  0.7694
11785TIP3    H256771   3.608   0.983   4.773 -0.4729  0.3237  0.6533
11786TIP3   OH256772   3.865   0.327   1.977  0.2419  0.1209  0.2023
11786TIP3    H156773   3.857   0.326   1.881 -0.6711 -0.5495  0.2672
11786TIP3    H256774   3.787   0.282   2.007  0.3972  0.5631  1.2854
11787TIP3   OH256775   5.311   0.646  14.716 -0.4744 -0.0650  0.5667
11787TIP3    H156776   5.342   0.574  14.661 -0.3450 -0.1008  0.6848
11787TIP3    H256777   5.375   0.716  14.701 -1.6645  0.7491 -1.0784
11788TIP3   OH256778   0.888   2.397  15.581  0.8892 -0.4314  0.1259
11788TIP3    H156779   0.806   2.427  15.620  0.5839 -1.4536  0.2977
11788TIP3    H256780   0.884   2.302  15.587  0.5041 -0.7359 -3.0017
11789TIP3   OH256781   3.738   2.726   0.989  0.1444  0.0378  0.4896
11789TIP3    H156782   3.725   2.819   1.006 -0.9162 -0.2947  1.6557
11789TIP3    H256783   3.820   2.705   1.035 -0.2570  0.1461  1.2656
11790TIP3   OH256784   0.828   1.971   5.356  0.0105  0.4178  0.0521
11790TIP3    H156785   0.827   1.910   5.430  0.8701  0.1567 -0.1373
11790TIP3    H256786   0.919   1.970   5.326 -0.1272  1.2366 -0.4199
11791TIP3   OH256787   0.975   3.664  12.985 -0.5007  0.4813  0.7531
11791TIP3    H156788   1.018   3.587  12.949 -0.7119  0.1532  1.1914
11791TIP3    H256789   1.041   3.734  12.979  1.6663 -0.8679  4.9683
11792TIP3   OH256790   3.499   4.270   2.497  0.2043  0.3023  0.1039
11792TIP3    H156791   3.508   4.179   2.472  0.1292  0.3171  0.0215
11792TIP3    H256792   3.588   4.300   2.513  0.1981  0.1117  0.4988
11793TIP3   OH256793   3.830   5.974   5.754 -0.5725 -0.1212  0.4061
11793TIP3    H156794   3.844   6.015   5.669 -0.9221  2.5293  1.5291
11793TIP3    H256795   3.880   5.892   5.750  1.7418  1.2639 -1.3625
11794TIP3   OH256796   1.037   3.143   0.381  0.6576 -0.2743  0.4839
11794TIP3    H156797   1.025   3.076   0.448  0.2600 -0.5788  0.1202
11794TIP3    H256798   0.993   3.220   0.415  0.5761 -0.3872  0.6350
11795TIP3   OH256799   5.195   3.323   4.430  0.5769 -0.3207  0.1770
11795TIP3    H156800   5.164   3.233   4.416 -0.3328  0.0792 -0.5055
11795TIP3    H256801   5.166   3.344   4.519  0.8243 -0.7159  0.3536
11796TIP3   OH256802   0.979   4.091   5.249  0.4797  0.2386 -0.2288
11796TIP3    H156803   0.883   4.092   5.252  0.4316 -0.5753 -1.0713
11796TIP3    H256804   0.999   4.086   5.155  1.3959  2.9135 -0.2755
11797TIP3   OH256805   6.153   0.315  11.064  0.0477  0.0220  0.0659
11797TIP3    H156806   6.156   0.254  10.990 -1.0874 -0.2421  0.2153
11797TIP3    H256807   6.107   0.392  11.029 -0.1491  0.0529  0.3894
11798TIP3   OH256808   5.667   4.117   1.559  0.6432 -0.5275  0.4420
11798TIP3    H156809   5.756   4.097   1.530  0.6296  1.0959 -0.9254
11798TIP3    H256810   5.672   4.208   1.590 -0.8935  0.3786 -1.6941
11799TIP3   OH256811   4.418   2.682  12.449 -0.2066  0.1736 -0.1108
11799TIP3    H156812   4.480   2.664  12.378 -0.5959  0.2919 -0.4889
11799TIP3    H256813   4.351   2.614  12.440  0.1641 -0.3057  0.6582
11800TIP3   OH256814   3.959   4.729   2.289  0.1445 -0.3192  0.1863
11800TIP3    H156815   3.969   4.636   2.308  0.9441 -0.5317 -1.1527
11800TIP3    H256816   3.865   4.745   2.299  0.3967 -0.3533  4.1585
11801TIP3   OH256817   3.312   3.569   5.534 -0.6107  0.3320  0.0297
11801TIP3    H156818   3.312   3.650   5.483  1.2891  0.1465 -0.3537
11801TIP3    H256819   3.301   3.597   5.625 -1.6773  0.8662 -0.2544
11802TIP3   OH256820   0.217   5.632  16.449 -0.0301  0.3577 -0.5672
11802TIP3    H156821   0.127   5.603  16.436  0.6155 -2.0399 -0.1872
11802TIP3    H256822   0.211   5.727  16.459 -2.5251  0.2319 -0.3853
11803TIP3   OH256823   0.358   6.474  12.551  0.1032 -0.4872  0.4174
11803TIP3    H156824   0.296   6.402  12.560 -1.8884  0.8971 -1.3947
11803TIP3    H256825   0.398   6.461  12.465  1.8390 -0.9154  1.2309
11804TIP3   OH256826   5.592   2.164  12.720 -0.1568 -0.3005 -0.0860
11804TIP3    H156827   5.552   2.078  12.728 -1.5772  0.2096 -1.1993
11804TIP3    H256828   5.682   2.147  12.694 -0.4187 -1.4605 -0.2576
11805TIP3   OH256829   3.285   5.785   1.839  0.1303 -0.2250 -0.3505
11805TIP3    H156830   3.253   5.874   1.824  0.3530 -0.2322 -0.8795
11805TIP3    H256831   3.258   5.736   1.762  2.1323 -0.0285 -1.2600
11806TIP3   OH256832   4.454   0.636   0.942 -0.5087 -0.0738  0.1290
11806TIP3    H156833   4.448   0.546   0.910 -1.3957 -0.4623  1.2884
11806TIP3    H256834   4.483   0.627   1.033 -1.7246  0.7143  0.6214
11807TIP3   OH256835   5.034   4.554  13.816 -0.5981 -0.6208  0.0200
11807TIP3    H156836   5.071   4.559  13.904  0.7406 -1.1676 -0.4845
11807TIP3    H256837   5.010   4.645  13.795 -0.1310 -0.3545  0.6126
11808TIP3   OH256838   1.411   2.384   5.944  0.4770 -0.0493  0.4764
11808TIP3    H156839   1.371   2.423   6.021 -0.7762  0.3823 -0.3536
11808TIP3    H256840   1.376   2.295   5.941  0.4290 -0.0277  0.3560
11809TIP3   OH256841   5.687   5.369  11.411 -0.0651 -0.6945  0.4490
11809TIP3    H156842   5.744   5.354  11.487 -2.0530 -1.1516  1.9414
11809TIP3    H256843   5.601   5.387  11.449 -0.7526  0.9420 -1.6840
11810TIP3   OH256844   1.462   2.120   4.366 -0.3687  0.1038  0.0059
11810TIP3    H156845   1.529   2.186   4.383  0.9602 -1.0722 -0.4824
11810TIP3    H256846   1.393   2.139   4.429  1.7411 -0.4666  2.6962
11811TIP3   OH256847   0.420   2.340  11.955 -0.0518  0.2236 -0.1305
11811TIP3    H156848   0.420   2.346  12.050  1.2405  0.1447 -0.1047
11811TIP3    H256849   0.456   2.253  11.936  1.4258  0.9240 -0.6826
11812TIP3   OH256850   3.326   6.037  15.220 -0.5086 -0.2143  1.0169
11812TIP3    H156851   3.321   5.971  15.151  1.0361  1.1486 -0.5096
11812TIP3    H256852   3.393   6.004  15.280  1.1202  0.4201 -0.3633
11813TIP3   OH256853   6.568   4.107   6.096  0.1867  0.3433  0.0969
11813TIP3    H156854   6.562   4.138   6.187  1.9881  0.2006  0.3007
11813TIP3    H256855   6.633   4.037   6.099 -2.2610 -2.1563 -0.7214
11814TIP3   OH256856   1.629   2.273  15.346 -0.2335 -0.2184  0.3484
11814TIP3    H156857   1.546   2.298  15.388 -0.7506 -1.0512 -0.1420
11814TIP3    H256858   1.624   2.178  15.338 -0.4280 -0.0690 -2.0775
11815TIP3   OH256859   3.270   6.123  12.761 -0.2151 -0.3431 -0.0911
11815TIP3    H156860   3.195   6.182  12.769  0.1106  0.1217 -0.4163
11815TIP3    H256861   3.307   6.119  12.849 -0.6655 -0.6416  0.0908
11816TIP3   OH256862   1.408   2.082  16.776 -0.0199  0.4116 -0.1093
11816TIP3    H156863   1.421   2.010  16.838  1.2908 -0.6683 -1.5248
11816TIP3    H256864   1.467   2.061  16.703 -0.6153  2.2314 -1.1864
11817TIP3   OH256865   1.844   6.185  16.578 -0.1792  0.7113 -0.5234
11817TIP3    H156866   1.761   6.137  16.572  0.2179  0.0461 -0.7422
11817TIP3    H256867   1.907   6.131  16.530 -0.1911  2.5498 -2.7433
11818TIP3   OH256868   4.764   4.025  15.692 -0.1039 -0.1519  0.2192
11818TIP3    H156869   4.755   4.005  15.599  0.0210 -1.3222  0.4442
11818TIP3    H256870   4.854   4.003  15.712 -0.4372 -0.9879  0.8556
11819TIP3   OH256871   1.825   3.044  11.428  0.3809 -0.0132  0.0129
11819TIP3    H156872   1.753   3.045  11.491  0.8480  1.7047  0.5867
11819TIP3    H256873   1.868   3.128  11.440  1.0216  0.0037 -2.0359
11820TIP3   OH256874   0.052   3.006   5.972 -0.1659  0.1273 -0.6300
11820TIP3    H156875   0.052   2.981   6.065 -1.0107 -0.1199 -0.6876
11820TIP3    H256876  -0.021   2.957   5.934 -0.4220  0.9567 -1.2260
11821TIP3   OH256877   2.488   6.053  11.128  0.0859 -0.2506 -0.0202
11821TIP3    H156878   2.524   6.142  11.125  1.4737 -0.8254 -1.3730
11821TIP3    H256879   2.399   6.062  11.094 -0.4967  0.9064  1.6774
11822TIP3   OH256880   6.703   5.713  13.158 -0.1915  0.3044  0.1826
11822TIP3    H156881   6.746   5.747  13.236  2.4018 -0.1802 -0.9624
11822TIP3    H256882   6.685   5.790  13.104 -1.6422  0.5985  1.0417
11823TIP3   OH256883   6.057   4.830  16.427 -0.1235  0.5057 -0.4949
11823TIP3    H156884   6.120   4.792  16.487 -1.7664  0.6012  1.4094
11823TIP3    H256885   6.062   4.924  16.442  0.1782  0.6230 -1.2866
11824TIP3   OH256886   1.198   2.696  13.558  0.5699 -0.5524 -0.3301
11824TIP3    H156887   1.263   2.766  13.556  0.3754 -0.3724 -0.3409
11824TIP3    H256888   1.116   2.738  13.532  0.3926 -0.7175 -0.0463
11825TIP3   OH256889   1.094   4.736  11.280  0.0033  0.5168 -0.0861
11825TIP3    H156890   1.095   4.701  11.191 -2.8494  1.5121 -0.6202
11825TIP3    H256891   1.171   4.792  11.284  1.2598 -1.0048 -1.2311
11826TIP3   OH256892   6.470   6.448  16.526  0.2240  0.2348  0.1828
11826TIP3    H156893   6.517   6.391  16.466 -1.1609 -2.1904  1.2671
11826TIP3    H256894   6.472   6.534  16.484  1.3234 -0.8405 -2.1366
11827TIP3   OH256895   3.182   1.207  17.142  0.0334 -0.5644  0.3028
11827TIP3    H156896   3.271   1.239  17.126 -0.1870  0.0092  0.1805
11827TIP3    H256897   3.129   1.286  17.144 -0.2654 -0.7804  1.8459
11828TIP3   OH256898   1.514   4.490  11.165 -0.8873 -0.7197  0.2645
11828TIP3    H156899   1.571   4.430  11.117 -1.4145 -1.5224  0.6174
11828TIP3    H256900   1.441   4.506  11.105 -0.4872  0.0029 -0.0375
11829TIP3   OH256901   5.445   3.227  16.641  0.3946  0.3728 -0.3265
11829TIP3    H156902   5.397   3.157  16.598  1.1302 -0.2441 -0.1679
11829TIP3    H256903   5.535   3.194  16.647  0.6655  1.1689  0.1006
11830TIP3   OH256904   3.754   4.839   3.917 -0.0067 -0.0201 -0.1507
11830TIP3    H156905   3.666   4.803   3.916 -0.2823  0.5971 -1.8829
11830TIP3    H256906   3.742   4.933   3.929  0.2760  0.2749 -1.8709
11831TIP3   OH256907   3.143   5.920  11.620 -0.6015 -0.1241  0.7064
11831TIP3    H156908   3.135   5.949  11.530  1.0582 -0.4954  0.4000
11831TIP3    H256909   3.141   6.001  11.672  1.6634  0.4344  0.0480
11832TIP3   OH256910   6.661   2.673  13.707 -0.5742  0.3847  0.3274
11832TIP3    H156911   6.592   2.726  13.665 -0.9436  0.0676  0.5315
11832TIP3    H256912   6.614   2.612  13.763 -0.2271 -0.9571 -0.7804
11833TIP3   OH256913   3.084   0.209   7.201 -0.5385 -0.3397  0.4077
11833TIP3    H156914   3.112   0.126   7.163 -0.5221  0.6566 -1.9163
11833TIP3    H256915   3.035   0.184   7.279 -1.6739 -2.6206 -0.9180
11834TIP3   OH256916   0.400   5.458  11.708  0.0495 -0.5742  0.8533
11834TIP3    H156917   0.372   5.498  11.626 -1.0808 -0.1258  1.4235
11834TIP3    H256918   0.469   5.514  11.741  0.0000 -0.3422  0.5626
11835TIP3   OH256919   0.423   3.104   5.546  0.1508 -0.3022  0.3379
11835TIP3    H156920   0.388   3.145   5.468 -1.5226 -1.2559  0.5515
11835TIP3    H256921   0.466   3.024   5.514  1.4225  0.4217  0.1759
11836TIP3   OH256922   5.863   5.126  14.733 -0.2299 -0.3314  0.3987
11836TIP3    H156923   5.853   5.197  14.797 -0.3173 -0.0495  0.0779
11836TIP3    H256924   5.883   5.171  14.651 -0.6823 -0.6538  0.1041
11837TIP3   OH256925   5.298   1.450   5.940  0.1736  0.3831 -0.0355
11837TIP3    H156926   5.378   1.499   5.959  0.4380  0.3934 -1.0973
11837TIP3    H256927   5.302   1.432   5.846 -1.2845  0.7694 -0.2016
11838TIP3   OH256928   4.228   4.278   2.920 -0.8088 -0.3548  0.1050
11838TIP3    H156929   4.241   4.183   2.920  0.9442 -0.1824  1.5258
11838TIP3    H256930   4.204   4.299   2.830 -1.5585 -2.1765 -0.1581
11839TIP3   OH256931   3.065   4.604   5.903 -0.2686 -0.5610 -0.2901
11839TIP3    H156932   3.128   4.550   5.857 -0.4203 -0.7212 -0.3105
11839TIP3    H256933   3.090   4.694   5.881 -0.8188 -0.6455 -1.3325
11840TIP3   OH256934   3.390   5.459  15.059  0.0360 -0.5685 -0.1048
11840TIP3    H156935   3.367   5.525  15.124  0.9626 -0.1483 -0.1960
11840TIP3    H256936   3.313   5.454  15.002  0.2727  1.0683 -0.6146
11841TIP3   OH256937   2.795   4.001   4.481 -0.1760 -0.1021  0.0138
11841TIP3    H156938   2.866   3.938   4.464  1.0961  1.5304 -0.9729
11841TIP3    H256939   2.752   4.012   4.396  0.7516  1.6695 -0.2528
11842TIP3   OH256940   1.271   3.487   5.119 -0.3691 -0.1924  0.1674
11842TIP3    H156941   1.333   3.432   5.167 -0.0564  1.3277  1.6294
11842TIP3    H256942   1.253   3.439   5.039  0.9777 -1.7242  0.7207
11843TIP3   OH256943   4.059   0.769  15.688 -0.1548  0.0561  0.0249
11843TIP3    H156944   3.982   0.733  15.644 -0.9792 -0.3188  1.6773
11843TIP3    H256945   4.083   0.703  15.752  0.8599  0.6658  0.2925
11844TIP3   OH256946   1.239   3.253   5.348 -0.6086  0.2786 -0.1501
11844TIP3    H156947   1.319   3.205   5.369 -0.5183  1.3167  2.1455
11844TIP3    H256948   1.193   3.196   5.286  1.8223 -0.3726 -1.4768
11845TIP3   OH256949   3.910   3.626   1.308  0.5460  0.7706  0.0935
11845TIP3    H156950   3.871   3.576   1.381  0.7148 -0.8539 -0.8744
11845TIP3    H256951   3.835   3.655   1.257  0.4719  0.8506  0.2461
11846TIP3   OH256952   3.830   6.058  12.807  0.2867 -0.0287 -0.0999
11846TIP3    H156953   3.765   6.059  12.736 -0.3782 -1.8261  0.4108
11846TIP3    H256954   3.885   6.135  12.791 -1.3955  1.0330 -1.0909
11847TIP3   OH256955   2.325   4.412   5.932 -0.0055 -0.1396  0.5074
11847TIP3    H156956   2.381   4.489   5.921  0.4822 -0.4811  0.5730
11847TIP3    H256957   2.360   4.348   5.870  1.0116 -1.0993  2.0057
11848TIP3   OH256958   1.139   1.246  17.153 -0.5086  0.0020 -0.2752
11848TIP3    H156959   1.049   1.261  17.181 -0.7057 -0.7810 -0.4819
11848TIP3    H256960   1.190   1.251  17.235 -0.9602 -1.2775  0.1119
11849TIP3   OH256961   0.021   4.534   4.274 -0.0021 -0.0972  0.1388
11849TIP3    H156962   0.049   4.592   4.203 -0.9271  0.7474  0.4432
11849TIP3    H256963   0.012   4.448   4.232  0.1273  0.2449 -0.6124
11850TIP3   OH256964   5.373   3.698   2.178 -0.3261 -0.4045  0.6934
11850TIP3    H156965   5.358   3.702   2.272  1.3363 -0.9176  1.0090
11850TIP3    H256966   5.455   3.745   2.165 -1.1297  0.6871 -0.6675
11851TIP3   OH256967   2.162   0.007   3.235  0.3021  0.0280  0.1270
11851TIP3    H156968   2.168   0.019   3.140  2.3236 -0.2866  0.1691
11851TIP3    H256969   2.251  -0.017   3.262 -0.1929  0.2575  2.1326
11852TIP3   OH256970   2.784   0.463  11.233  1.1697  0.0262 -1.1633
11852TIP3    H156971   2.718   0.439  11.168  0.3300  2.0659 -1.1172
11852TIP3    H256972   2.865   0.472  11.183  0.6753  0.8844 -1.8266
11853TIP3   OH256973   4.114   4.041   2.490  1.0201  0.3233 -0.1810
11853TIP3    H156974   4.135   3.950   2.474 -1.5507 -0.3413 -0.2174
11853TIP3    H256975   4.129   4.085   2.406  2.5879  0.0234 -0.0699
11854TIP3   OH256976   6.708   1.399   4.278  0.0447 -0.1419  0.3738
11854TIP3    H156977   6.642   1.412   4.210  1.6883 -3.6261 -2.1953
11854TIP3    H256978   6.784   1.449   4.247  0.4435 -0.8644  0.1471
11855TIP3   OH256979   4.287   1.882  16.558  0.2102 -0.5737  0.4985
11855TIP3    H156980   4.227   1.925  16.497  0.2402  1.9212  2.0498
11855TIP3    H256981   4.321   1.807  16.510 -0.6845  0.5401 -2.0610
11856TIP3   OH256982   3.550   1.598  12.943  0.0399  0.4037  0.2737
11856TIP3    H156983   3.601   1.678  12.936 -0.1103  0.4411 -0.4882
11856TIP3    H256984   3.526   1.593  13.036  0.8597  0.7257  0.5134
11857TIP3   OH256985   2.851   1.766  17.365  0.2538  0.0369 -0.0325
11857TIP3    H156986   2.907   1.693  17.338 -0.3905 -0.2086 -0.7450
11857TIP3    H256987   2.893   1.843  17.327  0.2294 -0.1229 -0.3923
11858TIP3   OH256988   0.008   4.616   4.925 -0.1133  0.1649 -0.4833
11858TIP3    H156989  -0.007   4.686   4.988 -0.9253 -0.7685  0.3897
11858TIP3    H256990   0.059   4.657   4.855  1.3477  1.1020  1.0526
11859TIP3   OH256991   2.266   5.633   5.109  0.2533 -0.0010 -0.1854
11859TIP3    H156992   2.339   5.674   5.155 -0.0506 -1.3739  1.6719
11859TIP3    H256993   2.188   5.660   5.158 -0.4266  0.8320 -1.6771
11860TIP3   OH256994   2.261   3.527   2.998  0.2526  0.2399  0.2310
11860TIP3    H156995   2.317   3.563   2.930  0.6750  0.0634  0.4839
11860TIP3    H256996   2.220   3.604   3.038  0.7979  0.4118  0.4638
11861TIP3   OH256997   5.432   6.189   3.539 -0.1061  0.0461  0.3484
11861TIP3    H156998   5.440   6.093   3.543  1.1917  0.1118 -0.3561
11861TIP3    H256999   5.338   6.204   3.532 -0.5676 -1.0633  2.9752
11862TIP3   OH257000   2.499   0.869   5.903 -0.6499  0.7177 -0.2478
11862TIP3    H157001   2.423   0.837   5.854 -1.1886  2.1796 -0.3918
11862TIP3    H257002   2.502   0.963   5.885  0.7946  0.8012  0.3118
11863TIP3   OH257003   0.840   2.632   3.133  0.1279 -0.0704 -0.6058
11863TIP3    H157004   0.915   2.692   3.130  0.1433  0.2550  2.6789
11863TIP3    H257005   0.875   2.550   3.099  1.6942  0.3552 -0.1458
11864TIP3   OH257006   4.543   1.291   1.249  0.1339  0.5916 -0.5898
11864TIP3    H157007   4.556   1.363   1.310  1.7114 -0.6389  0.6281
11864TIP3    H257008   4.468   1.243   1.284 -0.0763  0.8860 -0.6371
11865TIP3   OH257009   6.031   1.900  14.414 -0.1325  0.1317  0.1217
11865TIP3    H157010   6.051   1.840  14.487 -1.1936 -0.0058  0.3189
11865TIP3    H257011   5.935   1.900  14.410 -0.1768  2.2260  0.4525
11866TIP3   OH257012   0.100   6.446   2.558 -0.2658 -0.4758  0.0613
11866TIP3    H157013   0.046   6.482   2.628 -0.6552  1.3297 -1.0937
11866TIP3    H257014   0.158   6.384   2.601  0.3262  1.4270  2.1947
11867TIP3   OH257015   0.216   1.317  13.578  0.0408 -0.2902 -0.7783
11867TIP3    H157016   0.305   1.283  13.586  0.8629  1.8113 -0.3425
11867TIP3    H257017   0.201   1.321  13.483 -0.1956 -2.0257 -0.8489
11868TIP3   OH257018   5.423   4.561   4.719 -0.7550 -0.7991 -0.8972
11868TIP3    H157019   5.443   4.654   4.722 -1.6209 -0.6380  0.1215
11868TIP3    H257020   5.353   4.549   4.782 -2.4975 -1.6906 -2.8894
11869TIP3   OH257021   6.591   5.133   4.525 -0.0531 -0.7037  0.1652
11869TIP3    H157022   6.522   5.200   4.520  0.0695 -0.5940 -0.0647
11869TIP3    H257023   6.571   5.072   4.454 -0.5661 -1.3015  0.8090
11870TIP3   OH257024   1.962   2.421   2.401 -0.3092  0.3126 -0.4664
11870TIP3    H157025   1.895   2.443   2.337  0.5740  0.6826 -1.2960
11870TIP3    H257026   2.024   2.366   2.353  0.5062  0.8208 -0.0148
11871TIP3   OH257027   3.079   5.498  11.814 -0.4047  0.1643 -0.2336
11871TIP3    H157028   3.049   5.552  11.741  0.6364  0.6283 -0.3408
11871TIP3    H257029   3.129   5.427  11.772  0.3654  0.5438  0.0246
11872TIP3   OH257030   2.949   6.027  14.996 -0.3724  0.0954 -0.5252
11872TIP3    H157031   3.037   6.054  14.970  0.1504 -0.7037  0.3203
11872TIP3    H257032   2.933   6.074  15.079  0.5654 -2.0845  0.9830
11873TIP3   OH257033   2.479   0.066   4.231 -0.3790 -0.0506  0.1155
11873TIP3    H157034   2.441  -0.013   4.192 -2.2901  0.9092 -0.0848
11873TIP3    H257035   2.508   0.119   4.157 -0.8843  0.2826  0.1532
11874TIP3   OH257036   3.839   4.307   2.305 -0.0090  0.5218 -0.8413
11874TIP3    H157037   3.821   4.388   2.256  4.9076  1.8985 -0.9323
11874TIP3    H257038   3.813   4.326   2.394  1.1113  2.3523 -0.8519
11875TIP3   OH257039   6.010   3.296  17.339  0.3047 -0.4048 -0.0259
11875TIP3    H157040   5.979   3.349  17.413 -0.0141 -1.4916  0.6562
11875TIP3    H257041   6.017   3.208  17.375  0.6953 -0.8554 -1.1617
11876TIP3   OH257042   0.655   1.775   4.181 -0.4276 -0.0426 -0.0870
11876TIP3    H157043   0.690   1.864   4.171 -0.2299 -0.2514 -1.4795
11876TIP3    H257044   0.646   1.743   4.091 -2.7550 -0.5609  0.2486
11877TIP3   OH257045   5.449   5.026   1.719  0.5323  0.6470  0.3004
11877TIP3    H157046   5.439   4.978   1.636 -0.6735 -0.1790  0.8866
11877TIP3    H257047   5.484   5.111   1.693  1.6331 -0.1394 -0.8902
11878TIP3   OH257048   3.345   1.061   1.621  0.4823 -0.2641  0.4267
11878TIP3    H157049   3.318   1.138   1.671 -0.1050 -0.1017 -0.1240
11878TIP3    H257050   3.433   1.042   1.652  0.1320 -0.1730  1.5274
11879TIP3   OH257051   2.585   4.099   3.288 -0.1938  0.4666  0.0284
11879TIP3    H157052   2.494   4.122   3.267  0.2738  1.2908 -1.2092
11879TIP3    H257053   2.590   4.005   3.274  0.0283  0.8920 -3.6745
11880TIP3   OH257054   5.776   3.195  16.580 -0.7290 -0.0989 -0.1231
11880TIP3    H157055   5.755   3.240  16.662 -1.9463  0.1154 -0.5474
11880TIP3    H257056   5.783   3.102  16.605  0.0430  0.0909  0.4190
11881TIP3   OH257057   5.094   5.767   2.666  0.0568 -0.3515  0.4047
11881TIP3    H157058   5.031   5.823   2.621  1.0083 -0.5345 -1.2404
11881TIP3    H257059   5.172   5.821   2.676  0.8331 -1.1794 -0.7980
11882TIP3   OH257060   0.827   0.808  16.202  0.8232 -0.1853  0.6832
11882TIP3    H157061   0.751   0.761  16.237  1.1785 -0.4815  1.0513
11882TIP3    H257062   0.806   0.901  16.217 -1.2330  0.0618 -2.6701
11883TIP3   OH257063   5.897   4.402   1.624 -0.3844  0.1200  0.3031
11883TIP3    H157064   5.881   4.493   1.648 -1.2332  0.4881 -1.5254
11883TIP3    H257065   5.950   4.367   1.696 -2.0965  1.3627  2.2829
11884TIP3   OH257066   2.866   3.466   5.033  0.1638 -0.2550 -0.8075
11884TIP3    H157067   2.839   3.381   5.066  0.7036 -0.5015 -0.9883
11884TIP3    H257068   2.922   3.446   4.958 -0.1986  0.2710 -1.2275
11885TIP3   OH257069   5.242   1.192  16.744 -0.2635  0.4113  0.0537
11885TIP3    H157070   5.159   1.195  16.695  0.3136 -1.1441 -1.1374
11885TIP3    H257071   5.263   1.283  16.763 -2.5751  0.8214  1.0051
11886TIP3   OH257072   6.333   1.990  14.067  0.1348 -0.2967  0.1807
11886TIP3    H157073   6.399   2.031  14.010 -0.4314 -0.1416 -0.3711
11886TIP3    H257074   6.313   2.057  14.133  0.9901 -0.5732  0.7416
11887TIP3   OH257075   1.559   2.509  15.753 -0.1655  0.3410 -0.2125
11887TIP3    H157076   1.585   2.601  15.758  0.8411  0.3557 -3.5419
11887TIP3    H257077   1.641   2.461  15.752 -0.6848 -0.7231  1.9072
11888TIP3   OH257078   0.007   6.479   2.127 -0.4270  0.9256  0.7070
11888TIP3    H157079   0.098   6.460   2.107 -1.0160 -1.4332 -0.0001
11888TIP3    H257080  -0.031   6.506   2.043 -0.5264  1.3054  0.8721
11889TIP3   OH257081   0.924   4.296  14.258  0.4154 -0.4284  0.1178
11889TIP3    H157082   0.919   4.204  14.286  1.3282  0.0122  1.8254
11889TIP3    H257083   0.874   4.298  14.176 -1.8468 -1.9329  1.3384
11890TIP3   OH257084   6.026   0.284  14.985  0.0025  0.5090  0.5440
11890TIP3    H157085   6.059   0.373  14.973 -0.3327  0.3232 -2.4550
11890TIP3    H257086   5.989   0.284  15.073  0.6068  3.1424  0.8718
11891TIP3   OH257087   5.380   1.488  14.837 -0.1544  0.0280  0.3446
11891TIP3    H157088   5.297   1.496  14.883 -0.5968 -1.0036 -0.2575
11891TIP3    H257089   5.380   1.400  14.800  0.9576  0.2094 -0.1523
11892TIP3   OH257090   6.646   5.245  15.106 -0.8065  0.1011  0.3132
11892TIP3    H157091   6.661   5.151  15.101 -0.7901  0.1175  0.0517
11892TIP3    H257092   6.673   5.269  15.195 -0.6769 -0.1176  0.3336
11893TIP3   OH257093   3.502   4.117  12.788 -0.0615  0.1309 -0.2262
11893TIP3    H157094   3.497   4.122  12.883  2.9612 -1.5658  0.1622
11893TIP3    H257095   3.455   4.037  12.766  1.3750 -0.8576  0.1794
11894TIP3   OH257096   3.283   0.391   0.508  0.7498  0.0328  0.1695
11894TIP3    H157097   3.366   0.430   0.535  1.6018 -1.9257  0.5973
11894TIP3    H257098   3.230   0.389   0.588  0.7753  0.1699  0.1891
11895TIP3   OH257099   3.762   1.304  12.679 -0.2671 -0.1529  0.2126
11895TIP3    H157100   3.681   1.253  12.688  1.3979 -2.9132  0.9240
11895TIP3    H257101   3.788   1.293  12.588  0.6803 -1.6784  0.6260
11896TIP3   OH257102   1.320   6.415  13.154  0.3445  0.0899 -0.5185
11896TIP3    H157103   1.366   6.499  13.163 -0.0563  0.1889  0.8676
11896TIP3    H257104   1.228   6.439  13.143  0.4350 -0.1433 -1.9454
11897TIP3   OH257105   5.998   6.746  12.340 -0.2798 -0.1488 -0.0560
11897TIP3    H157106   5.950   6.825  12.364  0.0452  0.6689 -1.9318
11897TIP3    H257107   6.025   6.760  12.249  1.9697 -1.3323  0.3390
11898TIP3   OH257108   2.383   5.160   1.695 -0.4401  0.2154  0.6736
11898TIP3    H157109   2.392   5.207   1.778 -0.4835 -1.8598  1.9099
11898TIP3    H257110   2.446   5.203   1.637 -0.1592  1.4942  1.8697
11899TIP3   OH257111   0.565   4.952  16.393  0.1417  0.0676 -0.3433
11899TIP3    H157112   0.559   4.963  16.488  0.2597  0.3487 -0.3666
11899TIP3    H257113   0.578   4.858  16.380 -0.9540 -0.1219 -0.1338
11900TIP3   OH257114   6.685   6.573  15.116  0.2979 -0.2293 -0.1449
11900TIP3    H157115   6.707   6.505  15.180 -1.2698 -1.7598 -1.1601
11900TIP3    H257116   6.724   6.543  15.034 -0.1956  0.2128 -0.5502
11901TIP3   OH257117   3.948   3.863   4.621 -0.1429 -0.1609 -0.3545
11901TIP3    H157118   3.933   3.879   4.714  0.0737 -1.4597 -0.0746
11901TIP3    H257119   3.925   3.945   4.578 -1.4785  0.0565  0.7139
11902TIP3   OH257120   3.418   2.632   1.974 -0.1604  0.1026  0.4266
11902TIP3    H157121   3.350   2.685   2.015 -0.3353  0.1613  0.0702
11902TIP3    H257122   3.471   2.599   2.046 -0.0648  0.7447  0.6531
11903TIP3   OH257123   5.410   1.870  13.625  0.3189  0.0028 -0.6648
11903TIP3    H157124   5.442   1.959  13.608  1.0977 -0.4302 -1.5602
11903TIP3    H257125   5.374   1.841  13.542  2.0250 -1.2907 -1.0102
11904TIP3   OH257126   5.455   0.437   6.575 -0.4551 -0.6116 -0.0186
11904TIP3    H157127   5.474   0.391   6.493  1.3305  0.5357 -0.3185
11904TIP3    H257128   5.437   0.527   6.547  0.8628 -0.0394  0.8494
11905TIP3   OH257129   6.551   1.402  14.268 -0.2267 -0.3083 -0.0228
11905TIP3    H157130   6.511   1.488  14.285 -0.4140 -0.1633 -1.1514
11905TIP3    H257131   6.589   1.377  14.353 -1.2939  0.2904  0.6520
11906TIP3   OH257132   4.454   3.909   2.789  0.6427 -0.2430 -0.2763
11906TIP3    H157133   4.435   3.846   2.719 -0.0086 -1.4330  0.9422
11906TIP3    H257134   4.496   3.983   2.743 -0.1525 -0.7930 -1.9760
11907TIP3   OH257135   6.152   1.077  13.541 -0.1016 -0.2372 -0.0095
11907TIP3    H157136   6.106   0.999  13.570  0.3234  0.0519  1.5319
11907TIP3    H257137   6.136   1.141  13.610  0.4027  0.7161 -0.7518
11908TIP3   OH257138   4.313   4.467   3.796 -0.1787  0.2130  0.1666
11908TIP3    H157139   4.341   4.378   3.815 -0.6182  0.0594  0.1168
11908TIP3    H257140   4.232   4.457   3.746 -1.1845  0.6296  1.6138
11909TIP3   OH257141   6.340   1.910  13.130 -0.0947  0.2570  0.0289
11909TIP3    H157142   6.434   1.930  13.129 -0.5247  2.5447 -1.2171
11909TIP3    H257143   6.306   1.962  13.203 -0.0063 -3.2032  2.7832
11910TIP3   OH257144   4.756   3.781   5.483 -0.4168  0.7927 -0.3606
11910TIP3    H157145   4.840   3.800   5.525 -1.1643  0.9750  1.1035
11910TIP3    H257146   4.743   3.687   5.497 -0.8426  0.9235  0.2054
11911TIP3   OH257147   4.183   5.876  14.880 -0.7168 -0.0224  0.2191
11911TIP3    H157148   4.267   5.832  14.890 -0.0417  0.7018 -1.7988
11911TIP3    H257149   4.171   5.926  14.961  1.3685  0.8100  0.0628
11912TIP3   OH257150   0.301   6.198   5.114  0.4570 -0.7478 -0.2919
11912TIP3    H157151   0.249   6.135   5.164 -0.1036 -0.4459 -0.4777
11912TIP3    H257152   0.385   6.202   5.160 -0.8974  1.5325  2.3521
11913TIP3   OH257153   6.317   6.112  16.474 -0.3209 -0.4384 -0.0525
11913TIP3    H157154   6.235   6.135  16.431 -0.7922 -0.2548  0.9032
11913TIP3    H257155   6.335   6.022  16.446 -1.5752 -0.9789  0.7739
11914TIP3   OH257156   2.437   6.150   4.910 -0.3899 -0.2154  0.1276
11914TIP3    H157157   2.341   6.152   4.910 -0.4035 -0.6316 -0.3617
11914TIP3    H257158   2.461   6.163   5.001 -0.8643  1.7403  0.0140
11915TIP3   OH257159   2.052   3.646   5.512 -0.0704 -0.1514 -0.7660
11915TIP3    H157160   2.074   3.722   5.458 -0.2511  0.0401 -0.5744
11915TIP3    H257161   2.103   3.574   5.474 -1.6614 -0.4762 -2.4182
11916TIP3   OH257162   3.090   1.880  12.721 -0.1102  0.0063  0.4379
11916TIP3    H157163   3.114   1.899  12.812  2.0836 -1.2725  0.2042
11916TIP3    H257164   3.004   1.920  12.710  0.7926  2.7849  2.2037
11917TIP3   OH257165   1.562   0.913  12.374  0.1221  0.0365  0.2640
11917TIP3    H157166   1.483   0.966  12.386  0.5573  0.6117  0.6280
11917TIP3    H257167   1.591   0.894  12.463  1.6339  1.7018  0.1702
11918TIP3   OH257168   4.492   1.879   2.366  0.0780  0.6048  0.0458
11918TIP3    H157169   4.469   1.883   2.459  1.9574  0.6752  0.5506
11918TIP3    H257170   4.485   1.787   2.343  0.5668  0.4437  0.5298
11919TIP3   OH257171   4.499   0.149  11.908 -0.2214  0.4287 -0.0094
11919TIP3    H157172   4.423   0.154  11.966 -0.3897  1.8519 -0.3166
11919TIP3    H257173   4.461   0.137  11.821  0.0088 -1.1103  0.0859
11920TIP3   OH257174   6.596   5.131  17.113  1.0167 -0.4835 -0.4249
11920TIP3    H157175   6.689   5.116  17.128  0.6013 -3.1636  0.0102
11920TIP3    H257176   6.587   5.132  17.017  1.5350  0.3955 -0.4768
11921TIP3   OH257177   2.739   5.963   3.126  0.1929 -0.4818  0.8619
11921TIP3    H157178   2.794   5.999   3.057  1.5198 -0.4131  1.9204
11921TIP3    H257179   2.663   5.927   3.080  0.8573 -0.1015 -0.5814
11922TIP3   OH257180   4.322   4.604   0.234  0.4056 -0.3733 -0.0344
11922TIP3    H157181   4.260   4.537   0.264  0.1488 -1.3629 -2.5438
11922TIP3    H257182   4.279   4.687   0.256 -2.3812 -0.9918 -2.4809
11923TIP3   OH257183   4.106   1.808   3.056  0.0590  0.2085 -0.7960
11923TIP3    H157184   4.093   1.726   3.008  0.3720 -2.0751  2.6301
11923TIP3    H257185   4.060   1.795   3.138  2.2504  2.4187  0.9456
11924TIP3   OH257186   1.830   3.038  12.531 -1.0073 -0.9040  0.1014
11924TIP3    H157187   1.899   3.021  12.595 -0.4247  0.9028  0.0101
11924TIP3    H257188   1.821   3.133  12.530 -2.9370 -1.0420 -0.4987
11925TIP3   OH257189   2.842   1.065  12.224  0.4656  0.8668 -0.0949
11925TIP3    H157190   2.841   1.156  12.253 -0.8734  0.1201  2.4792
11925TIP3    H257191   2.925   1.030  12.256  0.5367  0.9246 -0.2155
11926TIP3   OH257192   2.300   1.618   2.012 -0.3868 -0.1787  0.4224
11926TIP3    H157193   2.249   1.579   2.083  0.4391  0.7449  1.5479
11926TIP3    H257194   2.312   1.709   2.038  2.5149 -0.5331  0.6278
11927TIP3   OH257195   2.738   2.130  14.729 -0.1451  0.3364  0.0961
11927TIP3    H157196   2.723   2.036  14.737 -1.1383  0.5465  0.8594
11927TIP3    H257197   2.746   2.161  14.819 -0.8199  1.1271 -0.0995
11928TIP3   OH257198   3.319   0.811  16.796 -0.0002 -0.2743  0.4593
11928TIP3    H157199   3.324   0.741  16.862  0.4592 -0.2568  0.4485
11928TIP3    H257200   3.384   0.875  16.824 -1.2687  0.7493  1.1418
11929TIP3   OH257201   4.295   5.896   3.146  0.5748 -0.3925 -0.3731
11929TIP3    H157202   4.355   5.858   3.211  0.8093 -0.9249 -0.8930
11929TIP3    H257203   4.349   5.955   3.094 -0.3038  2.8708  2.1235
11930TIP3   OH257204   2.566   2.984  14.880 -0.0525 -0.0841 -0.1515
11930TIP3    H157205   2.588   2.894  14.856  3.3742  0.2782  1.0928
11930TIP3    H257206   2.586   3.035  14.802 -1.1132 -0.2447 -0.5502
11931TIP3   OH257207   3.466   0.660  17.320  0.2831 -0.1175  0.0972
11931TIP3    H157208   3.456   0.643  17.227 -3.8861  0.1882  0.3092
11931TIP3    H257209   3.433   0.582  17.363  1.5028  0.0145  1.3618
11932TIP3   OH257210   3.142   2.038   2.212  0.2835 -0.2530  0.4076
11932TIP3    H157211   3.072   1.973   2.213 -0.0875  0.1439  0.9569
11932TIP3    H257212   3.128   2.087   2.131  0.0174 -0.2683  0.4446
11933TIP3   OH257213   6.555   3.895   0.432 -0.2376  0.3816  0.0722
11933TIP3    H157214   6.489   3.951   0.391 -0.6595  0.4916  0.8613
11933TIP3    H257215   6.629   3.895   0.372 -0.6747  0.8712 -0.4700
11934TIP3   OH257216   6.607   5.577   1.151  0.1298 -0.0657 -0.5135
11934TIP3    H157217   6.649   5.540   1.229 -0.6183 -2.9481 -1.3369
11934TIP3    H257218   6.649   5.531   1.078 -0.1950  1.5144 -1.7432
11935TIP3   OH257219   2.201   5.266   2.474 -0.1975 -0.0316 -0.4192
11935TIP3    H157220   2.214   5.171   2.478 -0.9671 -0.1668 -0.8990
11935TIP3    H257221   2.123   5.281   2.528 -1.0554  0.1048 -1.6451
11936TIP3   OH257222   5.082   0.847   5.245  0.3534  0.4567 -0.1973
11936TIP3    H157223   5.029   0.781   5.290 -0.2718  2.2571  1.9065
11936TIP3    H257224   5.037   0.860   5.162  0.7573 -2.0208 -0.8764
11937TIP3   OH257225   3.469   4.815   0.610 -0.0989  0.3432  0.1880
11937TIP3    H157226   3.431   4.835   0.525  0.3151  1.9890  0.3677
11937TIP3    H257227   3.448   4.722   0.624 -3.9827  1.0545  0.2530
11938TIP3   OH257228   0.178   2.112  12.958 -0.5390  0.5105  0.0619
11938TIP3    H157229   0.159   2.193  12.910  0.6107  0.8898  0.2015
11938TIP3    H257230   0.261   2.131  13.003  0.4291 -1.1857 -0.9208
11939TIP3   OH257231   2.506   4.135   2.517 -0.3355  0.1907  0.0806
11939TIP3    H157232   2.541   4.080   2.586  1.1151  0.5854 -0.3031
11939TIP3    H257233   2.490   4.220   2.559  0.2798  0.3483  0.0054
11940TIP3   OH257234   3.555   6.364  15.624  0.4457  0.2887 -0.1298
11940TIP3    H157235   3.477   6.419  15.626  0.5101  0.4747 -1.6628
11940TIP3    H257236   3.577   6.356  15.531  1.7613 -0.4580  0.2136
11941TIP3   OH257237   4.894   5.431   4.045  0.8571 -0.0128 -0.1017
11941TIP3    H157238   4.846   5.484   4.109  0.1342 -1.3441  0.5002
11941TIP3    H257239   4.985   5.458   4.055  0.3594  2.1700 -0.8744
11942TIP3   OH257240   6.305   1.944   5.498  0.3353  0.3993 -0.1452
11942TIP3    H157241   6.380   1.933   5.556  0.9453  1.6039 -0.6748
11942TIP3    H257242   6.331   1.899   5.417  1.4976  2.7245 -1.1580
11943TIP3   OH257243   4.297   4.900  16.282  0.9017 -0.4530 -0.8065
11943TIP3    H157244   4.288   4.917  16.375  0.7519 -0.8557 -0.7480
11943TIP3    H257245   4.365   4.961  16.253  0.7567 -0.1421 -0.4896
11944TIP3   OH257246   1.673   4.765  12.629  0.0926 -0.1001 -0.3365
11944TIP3    H157247   1.717   4.747  12.712 -0.3612  0.5301  0.0458
11944TIP3    H257248   1.638   4.680  12.602 -0.8179 -0.0907  0.7407
11945TIP3   OH257249   2.967   3.712  14.432 -0.1694 -0.1335 -0.1371
11945TIP3    H157250   3.000   3.782  14.375  0.9491  0.0624  0.7163
11945TIP3    H257251   3.044   3.682  14.479 -1.0750 -0.2328  1.3321
11946TIP3   OH257252   5.377   5.056  12.252  0.4968 -0.1774  0.4959
11946TIP3    H157253   5.307   5.033  12.313 -0.6516  1.1627 -0.2511
11946TIP3    H257254   5.344   5.134  12.206  2.7446  0.8874  0.5511
11947TIP3   OH257255   6.260   5.443  17.319 -0.0947  0.8745  0.1348
11947TIP3    H157256   6.291   5.460  17.408  0.2254  0.5218  0.0938
11947TIP3    H257257   6.331   5.394  17.278 -0.7937 -0.1670  0.1155
11948TIP3   OH257258   4.491   1.421   0.799 -0.0524 -0.1183  0.4747
11948TIP3    H157259   4.416   1.481   0.795 -0.9868 -1.2727 -0.2540
11948TIP3    H257260   4.547   1.448   0.727 -1.9065 -1.8496 -1.7833
11949TIP3   OH257261   5.438   3.107  12.702  0.2978  0.3354  0.3477
11949TIP3    H157262   5.448   3.017  12.670  0.1661  0.3702  0.2082
11949TIP3    H257263   5.409   3.097  12.793  1.5330  0.2315  0.7566
11950TIP3   OH257264   0.207   4.312   2.339  0.0521 -0.1773 -0.1200
11950TIP3    H157265   0.205   4.315   2.434 -1.0110 -1.8490 -0.0520
11950TIP3    H257266   0.298   4.292   2.318  0.3077  0.2596  0.5314
11951TIP3   OH257267   4.051   3.505  11.510  0.0336  0.4169  0.4552
11951TIP3    H157268   4.062   3.507  11.415  2.3370 -1.7784  0.5669
11951TIP3    H257269   4.101   3.580  11.542 -0.9303  1.2951 -0.0250
11952TIP3   OH257270   3.523   6.500   5.915 -0.2641 -0.3251  0.5790
11952TIP3    H157271   3.581   6.522   5.988  0.3736 -0.6663  0.1769
11952TIP3    H257272   3.507   6.406   5.925 -2.0127  0.0374  1.5902
11953TIP3   OH257273   1.168   3.907   4.738 -0.1866  0.0752 -0.1907
11953TIP3    H157274   1.198   3.946   4.656 -1.7256  1.6716 -0.0521
11953TIP3    H257275   1.246   3.869   4.778  0.6782 -0.3061 -2.1490
11954TIP3   OH257276   3.906   4.513  11.881 -0.0306  0.0160  0.1282
11954TIP3    H157277   3.939   4.435  11.926  0.5217  0.2554  0.1376
11954TIP3    H257278   3.833   4.480  11.828 -0.2632 -0.3779  0.6901
11955TIP3   OH257279   5.672   1.902  12.992 -0.2786  0.4915  0.2136
11955TIP3    H157280   5.622   1.963  13.046  1.2593 -0.6259  3.0681
11955TIP3    H257281   5.762   1.935  12.996  0.2487 -0.9144  0.2161
11956TIP3   OH257282   3.726   6.706  11.892  0.0337  0.5007  0.3525
11956TIP3    H157283   3.708   6.750  11.809 -0.0183 -0.1259  0.0257
11956TIP3    H257284   3.703   6.771  11.959  1.6498  1.6134 -0.1108
11957TIP3   OH257285   4.803   0.262  13.993 -0.1184 -0.2316 -0.2255
11957TIP3    H157286   4.730   0.229  13.940 -0.6005  0.0175  0.2724
11957TIP3    H257287   4.811   0.354  13.968 -0.1597 -0.1871 -0.0748
11958TIP3   OH257288   4.072   3.723  14.332 -0.3008  0.2362 -0.0623
11958TIP3    H157289   4.029   3.757  14.253 -0.5264  0.6791  0.2506
11958TIP3    H257290   4.166   3.737  14.316 -0.3729  0.7184 -0.0677
11959TIP3   OH257291   5.892   2.197   5.758 -0.3568 -0.1636  0.6082
11959TIP3    H157292   5.985   2.187   5.775  0.0300  2.2805  0.3092
11959TIP3    H257293   5.850   2.184   5.843  0.1477 -2.0556  0.5959
11960TIP3   OH257294   6.243   4.411   3.376  0.4614  0.3606  0.0903
11960TIP3    H157295   6.175   4.423   3.310  0.3208  2.6335  0.5771
11960TIP3    H257296   6.268   4.319   3.367 -0.1184  0.3761 -2.5478
11961TIP3   OH257297   2.915   3.935  17.019 -0.3424 -0.1789  0.6164
11961TIP3    H157298   2.845   3.882  17.056 -0.2099  0.1084  1.2984
11961TIP3    H257299   2.989   3.875  17.010 -0.6132 -0.4389  0.0613
11962TIP3   OH257300   5.800   5.028   0.534  0.2935 -0.0184  0.7082
11962TIP3    H157301   5.822   5.013   0.442 -1.3504  1.2481  0.0539
11962TIP3    H257302   5.856   4.967   0.582 -0.7641 -2.7753 -1.2823
11963TIP3   OH257303   1.069   0.280   4.157  0.5271 -0.2972 -0.2419
11963TIP3    H157304   1.070   0.197   4.204  0.0597  0.2261  0.7251
11963TIP3    H257305   0.979   0.290   4.127  0.1179  0.6826  1.2020
11964TIP3   OH257306   1.912   0.513   3.969 -0.2835  0.2129 -0.6324
11964TIP3    H157307   1.958   0.592   3.998 -0.7734 -0.2358  1.6065
11964TIP3    H257308   1.825   0.520   4.010 -1.0305 -0.5634 -2.0087
11965TIP3   OH257309   2.836   5.898  14.784  0.0299 -0.0933  0.4222
11965TIP3    H157310   2.878   5.939  14.860 -1.1686 -0.3747  1.2746
11965TIP3    H257311   2.743   5.897  14.806 -0.8054  2.6280 -2.3734
11966TIP3   OH257312   0.687   4.450   5.638  0.3008  0.1261 -0.3603
11966TIP3    H157313   0.647   4.511   5.701  0.5723 -1.3539  1.3125
11966TIP3    H257314   0.690   4.500   5.556 -1.6344  1.5462  0.3466
11967TIP3   OH257315   4.326   2.197   3.577 -0.1714 -0.4207 -0.0213
11967TIP3    H157316   4.282   2.131   3.631  1.3609 -1.3127  0.1861
11967TIP3    H257317   4.324   2.160   3.489  0.9655 -0.9082  0.1482
11968TIP3   OH257318   5.421   3.016   0.944 -0.0938  0.3402  0.1242
11968TIP3    H157319   5.439   3.102   0.983 -2.0090  0.6682  0.4232
11968TIP3    H257320   5.436   3.028   0.851 -0.1162  0.9433  0.1917
11969TIP3   OH257321   5.968   2.850   6.077  0.1844 -0.3482 -0.6405
11969TIP3    H157322   5.954   2.830   5.984 -1.2112  0.3918 -0.6263
11969TIP3    H257323   6.022   2.779   6.109  0.1061 -0.9949 -1.8672
11970TIP3   OH257324   3.339   2.681  10.839 -0.8364  0.0664  0.1582
11970TIP3    H157325   3.375   2.601  10.801  0.2382  1.1542 -1.2617
11970TIP3    H257326   3.415   2.738  10.850 -1.6641  1.1416  0.4553
11971TIP3   OH257327   6.647   1.948   5.336 -0.3397  0.3178  0.2634
11971TIP3    H157328   6.734   1.962   5.376 -0.0731 -0.0055 -0.1918
11971TIP3    H257329   6.649   1.856   5.308 -1.7121 -0.4233  2.3852
11972TIP3   OH257330   1.923   5.983  13.717  1.2083  0.0516 -0.2554
11972TIP3    H157331   1.945   6.077  13.718 -0.8658  0.6419 -1.8037
11972TIP3    H257332   1.894   5.964  13.806 -1.3517  1.7790 -0.5933
11973TIP3   OH257333   5.215   6.301   6.957 -0.0141 -0.2012  0.1469
11973TIP3    H157334   5.240   6.259   6.875 -0.0100  0.0037  0.0427
11973TIP3    H257335   5.248   6.391   6.950  0.1377 -0.2327  0.4462
11974TIP3   OH257336   4.121   3.356   0.201  0.3941 -0.0041  0.0606
11974TIP3    H157337   4.201   3.309   0.224  0.3767  0.2957  0.7607
11974TIP3    H257338   4.132   3.377   0.108  0.8009 -0.5946 -0.0324
11975TIP3   OH257339   3.720   4.764  14.474 -0.2097 -0.3314 -0.1097
11975TIP3    H157340   3.740   4.723  14.390  1.7548  0.9779 -0.3585
11975TIP3    H257341   3.754   4.703  14.540 -0.2702 -0.6051 -0.3328
11976TIP3   OH257342   5.933   2.907  15.453  0.0659  0.0762 -0.1054
11976TIP3    H157343   5.994   2.939  15.519 -0.3529 -1.2437  0.9667
11976TIP3    H257344   5.850   2.947  15.475 -0.2407 -0.9447  0.6443
11977TIP3   OH257345   6.261   3.355  15.819  0.2871 -0.3141  0.0928
11977TIP3    H157346   6.349   3.368  15.785  0.7136  1.3684  1.7299
11977TIP3    H257347   6.273   3.342  15.913 -1.0205 -2.9353  0.0087
11978TIP3   OH257348   6.415   5.333   4.530  0.1609 -0.1452  0.7673
11978TIP3    H157349   6.361   5.398   4.484  0.5439 -0.4553 -0.1346
11978TIP3    H257350   6.366   5.314   4.610 -0.0228  1.1492  0.9825
11979TIP3   OH257351   5.745   2.146  13.468  0.2431 -0.5788 -0.3002
11979TIP3    H157352   5.656   2.118  13.487  0.4023 -1.2093 -0.4572
11979TIP3    H257353   5.745   2.166  13.374  0.2710 -0.5869 -0.3021
11980TIP3   OH257354   4.310   2.994   2.531 -0.3885 -0.3644 -0.4134
11980TIP3    H157355   4.356   2.911   2.535  1.2255  0.4711 -0.6295
11980TIP3    H257356   4.315   3.029   2.620 -1.6192 -0.7567 -0.1706
11981TIP3   OH257357   2.135   4.768  15.420 -0.0904  0.2459  1.1033
11981TIP3    H157358   2.167   4.712  15.491  0.9062  1.3966  1.6101
11981TIP3    H257359   2.205   4.768  15.355 -0.6393 -0.1193  0.4956
11982TIP3   OH257360   0.924   2.357   4.772 -0.5437  0.6403  0.7377
11982TIP3    H157361   1.016   2.379   4.786 -0.3125 -0.2180  0.5880
11982TIP3    H257362   0.880   2.386   4.852 -0.3784  2.2992  0.2697
11983TIP3   OH257363   5.752   1.512  15.505 -0.8384 -0.1601 -0.1636
11983TIP3    H157364   5.714   1.468  15.429 -0.0686  1.2155 -1.3950
11983TIP3    H257365   5.682   1.510  15.571 -1.7815 -0.7554 -1.1390
11984TIP3   OH257366   3.841   1.180   6.323 -0.4025  0.0151 -0.2406
11984TIP3    H157367   3.935   1.184   6.305 -0.1060 -0.7459  0.9966
11984TIP3    H257368   3.821   1.087   6.326 -1.1203  0.1679 -0.1246
11985TIP3   OH257369   4.389   5.878  11.164 -0.2100 -0.3296 -0.7022
11985TIP3    H157370   4.422   5.798  11.122 -0.1658 -0.8254  0.2340
11985TIP3    H257371   4.442   5.948  11.127  0.5292 -0.8760 -0.7195
11986TIP3   OH257372   4.699   5.834   2.511  0.2679 -0.7629 -0.3917
11986TIP3    H157373   4.784   5.856   2.549 -0.1267 -0.1841  0.1882
11986TIP3    H257374   4.712   5.748   2.471  2.3207  1.0147 -4.1194
11987TIP3   OH257375   3.507   3.320  15.621 -0.5315 -0.1306  0.0853
11987TIP3    H157376   3.413   3.320  15.642 -0.1483 -0.5764  1.9275
11987TIP3    H257377   3.537   3.407  15.647 -0.4210  0.0286 -0.5464
11988TIP3   OH257378   2.744   5.351   4.162  0.2691 -0.6600 -0.6721
11988TIP3    H157379   2.697   5.267   4.158 -0.0318 -0.4869 -0.8565
11988TIP3    H257380   2.748   5.380   4.071  0.6093 -0.6025 -0.6387
11989TIP3   OH257381   0.945   5.957  14.944 -0.2329 -0.4078 -0.0322
11989TIP3    H157382   1.010   6.027  14.935  0.2603 -0.9327 -0.6419
11989TIP3    H257383   0.866   6.001  14.976 -0.5674  0.8002 -2.3094
11990TIP3   OH257384   0.559   2.934  12.879  0.2697 -0.1018 -0.2609
11990TIP3    H157385   0.607   2.994  12.935 -1.7861  2.1271 -0.7281
11990TIP3    H257386   0.620   2.915  12.807  0.8834  1.6792 -0.2529
11991TIP3   OH257387   2.840   3.809  16.778 -0.5288 -0.1128 -0.0242
11991TIP3    H157388   2.922   3.820  16.730  1.9009 -2.5057  3.1026
11991TIP3    H257389   2.848   3.867  16.853 -1.1901 -1.1437  0.8713
11992TIP3   OH257390   3.888   2.993   5.545 -0.2141 -0.2344 -0.0226
11992TIP3    H157391   3.927   2.985   5.458  1.3756 -0.7104  0.7008
11992TIP3    H257392   3.796   3.012   5.528  0.4543  1.8314 -1.8306
11993TIP3   OH257393   3.606   5.709  14.201 -0.2824  0.0703  0.5646
11993TIP3    H157394   3.695   5.728  14.172 -0.2354 -1.9634 -0.8122
11993TIP3    H257395   3.551   5.733  14.126 -0.5739 -1.4306  0.2694
11994TIP3   OH257396   3.423   1.138   5.651  0.0200  0.0645  0.2806
11994TIP3    H157397   3.490   1.206   5.654  0.2689 -0.1843  0.5388
11994TIP3    H257398   3.340   1.185   5.657  0.1302  0.4434 -0.8876
11995TIP3   OH257399   5.641   6.619  16.860 -0.0975  0.0045  0.1438
11995TIP3    H157400   5.628   6.710  16.886 -0.8026  0.4365 -1.6029
11995TIP3    H257401   5.684   6.624  16.775 -1.9702 -1.2183 -0.9537
11996TIP3   OH257402   2.353   3.356   1.399  0.6394  0.3719 -0.4749
11996TIP3    H157403   2.322   3.282   1.347 -0.4224  0.7616 -0.4316
11996TIP3    H257404   2.447   3.344   1.406  0.4284 -1.2316 -0.0699
11997TIP3   OH257405   3.858   4.015  16.847  0.0696  0.2408 -0.2767
11997TIP3    H157406   3.771   4.005  16.885 -0.1320 -0.8602 -0.9816
11997TIP3    H257407   3.914   3.959  16.901  0.2700  0.6366 -0.0699
11998TIP3   OH257408   3.280   5.804   5.889 -0.4928  0.4455  0.3152
11998TIP3    H157409   3.197   5.846   5.908 -1.5098 -1.2668 -0.1070
11998TIP3    H257410   3.288   5.735   5.955 -1.5542 -2.1926 -2.0921
11999TIP3   OH257411   4.171   1.723   2.212 -0.5188 -0.2072 -0.0220
11999TIP3    H157412   4.139   1.749   2.298  1.6203  0.3592  0.6496
11999TIP3    H257413   4.216   1.800   2.178  0.2989 -1.0060 -0.8160
12000TIP3   OH257414   4.692   4.647   6.804  0.4928 -0.4073  0.3984
12000TIP3    H157415   4.736   4.644   6.719  1.1411  1.0618  0.6614
12000TIP3    H257416   4.732   4.574   6.853  0.1512 -1.2324 -0.5081
12001TIP3   OH257417   0.244   2.450   4.391 -0.1490 -0.0580 -0.2544
12001TIP3    H157418   0.203   2.529   4.426  1.8748  0.7339  0.4603
12001TIP3    H257419   0.205   2.440   4.304 -0.7009  1.5153 -0.2245
12002TIP3   OH257420   0.426   0.294   3.917  0.1904 -0.1198  0.3105
12002TIP3    H157421   0.393   0.337   3.838 -0.9361 -1.9128 -0.2542
12002TIP3    H257422   0.514   0.265   3.895 -0.5824 -1.7630 -0.8129
12003TIP3   OH257423   5.489   5.136  11.383  0.4947  0.2945  0.5825
12003TIP3    H157424   5.579   5.126  11.354  0.5004  1.3895  0.1422
12003TIP3    H257425   5.490   5.215  11.438  0.1762 -0.8290  2.2737
12004TIP3   OH257426   6.576   0.423   3.163  0.3185 -0.2222  0.0828
12004TIP3    H157427   6.531   0.394   3.084  1.0721  0.5421 -0.6478
12004TIP3    H257428   6.651   0.364   3.172 -0.2256 -0.8375  0.7145
12005TIP3   OH257429   3.434   4.682  16.682  0.0815 -0.4038 -0.2964
12005TIP3    H157430   3.413   4.774  16.697 -0.4651 -0.5527 -0.1140
12005TIP3    H257431   3.349   4.641  16.663  0.4300 -0.7070 -1.2465
12006TIP3   OH257432   5.184   3.535   2.513  0.5346  0.3687  0.2560
12006TIP3    H157433   5.113   3.590   2.546  1.4239  1.7856 -0.0965
12006TIP3    H257434   5.140   3.460   2.475 -0.6744  0.3066  1.6939
12007TIP3   OH257435   3.587   1.185  13.004  0.2237 -0.7814 -0.5045
12007TIP3    H157436   3.592   1.091  12.989 -0.5469 -0.7098 -1.2730
12007TIP3    H257437   3.544   1.220  12.926 -0.6398  0.0502  0.3144
12008TIP3   OH257438   6.642   4.160  11.323 -0.1956  0.2751  0.4547
12008TIP3    H157439   6.703   4.100  11.280 -1.9732 -1.1257 -0.2122
12008TIP3    H257440   6.644   4.239  11.268 -0.8247 -0.6926 -1.0245
12009TIP3   OH257441   2.052   3.022   2.613  0.8385  0.1073 -0.2706
12009TIP3    H157442   2.002   2.992   2.689  2.7379 -1.8756  0.3183
12009TIP3    H257443   2.062   2.943   2.559  0.8900  1.1160 -1.7749
12010TIP3   OH257444   4.284   4.977   1.919 -0.4164  0.4966 -0.4258
12010TIP3    H157445   4.234   4.924   1.982  0.7600 -0.2412 -0.0775
12010TIP3    H257446   4.226   4.984   1.843 -1.9100  1.5037  0.7597
12011TIP3   OH257447   0.709   1.501  12.119  0.4496 -0.4142  0.2971
12011TIP3    H157448   0.724   1.523  12.027 -2.2230  2.2778  0.3879
12011TIP3    H257449   0.738   1.409  12.126  1.2851 -0.5353 -3.0251
12012TIP3   OH257450   0.652   3.518  11.490  0.1662 -0.2620 -0.1162
12012TIP3    H157451   0.682   3.502  11.401 -0.3961 -2.0240 -0.0170
12012TIP3    H257452   0.684   3.443  11.540 -0.4983  0.1352  0.9328
12013TIP3   OH257453   0.279   4.085  11.335 -0.3642 -0.5803 -0.1125
12013TIP3    H157454   0.200   4.052  11.293 -0.6858  1.0700 -0.8711
12013TIP3    H257455   0.332   4.120  11.263  0.7551 -1.0643  0.4604
12014TIP3   OH257456   2.751   5.199   0.383 -0.1567  0.4013  0.3852
12014TIP3    H157457   2.779   5.155   0.303 -0.7277  0.2312  0.2709
12014TIP3    H257458   2.669   5.242   0.359 -1.8273 -1.9053  1.5362
12015TIP3   OH257459   3.511   2.602   3.696  0.2299 -0.1308 -0.0441
12015TIP3    H157460   3.600   2.571   3.678  0.0601 -1.4430  1.1931
12015TIP3    H257461   3.454   2.530   3.666 -0.3670  0.3682 -0.1209
12016TIP3   OH257462   4.124   6.394  12.996 -0.2087  0.3856 -0.0421
12016TIP3    H157463   4.205   6.443  12.984  0.3687 -0.4352  0.4013
12016TIP3    H257464   4.103   6.406  13.089 -0.3887  0.2891 -0.0711
12017TIP3   OH257465   2.314   1.911   1.368  0.1330  0.7877  0.5627
12017TIP3    H157466   2.253   1.849   1.327  0.5697  0.7830 -0.1038
12017TIP3    H257467   2.272   1.996   1.358  1.1513  1.0919 -1.8385
12018TIP3   OH257468   4.342   5.952   3.724  0.1852  0.6949  0.0921
12018TIP3    H157469   4.374   6.012   3.791 -1.2536  2.1639 -0.4790
12018TIP3    H257470   4.405   5.879   3.726  1.1844  1.5264  1.7760
12019TIP3   OH257471   3.359   5.712  10.453 -0.1669  0.1341 -0.0280
12019TIP3    H157472   3.333   5.628  10.416 -1.1061  1.2059 -1.9142
12019TIP3    H257473   3.318   5.714  10.539 -0.6858 -1.0576 -0.2325
12020TIP3   OH257474   2.763   1.848   3.357  0.1765  0.2359  0.1808
12020TIP3    H157475   2.842   1.798   3.381  0.2604  1.2699  2.3296
12020TIP3    H257476   2.692   1.784   3.360  0.8135 -0.5781 -1.1674
12021TIP3   OH257477   4.912   4.679  15.165 -0.0031  0.3696 -0.6089
12021TIP3    H157478   4.986   4.640  15.212  0.7433  0.3369 -1.7817
12021TIP3    H257479   4.921   4.773  15.179 -0.9287  0.2661  0.9403
12022TIP3   OH257480   5.862   6.629  14.954 -0.8938 -0.0145 -0.2193
12022TIP3    H157481   5.894   6.547  14.992  0.6823  1.2448  1.3301
12022TIP3    H257482   5.864   6.613  14.860 -1.7437 -2.1252  0.0449
12023TIP3   OH257483   4.010   0.438   0.862  0.6750 -1.1482  0.0803
12023TIP3    H157484   4.081   0.463   0.803 -0.0129  1.3085  0.1896
12023TIP3    H257485   4.052   0.429   0.947  1.1979 -1.9365 -0.2472
12024TIP3   OH257486   6.638   2.300  11.004 -0.2870  0.1053 -0.1961
12024TIP3    H157487   6.582   2.348  10.943 -0.2744  0.9534  0.4429
12024TIP3    H257488   6.713   2.357  11.019 -0.0058 -0.3456  0.1547
12025TIP3   OH257489   1.755   6.015   4.154 -0.4232  0.0096 -0.2801
12025TIP3    H157490   1.671   6.060   4.144 -0.7308 -0.6726 -0.8903
12025TIP3    H257491   1.734   5.936   4.203  0.0960  0.4667  0.7019
12026TIP3   OH257492   4.615   5.778  15.319 -0.3390 -0.3940 -0.3987
12026TIP3    H157493   4.584   5.732  15.242 -0.4743  1.2679 -1.3908
12026TIP3    H257494   4.711   5.781  15.309 -0.2397 -1.3699  0.2122
12027TIP3   OH257495   3.239   2.651   4.584 -0.3672 -0.1384  0.3724
12027TIP3    H157496   3.304   2.612   4.642  0.1124  0.1566  0.0461
12027TIP3    H257497   3.286   2.722   4.540 -0.5733 -0.6464 -0.7217
12028TIP3   OH257498   0.204   6.016  17.171  0.7877 -0.4852  0.1018
12028TIP3    H157499   0.150   5.974  17.104  0.1223  0.2876  0.1385
12028TIP3    H257500   0.207   6.108  17.145  3.7328 -0.7707 -1.0118
12029TIP3   OH257501   2.015   4.246   5.741 -0.2937 -0.4630 -0.0556
12029TIP3    H157502   2.043   4.326   5.784 -0.2394 -0.6272  0.2142
12029TIP3    H257503   2.064   4.176   5.785  0.4359 -0.5532 -0.9524
12030TIP3   OH257504   4.937   0.587  13.280  0.2866 -0.1413  0.8554
12030TIP3    H157505   4.965   0.677  13.262 -1.0744  0.0999 -0.2320
12030TIP3    H257506   4.966   0.537  13.204 -0.7843 -0.1903  0.4620
12031TIP3   OH257507   3.105   0.220   0.100  0.0140 -0.7887 -0.1112
12031TIP3    H157508   3.148   0.210   0.185 -0.8116 -0.4400  0.3658
12031TIP3    H257509   3.014   0.239   0.122  0.0428  0.5824 -1.0643
12032TIP3   OH257510   1.708   4.082  16.791 -0.7195 -0.2871 -0.2333
12032TIP3    H157511   1.794   4.064  16.829 -0.2998  0.6550 -0.6935
12032TIP3    H257512   1.727   4.108  16.701 -1.4405  0.3672 -0.2096
12033TIP3   OH257513   2.805   0.688  17.160  0.4102 -0.5090  0.2068
12033TIP3    H157514   2.864   0.764  17.166 -0.3514  0.0414  1.1335
12033TIP3    H257515   2.807   0.650  17.248 -1.4630  0.2072  0.6146
12034TIP3   OH257516   5.589   1.010   4.525  0.2729 -0.1444  0.6679
12034TIP3    H157517   5.685   1.003   4.525  0.3331  0.1250 -1.3990
12034TIP3    H257518   5.559   0.926   4.490 -0.1010  0.6295 -0.9605
12035TIP3   OH257519   1.256   2.454  13.930  1.1133  0.0666 -0.2045
12035TIP3    H157520   1.298   2.471  13.846  2.5442  0.1236  0.4987
12035TIP3    H257521   1.265   2.535  13.979 -1.6976  0.8096 -0.7447
12036TIP3   OH257522   0.222   1.113  12.148  0.1543  0.3989 -0.0124
12036TIP3    H157523   0.266   1.157  12.221  0.4919  1.8256 -1.0342
12036TIP3    H257524   0.157   1.056  12.190  0.3852  1.1336  1.3994
12037TIP3   OH257525   5.962   5.467  12.420 -0.1348 -0.5268  0.0711
12037TIP3    H157526   5.954   5.372  12.431 -1.4549 -0.5327 -0.8239
12037TIP3    H257527   6.000   5.496  12.503 -0.6545 -1.7203  0.7649
12038TIP3   OH257528   0.734   6.663   5.633  0.0031 -0.1033 -0.4814
12038TIP3    H157529   0.802   6.635   5.695  0.5683 -0.6581 -1.3333
12038TIP3    H257530   0.780   6.721   5.572 -1.0503  2.4841  1.0116
12039TIP3   OH257531   5.622   3.069   1.445  0.2605  0.0039  0.2010
12039TIP3    H157532   5.709   3.040   1.419 -0.8195 -1.9076 -1.5681
12039TIP3    H257533   5.563   3.002   1.411 -1.8655  0.8069  2.0442
12040TIP3   OH257534   1.960   3.985  16.851  0.3010 -0.3534 -0.4152
12040TIP3    H157535   2.025   3.966  16.783  1.4226 -1.0095  0.7672
12040TIP3    H257536   1.940   3.899  16.889 -0.8953 -0.0934 -0.4228
12041TIP3   OH257537   5.398   2.211   2.166  0.4433  0.0926 -0.1008
12041TIP3    H157538   5.433   2.286   2.214  2.0570 -1.3190  1.0383
12041TIP3    H257539   5.451   2.208   2.086  1.9196 -1.0819  0.8732
12042TIP3   OH257540   2.850   1.352   2.578  0.6451  0.2416  0.1305
12042TIP3    H157541   2.771   1.405   2.574  1.0121  0.8535  0.7371
12042TIP3    H257542   2.855   1.310   2.492  0.6371  1.6505 -0.5966
12043TIP3   OH257543   4.952   4.900  17.189  0.0798  0.2544 -0.0040
12043TIP3    H157544   4.964   4.839  17.261  0.2029 -1.4022 -1.3815
12043TIP3    H257545   4.982   4.853  17.112 -0.1008  1.9584 -1.1722
12044TIP3   OH257546   2.299   3.852  16.354 -0.9260 -0.6830  0.1488
12044TIP3    H157547   2.305   3.769  16.401  0.5449 -1.4898 -1.3734
12044TIP3    H257548   2.353   3.840  16.276  0.2694  2.0808  0.4226
12045TIP3   OH257549   2.138   0.717   6.818  0.1656 -0.5404 -0.3997
12045TIP3    H157550   2.053   0.760   6.817 -0.1242 -1.0954 -0.1909
12045TIP3    H257551   2.128   0.645   6.755 -0.4033 -2.2558  1.5712
12046TIP3   OH257552   2.182   1.643  11.757  0.1298 -0.5661  0.1604
12046TIP3    H157553   2.243   1.589  11.807  0.9292  0.9744  0.9033
12046TIP3    H257554   2.234   1.677  11.684  0.0431  0.3989  0.5438
12047TIP3   OH257555   2.187   2.294  12.829  0.1721  0.1512  0.5229
12047TIP3    H157556   2.099   2.282  12.864  0.2211 -0.8422  0.3330
12047TIP3    H257557   2.178   2.366  12.767 -0.6740 -0.3895 -0.0159
12048TIP3   OH257558   4.353   3.421  12.818  0.2803  0.3169 -0.2059
12048TIP3    H157559   4.275   3.455  12.775  0.3122  0.1683 -0.3818
12048TIP3    H257560   4.324   3.396  12.905 -0.4899 -2.1425 -1.0576
12049TIP3   OH257561   6.582   4.914  15.594 -0.7484  0.5424 -0.0811
12049TIP3    H157562   6.652   4.972  15.564 -1.4607  1.2397 -0.4413
12049TIP3    H257563   6.509   4.972  15.612 -0.9872 -0.0920  1.0789
12050TIP3   OH257564   0.283   1.919  12.804  0.2114 -0.2802 -0.5737
12050TIP3    H157565   0.238   1.912  12.720 -1.2748  0.5384  0.1197
12050TIP3    H257566   0.234   1.985  12.852  1.1639 -0.5810  0.8680
12051TIP3   OH257567   5.957   2.985  17.315 -0.1938  0.5648 -0.6519
12051TIP3    H157568   5.966   2.936  17.397 -2.7410  0.5568 -0.2954
12051TIP3    H257569   5.931   2.920  17.250 -0.7244  0.9467 -0.8383
12052TIP3   OH257570   4.529   4.277  11.480  1.0281 -0.2056 -0.6252
12052TIP3    H157571   4.498   4.251  11.393 -0.1360  2.1291 -0.9713
12052TIP3    H257572   4.465   4.239  11.540 -0.4060  1.3597 -1.0893
12053TIP3   OH257573   0.131   4.138  15.324 -0.0630  0.1069 -0.2604
12053TIP3    H157574   0.128   4.045  15.302  0.6823  0.4088 -1.7685
12053TIP3    H257575   0.223   4.163  15.310 -0.3070  1.1187 -0.1466
12054TIP3   OH257576   5.305   0.951  16.935 -0.6636 -0.1649  0.2631
12054TIP3    H157577   5.317   0.997  16.852  1.5945 -0.2421  0.4924
12054TIP3    H257578   5.325   1.016  17.002  1.1354 -1.0488  0.6289
12055TIP3   OH257579   4.173   4.575   4.342 -0.5073 -0.7349 -0.6101
12055TIP3    H157580   4.252   4.523   4.352 -1.0773 -1.4443  0.4511
12055TIP3    H257581   4.103   4.519   4.378 -1.0020  1.1161  1.4685
12056TIP3   OH257582   0.089   1.858   4.699  0.2002 -0.4501  0.1596
12056TIP3    H157583   0.088   1.850   4.794 -2.4057 -0.2811  0.2182
12056TIP3    H257584   0.045   1.941   4.681 -0.4033 -1.0323 -1.2157
12057TIP3   OH257585   6.059   5.386   1.844  0.2849  0.1321 -0.3420
12057TIP3    H157586   6.116   5.348   1.912 -1.3654 -0.6991  0.6488
12057TIP3    H257587   5.975   5.344   1.858 -1.2913  3.0999 -0.1664
12058TIP3   OH257588   1.721   2.983  11.689  0.0758  0.1637  0.2109
12058TIP3    H157589   1.724   3.065  11.739 -0.4200  1.8534 -2.2857
12058TIP3    H257590   1.631   2.952  11.700 -0.0953  0.6430  0.2323
12059TIP3   OH257591   5.621   0.713   6.805  0.4418  0.7186 -0.7520
12059TIP3    H157592   5.588   0.762   6.730 -1.2213  0.3933 -0.2877
12059TIP3    H257593   5.555   0.727   6.873  1.4555  0.2711  0.3475
12060TIP3   OH257594   0.782   1.146   5.649  0.6270 -0.0966 -0.5597
12060TIP3    H157595   0.696   1.188   5.659  0.7728  0.2347 -0.6789
12060TIP3    H257596   0.766   1.054   5.669  0.8168  0.4290  2.4829
12061TIP3   OH257597   0.452   5.387   3.529  0.3661 -0.8248  0.4348
12061TIP3    H157598   0.377   5.446   3.537  2.0686  1.7819 -1.2432
12061TIP3    H257599   0.455   5.365   3.436  1.1765 -1.6137  0.6357
12062TIP3   OH257600   6.101   0.731   4.134 -0.0115 -0.4182 -0.1941
12062TIP3    H157601   6.163   0.748   4.063  1.6929 -0.8266  1.1136
12062TIP3    H257602   6.092   0.636   4.135 -0.8441 -0.3537 -0.4836
12063TIP3   OH257603   1.479   3.086   0.744 -1.0780  0.1859  0.2249
12063TIP3    H157604   1.533   3.030   0.801 -0.6188 -2.1204 -2.2742
12063TIP3    H257605   1.487   3.174   0.783  2.9032 -0.3630  1.1549
12064TIP3   OH257606   2.954   2.000  14.465 -0.3762 -0.2679  0.0953
12064TIP3    H157607   3.039   1.974  14.430 -0.2884 -0.5888  0.5377
12064TIP3    H257608   2.970   2.086  14.505 -0.0356 -0.7530  1.0164
12065TIP3   OH257609   0.783   6.739  12.371  0.1423  0.0568 -0.0597
12065TIP3    H157610   0.839   6.773  12.441 -0.2021 -3.3191  2.1020
12065TIP3    H257611   0.844   6.709  12.304  0.5636  1.4825 -0.3593
12066TIP3   OH257612   4.159   1.937   1.110 -0.1791 -0.0598  0.0555
12066TIP3    H157613   4.249   1.906   1.119 -0.0874  0.6996  2.4830
12066TIP3    H257614   4.113   1.867   1.062  2.0756  0.4330 -3.1635
12067TIP3   OH257615   6.421   1.358   2.216  0.0279 -0.0068  0.0237
12067TIP3    H157616   6.413   1.378   2.122  1.6061 -1.0952 -0.3887
12067TIP3    H257617   6.402   1.440   2.260  3.2556  1.7144 -1.4348
12068TIP3   OH257618   1.555   4.145   4.171  0.3232 -0.3635  0.4510
12068TIP3    H157619   1.517   4.148   4.083 -0.7489 -0.3513  0.8940
12068TIP3    H257620   1.644   4.114   4.157 -0.0100 -0.9332 -0.5920
12069TIP3   OH257621   1.454   2.938  13.971 -0.6387  0.0170 -0.4831
12069TIP3    H157622   1.508   2.870  14.011 -3.0383 -1.7593 -0.0660
12069TIP3    H257623   1.441   2.909  13.881  2.0487  2.3587 -1.8064
12070TIP3   OH257624   2.981   5.708  11.608  0.0493  0.4941 -0.2672
12070TIP3    H157625   3.039   5.783  11.621  0.5250 -0.0854  1.1744
12070TIP3    H257626   3.020   5.659  11.536 -0.1190  1.4682 -1.0409
12071TIP3   OH257627   2.573   5.352   0.231 -1.3543 -0.3525  0.5692
12071TIP3    H157628   2.625   5.387   0.159 -1.7345  0.2947  0.6009
12071TIP3    H257629   2.550   5.429   0.284 -1.7969 -0.7111  0.9081
12072TIP3   OH257630   3.470   5.831  13.933 -0.6075 -0.0496 -0.5917
12072TIP3    H157631   3.529   5.904  13.920 -0.1800 -0.5257 -1.4061
12072TIP3    H257632   3.434   5.813  13.846 -0.4601 -1.0100 -0.4624
12073TIP3   OH257633   5.591   6.014   2.197  0.1110 -0.5497 -0.1977
12073TIP3    H157634   5.603   6.106   2.220 -2.4641  0.0829 -0.9803
12073TIP3    H257635   5.519   5.984   2.252  0.4946 -1.9309 -0.3959
12074TIP3   OH257636   3.928   0.088  15.520  0.3869 -0.2258  0.8233
12074TIP3    H157637   3.879   0.027  15.465  0.5813  2.8491 -3.1552
12074TIP3    H257638   4.020   0.062  15.508  0.3059 -0.9030  1.5716
12075TIP3   OH257639   1.939   5.888  16.821  0.3435  0.2455  0.5815
12075TIP3    H157640   1.995   5.884  16.898  0.9838 -1.2792  0.0713
12075TIP3    H257641   1.983   5.949  16.762  0.2655  0.7962  1.0806
12076TIP3   OH257642   3.458   2.514   4.795 -0.4917 -0.4821 -0.3832
12076TIP3    H157643   3.365   2.497   4.809 -0.5829 -0.7615 -1.2204
12076TIP3    H257644   3.490   2.547   4.879 -1.5575  0.5801 -0.3637
12077TIP3   OH257645   3.529   3.763   5.193 -0.5765  0.2460  0.1046
12077TIP3    H157646   3.615   3.801   5.210 -0.6975  0.3213  0.5771
12077TIP3    H257647   3.468   3.820   5.241 -0.5862 -1.6722  2.6111
12078TIP3   OH257648   5.425   5.674  15.851 -0.7327  0.3929 -0.1222
12078TIP3    H157649   5.439   5.615  15.925  1.3976  0.4124 -0.4498
12078TIP3    H257650   5.454   5.759  15.882 -0.1617  0.4766 -0.8555
12079TIP3   OH257651   1.777   6.540   4.496 -0.3631  0.6048  0.4390
12079TIP3    H157652   1.742   6.546   4.407 -1.7450 -0.5894  0.8417
12079TIP3    H257653   1.859   6.492   4.486  1.4015  3.5498 -0.5495
12080TIP3   OH257654   3.532   2.554  13.858 -0.0436 -0.6410  0.6577
12080TIP3    H157655   3.552   2.639  13.820  0.6058 -1.4998 -1.0458
12080TIP3    H257656   3.574   2.491  13.799 -1.7111 -2.2155  1.0588
12081TIP3   OH257657   1.964   2.823   5.720  0.4516  0.2341  0.2321
12081TIP3    H157658   1.952   2.763   5.794  0.0170 -0.8568 -0.7098
12081TIP3    H257659   2.031   2.782   5.666 -0.1549  0.3714 -0.6385
12082TIP3   OH257660   0.685   6.543  11.634  0.2891  0.0484 -0.4686
12082TIP3    H157661   0.641   6.611  11.583 -0.6899 -1.2361 -1.4085
12082TIP3    H257662   0.700   6.582  11.719  0.0490  1.5433 -1.0858
12083TIP3   OH257663   5.449   5.565   1.910  0.1284 -0.1241 -0.6598
12083TIP3    H157664   5.416   5.482   1.945  0.1655  0.4908  0.9144
12083TIP3    H257665   5.483   5.612   1.986 -2.3672  2.5032 -0.9413
12084TIP3   OH257666   2.359   3.772   1.779  0.1660 -0.3049 -0.1535
12084TIP3    H157667   2.388   3.685   1.751 -1.7240 -1.1834  0.3771
12084TIP3    H257668   2.396   3.782   1.867 -0.2191 -0.9373  0.0939
12085TIP3   OH257669   0.547   0.310  11.630 -0.0190  0.4331  0.3296
12085TIP3    H157670   0.561   0.240  11.566 -0.7799  1.9833 -1.6734
12085TIP3    H257671   0.619   0.372  11.614 -1.2469  1.7347 -0.3771
12086TIP3   OH257672   3.938   4.143  11.712 -0.2310  0.0516 -0.4093
12086TIP3    H157673   3.921   4.166  11.803  0.6349 -2.4002  0.4260
12086TIP3    H257674   4.005   4.206  11.684 -1.8031  2.0134 -0.0054
12087TIP3   OH257675   5.388   3.672   1.813 -0.3511  0.1454  0.5451
12087TIP3    H157676   5.475   3.667   1.852 -1.2411 -1.0771  2.5280
12087TIP3    H257677   5.339   3.730   1.872 -0.6614  1.6650 -1.1066
12088TIP3   OH257678   3.236   6.659  10.863  0.2684 -0.2603  0.8844
12088TIP3    H157679   3.259   6.623  10.778 -0.8028  0.9925  0.0355
12088TIP3    H257680   3.238   6.754  10.851 -1.8169 -0.0648  1.7114
12089TIP3   OH257681   2.388   0.347  15.849  0.3612  0.2767  0.2660
12089TIP3    H157682   2.451   0.313  15.913  1.9774  1.3763 -0.6693
12089TIP3    H257683   2.437   0.412  15.800 -1.0949  0.0966 -1.5213
12090TIP3   OH257684   3.228   5.829   3.901 -0.8257 -0.0174 -0.5851
12090TIP3    H157685   3.197   5.852   3.813  0.5376 -0.2272 -1.1439
12090TIP3    H257686   3.159   5.861   3.960 -2.0034 -0.3407 -1.7513
12091TIP3   OH257687   4.147   5.750   1.871  0.1847 -0.7283  0.4791
12091TIP3    H157688   4.091   5.679   1.839 -1.7395  0.4781  0.9773
12091TIP3    H257689   4.089   5.826   1.872  2.3011  0.9793 -0.4713
12092TIP3   OH257690   0.897   3.957   2.741 -0.0192  0.1749 -0.0877
12092TIP3    H157691   0.927   3.978   2.829 -0.2938  0.2823 -0.0159
12092TIP3    H257692   0.888   3.861   2.741 -2.0155  0.3047  0.6834
12093TIP3   OH257693   0.339   4.631  16.773  0.5717 -0.5428  0.1692
12093TIP3    H157694   0.346   4.637  16.678 -0.2704 -1.4063  0.0374
12093TIP3    H257695   0.283   4.704  16.799  0.6025 -0.4537 -0.0153
12094TIP3   OH257696   0.132   5.362  15.881  0.4099 -0.3089  0.4358
12094TIP3    H157697   0.049   5.336  15.922  0.0070 -2.3637 -1.4701
12094TIP3    H257698   0.105   5.404  15.799  1.2428  1.1702  0.8959
12095TIP3   OH257699   3.091   0.397  15.674 -0.2374 -0.0439 -0.1977
12095TIP3    H157700   3.107   0.376  15.582  0.5210 -1.5428  0.2412
12095TIP3    H257701   3.041   0.479  15.672 -2.9387 -1.5864 -2.0602
12096TIP3   OH257702   0.593   4.214  15.038  0.0342  0.1736 -0.5399
12096TIP3    H157703   0.612   4.287  14.979  2.1588  0.8919  0.8939
12096TIP3    H257704   0.679   4.187  15.071 -0.9374 -1.1726  1.0717
12097TIP3   OH257705   2.161   3.758   3.120 -0.1770 -0.1569  0.2318
12097TIP3    H157706   2.089   3.751   3.057  0.4667 -0.0646 -0.5345
12097TIP3    H257707   2.146   3.843   3.163 -1.0501 -0.5644  0.7656
12098TIP3   OH257708   5.420   3.288   1.021 -0.0185 -0.3782 -0.2659
12098TIP3    H157709   5.453   3.301   1.110  0.5457 -0.7670 -0.4122
12098TIP3    H257710   5.355   3.357   1.009  0.5437  0.2403  0.1339
12099TIP3   OH257711   5.592   4.780  16.411  0.0223  0.6489 -0.0096
12099TIP3    H157712   5.548   4.725  16.476  0.8560  0.6288  0.5481
12099TIP3    H257713   5.543   4.764  16.330 -1.6951  1.4682  0.8149
12100TIP3   OH257714   4.989   2.568   1.424  0.2071 -0.0430  0.5723
12100TIP3    H157715   4.923   2.534   1.364  0.2639  1.3155 -0.2893
12100TIP3    H257716   4.981   2.513   1.502  0.1117 -1.8275 -0.6402
12101TIP3   OH257717   2.500   2.613   3.992  0.0493 -0.0117  0.1431
12101TIP3    H157718   2.419   2.623   3.942  0.0191 -0.4759  0.0954
12101TIP3    H257719   2.569   2.643   3.932 -0.0121 -0.3340 -0.0934
12102TIP3   OH257720   1.460   1.508   0.514 -0.5972 -0.2796  0.1299
12102TIP3    H157721   1.522   1.441   0.489 -0.2781  0.3995 -0.9908
12102TIP3    H257722   1.496   1.589   0.478 -2.7251 -0.0391 -1.6900
12103TIP3   OH257723   2.019   0.456  15.612 -0.1048  0.2132  0.0050
12103TIP3    H157724   1.938   0.406  15.620  0.0342 -0.4342 -1.9643
12103TIP3    H257725   2.087   0.390  15.601 -0.0685  0.6406 -3.9119
12104TIP3   OH257726   1.849   3.432   0.078 -0.2666  0.0122  0.2635
12104TIP3    H157727   1.914   3.448   0.010 -0.7908  0.0018 -0.2441
12104TIP3    H257728   1.765   3.425   0.031 -0.3737 -2.0347  0.6961
12105TIP3   OH257729   1.377   2.992  11.479  0.2874 -0.2510  0.2848
12105TIP3    H157730   1.414   3.078  11.498 -0.3730 -0.1362  1.1120
12105TIP3    H257731   1.448   2.945  11.435  1.4299 -0.0269  1.7903
12106TIP3   OH257732   0.050   2.084  10.449 -0.2141 -0.2269 -0.3749
12106TIP3    H157733   0.143   2.061  10.446 -0.4339 -1.2496  0.2426
12106TIP3    H257734   0.047   2.174  10.416  0.9403 -0.3263 -0.7967
12107TIP3   OH257735   2.216   4.233  14.838  0.1949 -0.0901  0.2858
12107TIP3    H157736   2.259   4.307  14.795  2.4704 -1.1518  0.6253
12107TIP3    H257737   2.243   4.240  14.930  0.5667 -1.4114  0.2900
12108TIP3   OH257738   5.731   1.503  11.979  0.3455 -0.4086 -0.6577
12108TIP3    H157739   5.742   1.414  11.946  0.0325 -1.2842  1.4631
12108TIP3    H257740   5.691   1.492  12.065  0.3940  1.7948 -0.2977
12109TIP3   OH257741   6.380   4.693  14.793 -0.0846 -0.3268  0.0497
12109TIP3    H157742   6.292   4.672  14.824  0.2657 -1.2673  0.4355
12109TIP3    H257743   6.439   4.656  14.859  0.5910  0.9798  0.2094
12110TIP3   OH257744   3.818   5.382   4.963 -0.5723 -0.2262  0.4239
12110TIP3    H157745   3.734   5.395   5.007 -1.3852  0.6668 -1.2887
12110TIP3    H257746   3.834   5.465   4.919  1.3057 -0.3425  0.8206
12111TIP3   OH257747   3.371   6.745  17.132  0.1593  0.6259  0.1961
12111TIP3    H157748   3.362   6.785  17.218  1.1544  2.1468 -0.3635
12111TIP3    H257749   3.314   6.797  17.075  1.3118  1.1756 -0.5027
12112TIP3   OH257750   2.682   3.470   6.425  0.0008  0.8106  0.3814
12112TIP3    H157751   2.589   3.493   6.413 -0.1703 -0.0768 -0.0496
12112TIP3    H257752   2.707   3.515   6.506 -1.4766 -0.8729  1.8546
12113TIP3   OH257753   5.442   3.806   0.016  0.2775  0.6860  0.8020
12113TIP3    H157754   5.507   3.741  -0.011  0.4580  1.1381  0.1410
12113TIP3    H257755   5.491   3.871   0.067  0.1773  0.5579  1.0679
12114TIP3   OH257756   4.387   0.343   3.546  0.4513 -0.5179  0.0824
12114TIP3    H157757   4.437   0.306   3.620  2.2459 -0.8957 -1.2440
12114TIP3    H257758   4.454   0.381   3.489 -0.4574 -2.9067 -2.8546
12115TIP3   OH257759   3.786   1.527  15.437  0.2698  0.1713  0.2686
12115TIP3    H157760   3.859   1.585  15.459  1.2611 -1.1300  0.5317
12115TIP3    H257761   3.827   1.449  15.400 -0.8253 -1.3478  2.0724
12116TIP3   OH257762   4.529   4.724   5.511  0.6086 -0.8156  0.5801
12116TIP3    H157763   4.450   4.778   5.508 -0.6308 -2.5531 -0.6852
12116TIP3    H257764   4.579   4.758   5.585  0.3231  2.4992 -0.5706
12117TIP3   OH257765   5.329   3.323  13.415  0.2566 -0.0449  0.8602
12117TIP3    H157766   5.402   3.268  13.386 -2.0298 -1.6437 -2.5661
12117TIP3    H257767   5.345   3.408  13.374  0.1259 -0.4635 -0.0844
12118TIP3   OH257768   4.547   5.077   2.084  0.0458 -0.0425 -0.7991
12118TIP3    H157769   4.637   5.048   2.098  0.5425  1.2138 -1.2651
12118TIP3    H257770   4.544   5.101   1.991 -0.3259  1.3790 -0.4354
12119TIP3   OH257771   1.711   3.705  13.397 -0.5668 -0.1277 -0.6942
12119TIP3    H157772   1.787   3.653  13.423 -0.5890  0.6065  0.9616
12119TIP3    H257773   1.724   3.721  13.303  0.9245 -0.6357 -0.6092
12120TIP3   OH257774   3.313   0.730   5.260 -0.0403 -0.4469  0.0698
12120TIP3    H157775   3.229   0.725   5.306 -0.6419 -1.6198 -1.0953
12120TIP3    H257776   3.329   0.824   5.251 -0.5602 -0.1998  1.4725
12121TIP3   OH257777   4.500   3.817   4.167  1.0217 -0.3777 -0.0976
12121TIP3    H157778   4.516   3.887   4.103  1.1007 -1.0316 -0.8110
12121TIP3    H257779   4.406   3.821   4.184  0.7289 -1.1546 -1.4156
12122TIP3   OH257780   0.568   2.967  11.732  0.1999  0.7679 -1.1378
12122TIP3    H157781   0.616   3.044  11.701  0.6914  1.0476  0.2609
12122TIP3    H257782   0.480   2.977  11.694  0.1172  2.2621 -0.6099
12123TIP3   OH257783   0.450   5.615  16.316 -0.2020  0.9100  0.2510
12123TIP3    H157784   0.379   5.619  16.380 -1.6075  2.0505 -1.3058
12123TIP3    H257785   0.458   5.704  16.283 -1.2571 -0.0302 -2.9424
12124TIP3   OH257786   2.577   5.818  12.757 -0.1416 -0.0633 -0.4335
12124TIP3    H157787   2.571   5.857  12.670  1.4060  0.6987 -0.2442
12124TIP3    H257788   2.630   5.739  12.744 -1.2526 -0.8339 -0.4194
12125TIP3   OH257789   0.787   3.516  14.301 -0.4069  0.2601  0.1167
12125TIP3    H157790   0.839   3.566  14.363 -0.1287  1.1331 -0.8062
12125TIP3    H257791   0.757   3.440  14.352 -1.9701  1.9779  1.9608
12126TIP3   OH257792   5.503   6.144  13.202 -0.2816  0.3062 -0.2383
12126TIP3    H157793   5.497   6.074  13.267 -0.7340  0.0477 -0.5557
12126TIP3    H257794   5.536   6.220  13.252 -0.3041  0.0197  0.2185
12127TIP3   OH257795   6.142   1.822  17.201 -0.5521 -0.1317  0.2429
12127TIP3    H157796   6.090   1.863  17.133 -1.0323  0.9505  1.2227
12127TIP3    H257797   6.151   1.889  17.269  4.2903  0.6933 -0.8666
12128TIP3   OH257798   3.109   4.499   1.455 -0.1694  0.0842 -0.2103
12128TIP3    H157799   3.055   4.441   1.401  0.0384 -1.1888  0.8853
12128TIP3    H257800   3.178   4.442   1.489 -0.3349  0.8250  1.4477
12129TIP3   OH257801   6.702   4.006   4.859  0.5147 -0.3332  0.3594
12129TIP3    H157802   6.624   3.997   4.914 -1.4873 -0.9655 -2.3876
12129TIP3    H257803   6.706   4.099   4.837  0.2165 -0.3837  0.0889
12130TIP3   OH257804   3.352   6.652   1.630 -0.1245 -0.2962  0.4439
12130TIP3    H157805   3.424   6.646   1.692  1.4715  0.9731 -1.1543
12130TIP3    H257806   3.289   6.710   1.672 -0.0106 -1.0120  1.6590
12131TIP3   OH257807   1.535   3.215   5.927  0.1310 -0.8115 -0.6444
12131TIP3    H157808   1.541   3.123   5.952  2.0173 -0.5441  0.0607
12131TIP3    H257809   1.539   3.214   5.831  0.3445 -1.4686 -0.6304
12132TIP3   OH257810   6.100   2.391  11.419  0.2824  0.1035 -0.1800
12132TIP3    H157811   6.146   2.331  11.478  0.4493 -1.3187 -1.6655
12132TIP3    H257812   6.133   2.368  11.332 -0.7459  1.3922 -0.9454
12133TIP3   OH257813   3.091   0.734   2.091 -0.1096 -0.5411  0.4820
12133TIP3    H157814   3.036   0.657   2.081  0.4067 -1.0201  1.3196
12133TIP3    H257815   3.135   0.743   2.006 -3.1523  1.2207 -1.1098
12134TIP3   OH257816   1.143   2.282   3.426 -0.4427  0.1571  0.2207
12134TIP3    H157817   1.198   2.251   3.354 -2.0439 -0.4535 -0.8187
12134TIP3    H257818   1.134   2.376   3.412  0.4923  0.2939  0.5227
12135TIP3   OH257819   5.172   0.726  11.393 -0.1014 -0.2211  0.3231
12135TIP3    H157820   5.129   0.699  11.312 -2.3366 -0.1214  1.4130
12135TIP3    H257821   5.121   0.801  11.424  0.5680 -0.3821  1.9404
12136TIP3   OH257822   6.375   1.849   0.656  0.4178 -0.3073 -0.0937
12136TIP3    H157823   6.373   1.799   0.575 -0.3244  1.7044 -1.3986
12136TIP3    H257824   6.283   1.851   0.686  0.3596  0.5740 -0.2916
12137TIP3   OH257825   3.389   0.737   0.329  0.1008  0.5339  0.2190
12137TIP3    H157826   3.360   0.739   0.420 -0.6018  0.5980  0.0059
12137TIP3    H257827   3.484   0.731   0.334  0.0606  0.3507  0.9564
12138TIP3   OH257828   3.195   5.403   1.875 -0.1421 -0.0732 -0.7754
12138TIP3    H157829   3.275   5.412   1.822  0.1506  1.3757 -0.1228
12138TIP3    H257830   3.128   5.377   1.812  0.1865  1.6899 -1.9014
12139TIP3   OH257831   2.998   0.526  11.945 -0.4541 -0.4600  0.1020
12139TIP3    H157832   3.016   0.445  11.898  0.1111 -0.4708  0.3253
12139TIP3    H257833   2.966   0.587  11.877  0.5500 -0.4094 -0.3457
12140TIP3   OH257834   4.584   3.536  11.328  0.3317 -0.4654 -0.0378
12140TIP3    H157835   4.527   3.594  11.278 -0.2271 -1.2031 -0.2655
12140TIP3    H257836   4.573   3.450  11.288  0.8799 -0.8048  0.5198
12141TIP3   OH257837   6.603   2.895   5.802 -0.0892  0.4796  0.2756
12141TIP3    H157838   6.629   2.820   5.856  1.6088  0.4727 -0.4893
12141TIP3    H257839   6.528   2.863   5.752  0.9763 -0.9533 -0.4803
12142TIP3   OH257840   0.170   4.542   1.605  0.5809 -0.0032 -0.2424
12142TIP3    H157841   0.261   4.524   1.628 -0.0496 -3.8782 -0.2024
12142TIP3    H257842   0.157   4.501   1.520 -1.0974  0.7298 -0.3861
12143TIP3   OH257843   2.930   2.885  14.208  0.9069  0.4432  0.2174
12143TIP3    H157844   3.023   2.875  14.189  0.9240  0.8661  0.0665
12143TIP3    H257845   2.915   2.979  14.204  0.2700  0.3225 -0.7579
12144TIP3   OH257846   4.273   5.333  15.988  0.0307 -0.6969  0.2749
12144TIP3    H157847   4.355   5.374  15.959  0.2278 -1.3895 -0.1608
12144TIP3    H257848   4.276   5.244  15.953 -0.7959 -0.8135  0.4698
12145TIP3   OH257849   1.508   4.515   4.863  0.2456  0.3156 -0.1136
12145TIP3    H157850   1.528   4.421   4.860  2.5826  0.7950 -2.5977
12145TIP3    H257851   1.575   4.552   4.920 -0.2149  0.6029  0.2513
12146TIP3   OH257852   2.803   3.562  12.815  0.3046  0.0152  0.0042
12146TIP3    H157853   2.723   3.513  12.833 -0.1290  0.0006 -1.8087
12146TIP3    H257854   2.826   3.539  12.725  2.5337 -0.2202  0.5704
12147TIP3   OH257855   5.726   6.707  13.453  0.5097  0.0579 -0.0811
12147TIP3    H157856   5.692   6.624  13.420 -0.8327  0.5707 -0.0683
12147TIP3    H257857   5.647   6.758  13.474  1.3067  1.2762  0.0340
12148TIP3   OH257858   2.415   2.698  13.433 -0.3546  0.0152  0.5427
12148TIP3    H157859   2.478   2.744  13.378  0.8651 -0.6480  1.3351
12148TIP3    H257860   2.416   2.608  13.402 -2.7150  0.4232 -0.9866
12149TIP3   OH257861   2.942   0.099   5.373  0.1711 -0.0934 -0.3969
12149TIP3    H157862   2.933   0.189   5.404 -0.4521  0.3198 -1.7053
12149TIP3    H257863   2.882   0.093   5.298  0.4723 -1.4887 -0.5575
12150TIP3   OH257864   5.965   5.467  11.626  0.7184  0.2415 -0.5573
12150TIP3    H157865   5.897   5.530  11.651  1.5768  0.2671  2.0281
12150TIP3    H257866   6.032   5.519  11.583  1.4803  1.2368  1.6736
12151TIP3   OH257867   1.176   1.331  14.908  0.2855  0.2057  0.7228
12151TIP3    H157868   1.169   1.427  14.907 -2.9862  0.0745 -0.1530
12151TIP3    H257869   1.233   1.310  14.834 -1.4844  1.4399 -1.0872
12152TIP3   OH257870   4.309   2.724   5.180  0.2660 -0.1985 -0.0418
12152TIP3    H157871   4.404   2.734   5.188  0.3255 -0.4819 -0.3524
12152TIP3    H257872   4.276   2.722   5.270  0.5218  0.1884  0.0641
12153TIP3   OH257873   6.468   1.621   1.696  0.4853 -0.0978 -0.1436
12153TIP3    H157874   6.404   1.573   1.643  1.7383  0.6181 -2.4138
12153TIP3    H257875   6.416   1.688   1.740 -0.6507 -0.9245 -0.1587
12154TIP3   OH257876   0.851   4.721   5.207 -0.4318  0.6467 -0.0132
12154TIP3    H157877   0.923   4.729   5.145  0.0293 -0.0206  0.4157
12154TIP3    H257878   0.779   4.686   5.156 -0.4927  1.4148 -0.4683
12155TIP3   OH257879   0.744   2.519  14.735  0.1673 -0.0720 -0.7707
12155TIP3    H157880   0.695   2.557  14.662 -1.3785  0.5059  0.5217
12155TIP3    H257881   0.735   2.582  14.806  1.6244 -0.6333 -0.0369
12156TIP3   OH257882   0.127   5.675  15.558  0.5610  0.2926 -0.0296
12156TIP3    H157883   0.079   5.638  15.484 -0.7753  3.3626 -0.8489
12156TIP3    H257884   0.202   5.617  15.569  0.6106 -0.5099 -3.5570
12157TIP3   OH257885   0.801   4.190   3.768  0.4696  0.2096  0.0653
12157TIP3    H157886   0.835   4.126   3.829  0.4071  0.9525  0.8965
12157TIP3    H257887   0.802   4.273   3.816  0.6635  0.8634 -1.0163
12158TIP3   OH257888   3.785   6.369   3.259  0.4802 -0.1085  0.7716
12158TIP3    H157889   3.750   6.455   3.280 -0.2785 -0.0703 -0.5079
12158TIP3    H257890   3.734   6.341   3.182  2.1206 -0.7765 -0.1218
12159TIP3   OH257891   0.210   4.693   5.384 -0.1548  0.7431 -0.4492
12159TIP3    H157892   0.160   4.629   5.332 -1.3233  2.3606 -1.4511
12159TIP3    H257893   0.189   4.672   5.475  0.9010 -1.3611 -0.6514
12160TIP3   OH257894   4.680   5.620  14.276  0.2621  0.3858  0.2481
12160TIP3    H157895   4.773   5.619  14.254  0.5313 -0.0661  1.2993
12160TIP3    H257896   4.678   5.605  14.371 -0.9003 -0.1991  0.1550
12161TIP3   OH257897   5.944   4.042   5.506  0.0875 -0.4069 -0.0949
12161TIP3    H157898   6.020   4.017   5.454 -0.4385 -1.1835 -0.5204
12161TIP3    H257899   5.974   4.040   5.596  1.6213  3.0566 -0.3883
12162TIP3   OH257900   2.035   0.289  13.681 -0.2078  0.2390 -0.2923
12162TIP3    H157901   1.978   0.214  13.664  1.8465 -1.4263 -0.2185
12162TIP3    H257902   2.075   0.272  13.766 -0.6281  2.0837  0.3353
12163TIP3   OH257903   6.095   3.102  12.359  0.4349  0.1228 -0.3302
12163TIP3    H157904   6.142   3.130  12.438 -0.6994 -1.0234  0.7772
12163TIP3    H257905   6.071   3.184  12.316  0.8227  0.7799  0.6578
12164TIP3   OH257906   4.101   1.304   5.497  0.1600  0.0638 -0.3997
12164TIP3    H157907   4.145   1.236   5.445  0.2344 -0.2243  0.0431
12164TIP3    H257908   4.169   1.370   5.512  0.3815 -0.2829  0.1076
12165TIP3   OH257909   1.911   1.009  13.472 -0.1453 -0.1915  0.1719
12165TIP3    H157910   1.960   1.045  13.398 -2.1983 -0.8261 -1.6218
12165TIP3    H257911   1.859   1.083  13.505  0.8757  0.1273  1.1361
12166TIP3   OH257912   6.717   5.496   4.977 -0.5539 -0.6812  0.0303
12166TIP3    H157913   6.676   5.450   4.905 -0.9603 -2.1344  1.1404
12166TIP3    H257914   6.646   5.515   5.038 -0.3998  1.4408 -0.3517
12167TIP3   OH257915   2.964   5.442   3.384  0.2420 -0.4817  0.4764
12167TIP3    H157916   2.880   5.487   3.384 -0.3300 -1.3953  3.0899
12167TIP3    H257917   3.023   5.501   3.337 -1.4230  1.0316  0.2048
12168TIP3   OH257918   2.245   6.052   0.048  0.2611 -0.5244  0.0967
12168TIP3    H157919   2.152   6.032   0.040  0.2825 -1.3345  1.5156
12168TIP3    H257920   2.249   6.147   0.057 -0.4512 -0.5163  0.3463
12169TIP3   OH257921   1.044   2.632   2.105  0.0401  0.4149  0.0237
12169TIP3    H157922   1.062   2.660   2.016 -0.7817 -0.0719 -0.3064
12169TIP3    H257923   1.088   2.697   2.160  0.1983  0.9547 -0.7258
12170TIP3   OH257924   3.404   4.867  15.373 -0.1483  0.1542 -0.0647
12170TIP3    H157925   3.424   4.809  15.299  0.4435 -2.6731  2.1439
12170TIP3    H257926   3.476   4.929  15.375 -0.6051  0.8649 -2.2950
12171TIP3   OH257927   2.139   0.407   6.337 -0.0609  0.0216  0.0139
12171TIP3    H157928   2.188   0.475   6.291 -0.1926 -1.8566 -3.2973
12171TIP3    H257929   2.163   0.416   6.429  1.5361  3.1105 -0.5876
12172TIP3   OH257930   0.754   2.113   0.765  0.2970 -0.5418  0.5034
12172TIP3    H157931   0.751   2.022   0.736 -2.3582 -0.1487 -0.6938
12172TIP3    H257932   0.666   2.131   0.798  0.6934  1.6532  0.5108
12173TIP3   OH257933   5.854   5.969  14.424 -0.0630  0.1640 -0.3421
12173TIP3    H157934   5.779   6.011  14.467 -0.3602 -0.7911  0.0908
12173TIP3    H257935   5.929   6.024  14.448 -0.3652  0.1510  0.6638
12174TIP3   OH257936   1.678   6.704  15.785 -0.3664  0.3656 -0.0169
12174TIP3    H157937   1.772   6.687  15.791 -0.5654 -0.7442  0.3093
12174TIP3    H257938   1.665   6.743  15.699  0.4784  1.2228  0.2296
12175TIP3   OH257939   5.196   5.310  13.383 -0.2226 -0.1939 -0.3058
12175TIP3    H157940   5.151   5.377  13.333 -0.1704 -0.8431 -1.2339
12175TIP3    H257941   5.284   5.346  13.397  0.8075 -1.2353 -3.3709
12176TIP3   OH257942   5.882   4.667   4.120 -1.1451 -0.1490  0.8848
12176TIP3    H157943   5.797   4.628   4.098 -1.5261 -0.4077  2.6612
12176TIP3    H257944   5.934   4.593   4.152 -0.8884  0.3062  1.5392
12177TIP3   OH257945   6.323   2.189   1.236 -0.2190  0.1657  0.4253
12177TIP3    H157946   6.269   2.244   1.294  0.0476  0.2869  0.5570
12177TIP3    H257947   6.259   2.132   1.192 -0.4816  0.4780  0.3967
12178TIP3   OH257948   4.046   4.493   0.236  0.1442  0.0031 -0.0159
12178TIP3    H157949   4.004   4.478   0.151  0.8233 -1.6688 -0.1035
12178TIP3    H257950   4.023   4.415   0.288 -1.1732  1.4884  1.7439
12179TIP3   OH257951   1.459   0.507   4.439  0.2250  0.2896  0.1209
12179TIP3    H157952   1.381   0.558   4.461  1.0364  2.8476 -2.3689
12179TIP3    H257953   1.430   0.448   4.369 -0.0324 -0.6208  0.9784
12180TIP3   OH257954   0.420   0.231   4.987 -0.0996  0.3111 -0.2543
12180TIP3    H157955   0.510   0.226   5.020 -0.8107  0.5812  1.8763
12180TIP3    H257956   0.367   0.246   5.065 -2.2740 -2.2059 -1.0832
12181TIP3   OH257957   1.525   3.203  16.836 -0.0485 -0.9786  0.0942
12181TIP3    H157958   1.578   3.130  16.867  1.2167  0.2707  1.0154
12181TIP3    H257959   1.542   3.274  16.899  1.5572  1.2442 -2.5571
12182TIP3   OH257960   5.271   4.501  11.174 -0.3662  0.2122 -0.8563
12182TIP3    H157961   5.344   4.562  11.166 -0.9213  0.7660 -1.9173
12182TIP3    H257962   5.211   4.543  11.236 -0.1529  0.1164 -0.5790
12183TIP3   OH257963   3.069   4.875  11.255  0.2782 -0.1064  0.6033
12183TIP3    H157964   3.047   4.782  11.268 -1.3655  0.0405 -0.7639
12183TIP3    H257965   3.000   4.922  11.301 -0.3120  0.4049 -0.7634
12184TIP3   OH257966   6.604   3.912  14.111  0.4758 -0.3985  0.2650
12184TIP3    H157967   6.600   3.907  14.206  0.7153 -0.5422  0.2668
12184TIP3    H257968   6.512   3.911  14.083  0.4147 -0.8230  0.4704
12185TIP3   OH257969   6.154   5.861  11.695 -0.0742 -0.0778  0.4829
12185TIP3    H157970   6.124   5.831  11.609 -0.4865 -0.9068  0.9066
12185TIP3    H257971   6.116   5.798  11.757  2.0443 -0.8277  1.0942
12186TIP3   OH257972   0.591   4.174  16.583 -0.2689  0.2120  0.0829
12186TIP3    H157973   0.521   4.120  16.547 -0.5699  0.7723 -0.1809
12186TIP3    H257974   0.634   4.118  16.647 -0.0210 -0.6529 -0.8096
12187TIP3   OH257975   5.847   5.062   2.798 -0.2979 -0.1380 -0.3875
12187TIP3    H157976   5.814   5.074   2.708 -2.7662  1.6107  0.6497
12187TIP3    H257977   5.770   5.038   2.849  0.6429  0.8357  1.6142
12188TIP3   OH257978   3.361   3.901   2.346 -0.0454 -0.4846  0.9011
12188TIP3    H157979   3.313   3.977   2.312 -1.5427 -1.2209  1.2407
12188TIP3    H257980   3.324   3.887   2.434 -0.8223 -2.3862  0.3385
12189TIP3   OH257981   3.904   0.760   3.828  0.3331 -0.3088  0.2215
12189TIP3    H157982   3.969   0.756   3.757  0.6490 -0.6188  0.5239
12189TIP3    H257983   3.883   0.853   3.835  1.4688 -0.0753  0.7560
12190TIP3   OH257984   0.462   3.406   1.627 -0.1705  0.3342  0.5931
12190TIP3    H157985   0.387   3.458   1.655  0.1624  2.0998 -1.4987
12190TIP3    H257986   0.438   3.373   1.541  0.8776 -0.3261  0.5339
12191TIP3   OH257987   1.085   4.108   4.893 -0.2739  0.7057 -0.4684
12191TIP3    H157988   1.103   4.048   4.821 -0.3195  0.3584 -0.1915
12191TIP3    H257989   0.996   4.088   4.921  0.2255 -0.1309  0.6012
12192TIP3   OH257990   0.258   3.449   2.019 -0.3761 -0.4668 -0.0709
12192TIP3    H157991   0.318   3.377   2.039 -0.4483 -0.3319  0.6889
12192TIP3    H257992   0.172   3.417   2.044 -0.5012 -0.3476 -0.3440
12193TIP3   OH257993   0.026   5.399  15.630  0.4372 -0.0979 -0.1180
12193TIP3    H157994  -0.067   5.385  15.616 -0.1824  2.3800  0.9718
12193TIP3    H257995   0.063   5.402  15.542 -0.8740  0.8085 -0.6704
12194TIP3   OH257996   0.452   2.826  14.042 -0.0173 -0.0477 -0.0197
12194TIP3    H157997   0.384   2.893  14.030  0.8334  0.8892  0.2036
12194TIP3    H257998   0.501   2.857  14.119  0.4497 -0.8877  0.0233
12195TIP3   OH257999   0.467   6.562  16.765 -0.4700  0.1921 -0.2890
12195TIP3    H158000   0.408   6.572  16.690 -3.0494  1.0855  1.6726
12195TIP3    H258001   0.460   6.645  16.812  1.2852 -0.2247  0.8007
12196TIP3   OH258002   1.775   5.667  11.980  0.0822 -0.1099  0.0508
12196TIP3    H158003   1.731   5.609  12.042 -1.6860 -0.0376 -1.0499
12196TIP3    H258004   1.854   5.696  12.025 -1.4787  0.5151  2.5527
12197TIP3   OH258005   2.910   1.996  11.324  0.2986  0.3376  0.4468
12197TIP3    H158006   2.942   1.906  11.314 -1.1324 -0.1206 -0.3149
12197TIP3    H258007   2.860   2.012  11.244 -0.7847  1.2418  1.2777
12198TIP3   OH258008   2.978   0.971  14.813 -0.7215  0.2396  0.3009
12198TIP3    H158009   3.065   0.971  14.852 -0.7688  0.7416  0.4140
12198TIP3    H258010   2.968   1.058  14.775 -0.7900 -0.1501 -0.5921
12199TIP3   OH258011   5.438   0.620   2.908 -0.5050  0.1410 -0.5850
12199TIP3    H158012   5.476   0.533   2.912  0.5025  0.5843  3.0236
12199TIP3    H258013   5.507   0.675   2.871  0.6434  0.0744  1.3103
12200TIP3   OH258014   4.942   5.052  14.706  0.7761  0.1879 -0.0451
12200TIP3    H158015   4.908   4.992  14.772  1.2923  0.8605  0.8639
12200TIP3    H258016   4.942   5.002  14.625 -0.4024 -0.4781  0.3496
12201TIP3   OH258017   4.903   1.459  14.764  0.0797  0.3352  0.0645
12201TIP3    H158018   4.903   1.375  14.718  0.4483  1.1470 -1.4703
12201TIP3    H258019   4.861   1.520  14.703 -1.8917  0.9233  1.8744
12202TIP3   OH258020   1.958   2.567   3.815 -0.0601 -0.0621 -0.6573
12202TIP3    H158021   2.031   2.541   3.871 -0.3887  1.2441  0.4333
12202TIP3    H258022   1.887   2.588   3.877 -0.2980  1.8463 -1.5092
12203TIP3   OH258023   2.151   4.956   4.552  0.2798  0.5883 -0.3038
12203TIP3    H158024   2.148   5.025   4.618 -0.4202  0.7658 -0.5111
12203TIP3    H258025   2.142   5.002   4.469  0.0567  0.2693 -0.4563
12204TIP3   OH258026   5.523   2.651  16.440 -0.7732  0.6013  0.0173
12204TIP3    H158027   5.575   2.572  16.432 -1.2174  0.1921  0.9323
12204TIP3    H258028   5.486   2.665  16.353  0.6928  0.8104 -0.6007
12205TIP3   OH258029   0.642   4.392  13.367  0.3475 -0.1408  0.1969
12205TIP3    H158030   0.701   4.397  13.442  1.8871 -1.4698 -0.8769
12205TIP3    H258031   0.609   4.302  13.368 -0.8154  0.2623  0.1213
12206TIP3   OH258032   4.896   6.655   5.622 -0.4624  0.0283 -0.3152
12206TIP3    H158033   4.875   6.580   5.566 -0.0096 -0.4534  0.1405
12206TIP3    H258034   4.971   6.626   5.673  0.1131  1.0310 -0.5687
12207TIP3   OH258035   5.624   1.234   5.418 -0.0769  0.4374 -0.0156
12207TIP3    H158036   5.697   1.242   5.479 -0.0364  1.2373 -0.1599
12207TIP3    H258037   5.563   1.174   5.461 -1.0725  2.6503  1.8360
12208TIP3   OH258038   6.156   5.627  17.074 -0.3684 -0.5204 -0.2693
12208TIP3    H158039   6.195   5.655  17.157 -1.6129 -0.5982  0.3641
12208TIP3    H258040   6.092   5.561  17.099  0.4859 -1.8590 -1.4861
12209TIP3   OH258041   5.045   1.048   4.144 -0.4272 -0.1112 -0.9561
12209TIP3    H158042   5.073   1.139   4.141  0.0665 -0.2166  0.0325
12209TIP3    H258043   5.094   1.005   4.074  0.7561  0.0133 -0.2211
12210TIP3   OH258044   2.411   0.831  16.846 -0.0914  0.1756 -0.5358
12210TIP3    H158045   2.480   0.798  16.789  0.3272 -1.7177  0.9676
12210TIP3    H258046   2.420   0.781  16.927 -0.9134  2.4600  1.0805
12211TIP3   OH258047   2.025   1.223   1.279 -0.4704  0.5576  0.3679
12211TIP3    H158048   2.112   1.186   1.292 -1.2444 -1.5229  0.0996
12211TIP3    H258049   1.968   1.170   1.335 -1.7195  1.0927 -0.3582
12212TIP3   OH258050   5.891   6.579  16.408 -0.1057  0.0178 -0.3878
12212TIP3    H158051   5.948   6.650  16.378 -0.3412  0.1156 -0.6071
12212TIP3    H258052   5.923   6.559  16.496 -0.6768  1.0748  0.0789
12213TIP3   OH258053   2.725   0.933   2.295  0.2496 -0.0043  0.4514
12213TIP3    H158054   2.674   0.897   2.368  0.9823 -1.9356  0.0705
12213TIP3    H258055   2.675   0.910   2.217  1.0869 -0.9070  0.1547
12214TIP3   OH258056   3.252   5.450  13.284  0.4968 -0.1238  0.6198
12214TIP3    H158057   3.218   5.369  13.246  0.2985  0.9404 -1.5960
12214TIP3    H258058   3.178   5.511  13.282  1.7707  1.5075 -2.1226
12215TIP3   OH258059   3.320   3.371  17.003  0.3624  0.5488  0.6598
12215TIP3    H158060   3.368   3.289  16.997 -2.5697 -1.1840 -2.2473
12215TIP3    H258061   3.288   3.373  17.094  2.2259 -0.3753  1.3838
12216TIP3   OH258062   6.748   3.716   4.793  0.1459  0.1907 -0.5086
12216TIP3    H158063   6.654   3.713   4.811  0.1227  1.2527 -0.3497
12216TIP3    H258064   6.778   3.626   4.803 -0.2869  0.2777  2.4766
12217TIP3   OH258065   0.292   5.449  16.672  0.4246 -0.3700 -0.1576
12217TIP3    H158066   0.271   5.521  16.612  0.6678 -0.5463 -0.4646
12217TIP3    H258067   0.318   5.377  16.614 -0.2579 -0.8521  0.1303
12218TIP3   OH258068   2.336   5.150  12.846  0.0131  0.4990  0.9656
12218TIP3    H158069   2.337   5.244  12.863 -1.3386  0.5881  0.6179
12218TIP3    H258070   2.362   5.110  12.929 -2.0137  1.0923  1.9387
12219TIP3   OH258071   1.399   6.252  11.172  0.8987  0.5435 -0.1077
12219TIP3    H158072   1.442   6.172  11.143  0.9032  0.0218  1.2755
12219TIP3    H258073   1.305   6.233  11.167  0.8872  0.6362 -0.2626
12220TIP3   OH258074   4.489   3.306   4.667 -0.5003 -0.2212  0.3887
12220TIP3    H158075   4.562   3.361   4.698  0.0463  0.3121 -1.7012
12220TIP3    H258076   4.498   3.306   4.572 -3.1522 -0.2866  0.0699
12221TIP3   OH258077   4.974   4.447  11.532  0.8162 -0.3043  0.5940
12221TIP3    H158078   5.038   4.377  11.518  0.7520 -0.1548 -0.5313
12221TIP3    H258079   4.892   4.412  11.496  0.6957  0.2004  0.3726
12222TIP3   OH258080   2.888   1.864  14.688  1.0810 -0.1339  0.3782
12222TIP3    H158081   2.969   1.892  14.729  1.5277  0.2711 -0.7530
12222TIP3    H258082   2.898   1.887  14.596  0.9183 -2.8011 -0.3770
12223TIP3   OH258083   5.593   5.692   1.499 -0.0595  0.1659  0.1344
12223TIP3    H158084   5.557   5.778   1.478  0.0267  0.1867  0.0707
12223TIP3    H258085   5.517   5.633   1.497 -0.3397  0.4486  1.4343
12224TIP3   OH258086   4.743   4.799  12.125  0.0189 -0.0972  0.1968
12224TIP3    H158087   4.786   4.866  12.177  0.3064 -0.2621  0.1731
12224TIP3    H258088   4.650   4.822  12.128 -0.0142 -0.3105  1.0922
12225TIP3   OH258089   3.170   0.359   2.076  0.5403 -0.3161  0.6684
12225TIP3    H158090   3.143   0.293   2.141 -1.2800 -0.2015  0.0934
12225TIP3    H258091   3.235   0.412   2.122  0.9778 -1.6221  1.6279
12226TIP3   OH258092   4.491   2.579  16.972 -0.6348  0.0333 -0.4145
12226TIP3    H158093   4.455   2.605  17.057 -0.5551 -0.9583 -0.0605
12226TIP3    H258094   4.574   2.537  16.994  0.9153  2.4893 -1.2274
12227TIP3   OH258095   5.838   0.681  16.462  0.2263  0.0260 -0.1584
12227TIP3    H158096   5.889   0.636  16.529 -0.5334 -0.4138  0.1466
12227TIP3    H258097   5.893   0.754  16.434  0.7132 -0.0129  0.6700
12228TIP3   OH258098   4.297   3.476   5.040 -0.4762 -0.0881  0.0081
12228TIP3    H158099   4.350   3.542   4.995 -0.5275 -0.3248 -0.4056
12228TIP3    H258100   4.254   3.524   5.111  1.0617 -0.0898  0.9916
12229TIP3   OH258101   0.957   0.641   0.029  0.4891 -0.2753 -0.0130
12229TIP3    H158102   0.922   0.555   0.003 -1.0444 -0.2397  1.7457
12229TIP3    H258103   0.880   0.693   0.050  1.4315  1.4074 -0.5866
12230TIP3   OH258104   1.160   4.445  15.494  0.3596 -0.1691  0.3478
12230TIP3    H158105   1.068   4.418  15.501  0.4379 -0.5705 -0.1251
12230TIP3    H258106   1.164   4.527  15.543 -0.3865  0.1669 -0.1206
12231TIP3   OH258107   5.301   4.485  12.439 -0.1269  0.3107  0.3997
12231TIP3    H158108   5.359   4.534  12.497  0.5744  1.3939 -1.1550
12231TIP3    H258109   5.265   4.416  12.494  3.0625 -0.7964  1.3217
12232TIP3   OH258110   1.435   0.152  16.330 -0.6096  0.5466  0.3332
12232TIP3    H158111   1.384   0.071  16.333 -2.0120  1.4068  0.3832
12232TIP3    H258112   1.416   0.196  16.413 -0.3663  1.2223  0.0391
12233TIP3   OH258113   0.387   1.932   3.801  0.1785  0.2049 -0.1470
12233TIP3    H158114   0.448   1.989   3.848 -0.5546 -0.1872  1.3415
12233TIP3    H258115   0.348   1.878   3.869 -0.0033 -1.2864 -1.3852
12234TIP3   OH258116   2.622   4.173  17.372  0.1170  0.4004 -0.0076
12234TIP3    H158117   2.531   4.170  17.341  0.0865 -0.5171  0.1656
12234TIP3    H258118   2.650   4.082  17.375 -0.1701  0.2692  3.5418
12235TIP3   OH258119   2.283   5.824  13.036  0.4955 -0.1293  0.0776
12235TIP3    H158120   2.203   5.841  13.085  0.3695 -1.6700  0.4745
12235TIP3    H258121   2.267   5.860  12.949 -1.2124 -1.6395 -0.2941
12236TIP3   OH258122   1.947   1.748  16.015  0.5082 -0.0730  0.2118
12236TIP3    H158123   1.935   1.823  15.957  0.5099 -0.3820 -0.1945
12236TIP3    H258124   1.860   1.731  16.051  0.4898  0.0677  0.2335
12237TIP3   OH258125   0.053   3.920  12.522 -0.1567 -0.6060 -0.2251
12237TIP3    H158126   0.097   3.978  12.584  0.7730  1.0131 -2.2888
12237TIP3    H258127   0.120   3.856  12.497  0.7521  1.0411 -2.3341
12238TIP3   OH258128   0.535   4.623   3.531  0.6280 -0.0627 -0.7363
12238TIP3    H158129   0.458   4.585   3.573  1.8352 -1.9629 -0.1011
12238TIP3    H258130   0.505   4.708   3.499 -1.8124 -0.8404 -0.7918
12239TIP3   OH258131   3.899   5.985   2.180  0.3197 -0.0487 -0.5228
12239TIP3    H158132   3.822   6.022   2.222 -0.1169 -1.5273  0.0453
12239TIP3    H258133   3.971   6.040   2.209 -0.3395  0.5561  0.0122
12240TIP3   OH258134   2.273   0.786  15.798  0.2959 -0.0150  0.0050
12240TIP3    H158135   2.184   0.755  15.780 -0.5572  1.1994  1.8647
12240TIP3    H258136   2.282   0.866  15.747  1.2482 -1.3568 -2.0626
12241TIP3   OH258137   1.279   3.434  15.973 -0.1959  0.1631 -1.1946
12241TIP3    H158138   1.218   3.483  16.029 -0.8572 -0.8074 -1.0480
12241TIP3    H258139   1.262   3.467  15.885  0.1611  0.9920 -0.9686
12242TIP3   OH258140   1.109   2.411  16.853 -0.5443 -0.1778 -0.0076
12242TIP3    H158141   1.158   2.479  16.900 -0.6137 -1.1393  1.5368
12242TIP3    H258142   1.116   2.436  16.761 -0.7349  2.0125  0.5147
12243TIP3   OH258143   0.760   1.288   2.265 -0.2536 -0.3003  0.1817
12243TIP3    H158144   0.721   1.222   2.208 -1.6520  1.3823 -0.9041
12243TIP3    H258145   0.835   1.244   2.305 -0.3987 -2.1443 -1.4387
12244TIP3   OH258146   1.475   1.927  11.185  0.3529  0.0451 -0.1687
12244TIP3    H158147   1.422   1.973  11.120 -0.6089 -0.6994  0.0618
12244TIP3    H258148   1.524   1.862  11.134 -1.3025 -1.3668 -0.0836
12245TIP3   OH258149   3.391   1.996  16.118 -0.3063  0.7000 -0.2533
12245TIP3    H158150   3.344   1.924  16.160  1.1632  0.4047  0.9533
12245TIP3    H258151   3.335   2.073  16.132  0.0346  0.5781  2.1310
12246TIP3   OH258152   0.379   0.113   0.404 -0.2988  0.2988 -0.2845
12246TIP3    H158153   0.447   0.078   0.347 -0.2845 -3.3578  1.6360
12246TIP3    H258154   0.297   0.096   0.357 -0.1518 -0.4588 -0.2823
12247TIP3   OH258155   2.538   2.008   2.010 -0.1449 -0.1323 -0.6902
12247TIP3    H158156   2.504   1.966   2.089 -3.0213  1.5186 -0.9045
12247TIP3    H258157   2.543   1.937   1.945 -1.2176 -0.8536 -0.0045
12248TIP3   OH258158   2.556   3.503   5.855  0.0742 -0.2188 -0.1552
12248TIP3    H158159   2.594   3.508   5.768 -0.9464 -0.4710 -0.6354
12248TIP3    H258160   2.552   3.594   5.886  2.6617 -0.3150  0.6585
12249TIP3   OH258161   1.944   3.538   4.370 -0.9334 -0.3624 -0.5596
12249TIP3    H158162   2.029   3.579   4.385 -0.9239 -0.5517 -0.0560
12249TIP3    H258163   1.963   3.462   4.315 -0.6545 -0.8732  0.2241
12250TIP3   OH258164   1.833   1.394  15.849 -0.6293  0.1761  0.2369
12250TIP3    H158165   1.855   1.454  15.778 -0.7264 -2.1090 -1.8859
12250TIP3    H258166   1.908   1.399  15.910 -0.2932  1.8090 -0.2795
12251TIP3   OH258167   5.684   3.674  16.265  0.0319  0.4661 -0.5684
12251TIP3    H158168   5.750   3.708  16.204  0.6503  0.0585 -0.1430
12251TIP3    H258169   5.650   3.751  16.310  0.2720  0.6728 -0.7432
12252TIP3   OH258170   6.363   2.531  15.458  0.3140  0.1352 -0.0501
12252TIP3    H158171   6.416   2.564  15.530  1.1121 -0.2313 -0.4559
12252TIP3    H258172   6.283   2.583  15.461 -0.8728 -1.5961  2.7420
12253TIP3   OH258173   3.088   0.673  17.004 -0.0933  0.4414  0.0765
12253TIP3    H158174   3.090   0.649  17.096  1.5455 -1.8643 -0.4652
12253TIP3    H258175   3.168   0.726  16.991 -0.3063  0.7413 -0.0418
12254TIP3   OH258176   5.618   6.548  13.145 -0.5380 -0.0226  0.4575
12254TIP3    H158177   5.531   6.574  13.174 -0.1887  0.9843  0.6362
12254TIP3    H258178   5.656   6.628  13.109  0.9156 -0.0358  1.8734
12255TIP3   OH258179   4.619   2.406  15.078  0.5548 -0.5586  0.6652
12255TIP3    H158180   4.644   2.498  15.086  2.0194 -0.5298 -2.6213
12255TIP3    H258181   4.665   2.362  15.150  0.5431  1.1377  1.7529
12256TIP3   OH258182   0.142   4.092   3.286 -0.9282 -0.3284 -0.1625
12256TIP3    H158183   0.218   4.035   3.300 -0.0267  0.7453 -0.5311
12256TIP3    H258184   0.066   4.036   3.302 -0.0587 -1.0697  1.6740
12257TIP3   OH258185   3.142   4.132   4.373  0.0965  0.0921  0.6323
12257TIP3    H158186   3.209   4.080   4.416  0.7901 -0.2119 -0.7614
12257TIP3    H258187   3.190   4.206   4.334  0.0297 -1.1725 -2.1058
12258TIP3   OH258188   5.253   4.268  11.642  0.5260 -0.1393  0.3651
12258TIP3    H158189   5.252   4.217  11.723  3.2396 -1.0528 -0.0852
12258TIP3    H258190   5.315   4.339  11.659 -0.1047  0.6289 -0.4101
12259TIP3   OH258191   0.651   5.166  11.459  1.1443  0.1649  1.2155
12259TIP3    H158192   0.701   5.247  11.462  0.8314  0.5713 -1.7431
12259TIP3    H258193   0.562   5.192  11.484  1.3360  0.4190  1.6509
12260TIP3   OH258194   1.681   3.794   5.443  0.2981 -0.4531 -0.2073
12260TIP3    H158195   1.754   3.856   5.454 -1.3356  1.7028 -0.9228
12260TIP3    H258196   1.669   3.788   5.348  0.0329 -1.4317 -0.1235
12261TIP3   OH258197   0.134   5.044   4.520 -0.1351  0.2510  0.2656
12261TIP3    H158198   0.049   5.088   4.526  0.0434  0.4403  1.8301
12261TIP3    H258199   0.160   5.030   4.611  0.7262 -1.3430 -0.1817
12262TIP3   OH258200   0.598   0.226  16.831 -0.0655 -0.1226  0.0925
12262TIP3    H158201   0.545   0.306  16.820  1.3907  1.2371  2.1685
12262TIP3    H258202   0.534   0.159  16.855 -1.1105  0.9781  0.5273
12263TIP3   OH258203   5.233   1.820  12.928  0.0679  0.9228  0.0220
12263TIP3    H158204   5.178   1.885  12.970  0.2106  0.8944  0.2546
12263TIP3    H258205   5.264   1.863  12.848 -2.2171  0.1150 -1.3971
12264TIP3   OH258206   0.859   0.072   5.436  0.0503 -0.4663 -0.8651
12264TIP3    H158207   0.903   0.078   5.352  0.6685  0.9286 -0.4796
12264TIP3    H258208   0.774   0.113   5.422 -0.2623 -1.1714 -1.0601
12265TIP3   OH258209   5.370   1.973  12.715 -0.2843 -0.4488  0.4058
12265TIP3    H158210   5.301   2.038  12.729 -0.5788 -0.9842  1.5501
12265TIP3    H258211   5.371   1.959  12.621  0.4063  1.8756 -0.0152
12266TIP3   OH258212   2.087   2.742  16.163  0.1742  0.0446 -0.3138
12266TIP3    H158213   2.101   2.758  16.070 -1.4327  2.1650 -0.2734
12266TIP3    H258214   2.175   2.747  16.202  0.7088  0.4689 -1.5453
12267TIP3   OH258215   5.497   5.207   5.083 -0.1513 -0.0479 -0.1799
12267TIP3    H158216   5.442   5.164   5.149 -1.3295  1.3508 -0.1884
12267TIP3    H258217   5.435   5.237   5.016  0.7159  0.8346 -0.6161
12268TIP3   OH258218   4.421   4.445   4.856  0.1997  0.0531  0.0827
12268TIP3    H158219   4.347   4.385   4.867  0.6532 -0.3973  0.7766
12268TIP3    H258220   4.495   4.389   4.834  0.5058  0.4133  0.1692
12269TIP3   OH258221   4.892   5.529  14.801  0.2593 -0.0436  0.4456
12269TIP3    H158222   4.959   5.514  14.734 -0.1656  0.1780 -0.0295
12269TIP3    H258223   4.865   5.442  14.828  0.3724 -0.1334  0.2693
12270TIP3   OH258224   5.649   0.670   3.582  0.3968  0.2528 -0.0113
12270TIP3    H158225   5.745   0.662   3.585  0.4204  0.7580  0.6074
12270TIP3    H258226   5.625   0.709   3.666 -0.3637  0.0734 -0.1373
12271TIP3   OH258227   5.958   5.705  13.457  0.2288  0.4276 -0.0104
12271TIP3    H158228   6.024   5.763  13.417 -0.3867 -0.1466 -1.9912
12271TIP3    H258229   5.880   5.719  13.404 -0.3231 -1.2296  0.3308
12272TIP3   OH258230   1.431   0.384   5.451  0.3171  0.8536 -0.1590
12272TIP3    H158231   1.416   0.465   5.501 -0.4727  1.3946 -1.2191
12272TIP3    H258232   1.404   0.406   5.361 -5.1900 -1.9894  0.3309
12273TIP3   OH258233   0.107   5.109  11.571 -0.2114 -0.4344  0.2224
12273TIP3    H158234   0.058   5.030  11.549  2.5123 -1.8682 -1.3167
12273TIP3    H258235   0.083   5.172  11.503 -2.4588  0.1829  1.5033
12274TIP3   OH258236   6.349   2.517  17.268 -0.4149 -0.5759 -0.0211
12274TIP3    H158237   6.421   2.516  17.331 -0.0657 -0.4958 -0.4149
12274TIP3    H258238   6.320   2.609  17.266 -0.6052 -0.6279  0.2177
12275TIP3   OH258239   3.211   0.832   1.646  0.1430  0.3193 -0.1724
12275TIP3    H158240   3.135   0.851   1.591 -0.9869  0.1705  1.2707
12275TIP3    H258241   3.254   0.916   1.659  0.6574  0.2932 -1.5753
12276TIP3   OH258242   5.061   3.914  11.737  0.1429  0.3602 -0.3755
12276TIP3    H158243   5.059   3.906  11.642  2.8208 -1.1440 -0.4016
12276TIP3    H258244   5.144   3.957  11.756 -1.1537  2.3602  1.2827
12277TIP3   OH258245   5.986   5.304  15.048 -0.1857 -0.3995  0.2915
12277TIP3    H158246   6.068   5.272  15.010 -0.3347  0.9718 -1.2998
12277TIP3    H258247   5.926   5.229  15.041 -0.6301  0.1072 -3.6518
12278TIP3   OH258248   4.002   6.286  12.777 -0.0916  0.1609 -0.7719
12278TIP3    H158249   4.041   6.277  12.690  1.4853 -1.4721  0.0291
12278TIP3    H258250   4.064   6.342  12.825 -0.1802 -0.1599 -0.2824
12279TIP3   OH258251   0.537   0.274   5.886 -0.1627 -0.1172 -0.5396
12279TIP3    H158252   0.607   0.332   5.855 -1.0764  1.1066 -0.3967
12279TIP3    H258253   0.457   0.314   5.853 -0.9186 -0.5759  0.6856
12280TIP3   OH258254   3.770   3.264  15.624 -0.0700  0.7174  0.0368
12280TIP3    H158255   3.683   3.273  15.585 -0.5305  1.0015  1.1002
12280TIP3    H258256   3.821   3.335  15.586 -0.9830  2.0327  1.1794
12281TIP3   OH258257   0.053   4.654  16.104  0.1393 -0.0557  0.5693
12281TIP3    H158258   0.107   4.674  16.029  0.4048  0.5226  0.9134
12281TIP3    H258259  -0.027   4.616  16.067  1.0553 -1.5893  0.0882
12282TIP3   OH258260   2.563   4.831   1.535  0.5723 -0.7761  0.1533
12282TIP3    H158261   2.545   4.810   1.627 -1.9419 -0.4583 -0.1816
12282TIP3    H258262   2.646   4.878   1.536 -0.2861  0.8510  2.5166
12283TIP3   OH258263   2.803   0.591  15.316  0.8837  0.0251  0.9354
12283TIP3    H158264   2.844   0.673  15.287 -0.5256  0.2223 -0.6402
12283TIP3    H258265   2.816   0.591  15.411  3.4706  0.6102  0.6683
12284TIP3   OH258266   0.189   3.430   0.523  0.0550 -0.1827 -0.4995
12284TIP3    H158267   0.252   3.475   0.467  0.5144 -0.3941 -0.1556
12284TIP3    H258268   0.111   3.485   0.520  1.0708  1.4360  1.0696
12285TIP3   OH258269   3.550   0.572   3.314  0.2515 -0.1666 -0.3442
12285TIP3    H158270   3.587   0.508   3.376  2.7409  1.4731  0.0186
12285TIP3    H258271   3.535   0.650   3.368 -0.4071  0.3375 -1.2463
12286TIP3   OH258272   6.016   0.388   0.084 -1.3008 -0.5391 -0.3887
12286TIP3    H158273   6.103   0.352   0.099 -1.1826 -0.5646 -1.1140
12286TIP3    H258274   5.971   0.322   0.031 -0.6236  0.9109 -2.9585
12287TIP3   OH258275   0.930   2.494   5.375  0.6882 -0.1356 -0.2676
12287TIP3    H158276   0.990   2.471   5.304  0.3938  0.3861 -0.6935
12287TIP3    H258277   0.922   2.414   5.427 -0.2600 -1.0022 -1.6686
12288TIP3   OH258278   6.101   4.786  14.925  0.1442  0.2074  0.4273
12288TIP3    H158279   6.116   4.692  14.932 -0.7470 -0.0369 -0.5744
12288TIP3    H258280   6.032   4.794  14.859  0.7486  1.6043 -0.0752
12289TIP3   OH258281   5.359   5.528   1.551 -0.4981 -0.1014 -0.5925
12289TIP3    H158282   5.312   5.568   1.624  0.8204 -0.6947  0.6208
12289TIP3    H258283   5.334   5.436   1.554  0.6497 -0.4148  0.0400
12290TIP3   OH258284   0.750   5.926   1.980 -0.5030  0.4086 -0.4580
12290TIP3    H158285   0.821   5.868   1.951 -1.2291  0.0538 -1.6129
12290TIP3    H258286   0.776   6.013   1.951 -0.1045  0.4307 -0.0399
12291TIP3   OH258287   0.088   5.039  14.939 -0.1718 -0.2273  0.1863
12291TIP3    H158288   0.150   5.104  14.973 -0.4106 -0.5268  1.2388
12291TIP3    H258289   0.044   5.083  14.867  1.8540 -0.2981 -1.1755
12292TIP3   OH258290   0.821   0.261   1.013  0.2032 -0.3512 -0.2809
12292TIP3    H158291   0.913   0.285   1.017  0.6215 -1.7933 -0.7520
12292TIP3    H258292   0.820   0.174   0.973 -1.2970 -0.7100  0.4562
12293TIP3   OH258293   1.569   4.854  15.303 -0.0038 -0.1359  0.1186
12293TIP3    H158294   1.633   4.794  15.263 -0.1843 -0.4583  0.3091
12293TIP3    H258295   1.498   4.861  15.239  0.5884  0.8774 -0.4656
12294TIP3   OH258296   6.272   4.249  12.476  0.4515  0.2057  0.5791
12294TIP3    H158297   6.264   4.269  12.383  0.8413 -0.0322  0.4928
12294TIP3    H258298   6.199   4.189  12.493  0.4221  0.1917  0.4112
12295TIP3   OH258299   3.108   3.513  11.212 -0.3404 -0.3929  0.5071
12295TIP3    H158300   3.020   3.536  11.243 -0.9870 -0.0492 -1.4232
12295TIP3    H258301   3.143   3.596  11.180 -0.5697 -1.0491 -1.5779
12296TIP3   OH258302   6.556   2.785   3.151  0.5681 -0.2385 -0.2210
12296TIP3    H158303   6.597   2.756   3.070 -0.0050 -0.7573 -0.3297
12296TIP3    H258304   6.620   2.846   3.189  1.0550 -0.3657 -0.8109
12297TIP3   OH258305   1.669   1.551  13.347  0.8349 -0.6804 -0.3124
12297TIP3    H158306   1.732   1.564  13.418  0.9043 -0.3214 -0.4392
12297TIP3    H258307   1.668   1.634  13.300 -0.7205 -0.1894  0.4891
12298TIP3   OH258308   4.778   1.788   4.127  0.2243 -0.3373  0.2976
12298TIP3    H158309   4.733   1.742   4.057  0.1344 -0.1794  0.2520
12298TIP3    H258310   4.709   1.811   4.189  0.1732  0.3154  0.0024
12299TIP3   OH258311   5.151   2.355   4.169 -0.2062  0.4053  0.3342
12299TIP3    H158312   5.205   2.410   4.227  0.3988  0.9315 -0.7081
12299TIP3    H258313   5.062   2.366   4.203 -0.4349  3.5724 -0.9195
12300TIP3   OH258314   2.010   2.344   3.332  0.1617 -0.0002 -0.0030
12300TIP3    H158315   1.986   2.376   3.245 -1.4702  1.4320  0.9207
12300TIP3    H258316   1.989   2.417   3.391  1.1585 -0.9681  1.6126
12301TIP3   OH258317   4.677   3.599  17.234  0.5921  0.0105 -0.0318
12301TIP3    H158318   4.742   3.610  17.304  0.6027 -1.2650  0.1782
12301TIP3    H258319   4.703   3.664  17.168  1.1452  0.5814  0.7201
12302TIP3   OH258320   3.785   3.432  11.387 -0.4050  0.3944 -0.1298
12302TIP3    H158321   3.748   3.477  11.463 -1.5072  0.3958 -0.6518
12302TIP3    H258322   3.768   3.492  11.314  2.6749  1.4843 -0.0985
12303TIP3   OH258323   1.163   0.462   5.530 -0.0174 -0.6496  0.1937
12303TIP3    H158324   1.205   0.415   5.602  1.4555 -0.1994 -0.3526
12303TIP3    H258325   1.141   0.394   5.467 -1.2442 -1.0379  1.0007
12304TIP3   OH258326   4.383   0.999   2.874  0.3036  0.3403  0.1525
12304TIP3    H158327   4.367   0.965   2.963 -0.9264  1.1573  0.2702
12304TIP3    H258328   4.333   0.940   2.817 -0.9655  1.2722  0.2597
12305TIP3   OH258329   1.717   5.961   3.864  0.5270 -0.0856 -0.0343
12305TIP3    H158330   1.773   5.987   3.937 -0.5781  1.3556  0.3496
12305TIP3    H258331   1.757   5.881   3.830  2.9591  1.0192  0.0342
12306TIP3   OH258332   6.751   6.285   5.102  0.1193  0.0288  0.3897
12306TIP3    H158333   6.738   6.307   5.195  1.1751 -0.7354  0.7462
12306TIP3    H258334   6.838   6.319   5.082 -0.6162  1.3336 -0.7105
12307TIP3   OH258335   0.177   3.007   4.067  0.1651  0.5120  0.5262
12307TIP3    H158336   0.222   3.090   4.084 -0.0732  0.6770  0.3561
12307TIP3    H258337   0.247   2.945   4.047  0.4998  0.2218  2.4069
12308TIP3   OH258338   4.662   1.580   1.084  0.2098  0.5136 -0.1704
12308TIP3    H158339   4.757   1.574   1.076  0.7172 -1.1837  4.1160
12308TIP3    H258340   4.645   1.674   1.096  1.6062  0.7098  0.5330
12309TIP3   OH258341   0.395   5.322  16.267 -0.4392 -0.3134 -0.0852
12309TIP3    H158342   0.433   5.260  16.205 -0.5567 -0.2315 -0.2403
12309TIP3    H258343   0.438   5.405  16.248  1.2640 -0.7742  1.5230
12310TIP3   OH258344   0.521   0.290  12.876  0.7288 -0.2369 -0.6212
12310TIP3    H158345   0.527   0.237  12.797 -1.2147  0.8955 -1.5970
12310TIP3    H258346   0.475   0.235  12.939  1.9569 -1.0072 -0.3643
12311TIP3   OH258347   2.428   3.144  16.868  0.7879 -0.6898 -0.3016
12311TIP3    H158348   2.405   3.236  16.880 -0.7411 -0.9518 -0.8778
12311TIP3    H258349   2.486   3.123  16.941  2.3407  1.0798 -0.9457
12312TIP3   OH258350   1.080   4.432  13.265 -0.3250 -0.2633  0.4637
12312TIP3    H158351   0.986   4.446  13.277 -0.2384  1.4513 -0.6435
12312TIP3    H258352   1.086   4.342  13.233 -1.3601 -1.2373  2.7574
12313TIP3   OH258353   1.310   3.207  12.638  0.2442 -0.4323  0.2199
12313TIP3    H158354   1.256   3.284  12.617  0.1845 -1.0370 -2.1310
12313TIP3    H258355   1.247   3.136  12.650  0.3649 -0.3909  1.1992
12314TIP3   OH258356   1.277   3.799  13.346 -0.0582 -0.9610  0.2554
12314TIP3    H158357   1.233   3.809  13.430  1.2751 -0.7240  0.9423
12314TIP3    H258358   1.214   3.751  13.291 -0.6900 -1.6885  1.5792
12315TIP3   OH258359   5.103   4.821  11.866  0.0970  0.7046 -0.2635
12315TIP3    H158360   5.030   4.873  11.900  0.0579 -1.0000  2.5513
12315TIP3    H258361   5.165   4.815  11.938  0.5496 -2.2665 -0.7700
12316TIP3   OH258362   3.772   0.823  16.590 -0.2607 -0.1026  0.8228
12316TIP3    H158363   3.840   0.890  16.589  1.6210 -1.9196  0.9076
12316TIP3    H258364   3.704   0.857  16.531  1.3969  1.0964 -0.4879
12317TIP3   OH258365   4.205   6.334  16.632 -0.3762 -0.2708  0.0469
12317TIP3    H158366   4.273   6.332  16.699 -0.3004  0.4613 -0.0006
12317TIP3    H258367   4.127   6.367  16.677 -0.9081 -1.7704  0.2717
12318TIP3   OH258368   3.208   0.382  15.111 -0.3264  0.4668 -0.0476
12318TIP3    H158369   3.279   0.385  15.047 -0.7487  0.0499 -0.5533
12318TIP3    H258370   3.199   0.472  15.142  0.2167  0.5776 -0.2033
12319TIP3   OH258371   0.024   0.319  12.154 -0.2098 -0.3039  0.2175
12319TIP3    H158372   0.025   0.231  12.117  3.7725  0.7606 -2.9513
12319TIP3    H258373   0.065   0.309  12.240  0.9347 -1.5044 -0.4261
12320TIP3   OH258374   6.044   4.513  13.832  0.6402  0.6317  0.1856
12320TIP3    H158375   6.086   4.439  13.876  1.0180  0.3473 -0.6364
12320TIP3    H258376   6.085   4.591  13.872  2.3875  0.3620 -0.9646
12321TIP3   OH258377   4.081   1.924  14.110  0.6361 -0.2944 -0.2694
12321TIP3    H158378   4.029   1.859  14.158 -0.9323  1.4114  0.4771
12321TIP3    H258379   4.036   1.934  14.026 -0.1715  1.0262  0.2915
12322TIP3   OH258380   3.252   3.776  16.824 -0.1419 -0.7245  0.1054
12322TIP3    H158381   3.202   3.811  16.750 -1.4665 -0.2533  1.1767
12322TIP3    H258382   3.277   3.688  16.796  1.0923  0.1225 -1.6596
12323TIP3   OH258383   2.566   2.858  16.140  0.3566  0.9454 -0.0412
12323TIP3    H158384   2.617   2.809  16.077  4.2559  2.1130  1.8994
12323TIP3    H258385   2.573   2.949  16.111  0.5733  1.2792  1.0201
12324TIP3   OH258386   1.032   1.045   6.091  0.0007 -0.1303 -0.7564
12324TIP3    H158387   1.050   1.123   6.038 -1.6076  0.6017 -0.2947
12324TIP3    H258388   1.081   1.060   6.173 -0.3466  0.4351 -0.6441
12325TIP3   OH258389   0.130   4.062  16.628 -0.4927  0.5467  0.2456
12325TIP3    H158390   0.139   4.130  16.561 -1.2903  1.0886  0.6722
12325TIP3    H258391   0.115   3.982  16.578 -2.4200  1.1466 -0.2486
12326TIP3   OH258392   1.093   1.506   3.579  0.3296  0.4263 -0.4257
12326TIP3    H158393   1.165   1.444   3.564  2.3461  2.3180  0.8180
12326TIP3    H258394   1.051   1.474   3.659  2.0780  1.1951  0.8672
12327TIP3   OH258395   3.346   5.198  16.651  0.4608 -0.0137 -0.2568
12327TIP3    H158396   3.410   5.145  16.699  0.5160 -2.2234 -2.5553
12327TIP3    H258397   3.341   5.157  16.565 -4.6417 -0.4856 -0.0197
12328TIP3   OH258398   3.443   5.880  12.198 -0.4645 -0.0147  0.2026
12328TIP3    H158399   3.484   5.821  12.135  0.9704  0.1344  0.9458
12328TIP3    H258400   3.384   5.934  12.145  0.3204 -0.2271 -0.9259
12329TIP3   OH258401   5.779   5.188  13.578  0.0492 -0.0554  0.5234
12329TIP3    H158402   5.715   5.181  13.508 -0.8470 -1.1340  1.4063
12329TIP3    H258403   5.845   5.121  13.558  0.3414  0.3379  0.1703
12330TIP3   OH258404   2.074   0.635  11.958 -0.2339 -0.3631 -0.0882
12330TIP3    H158405   2.154   0.625  12.010 -0.5115 -0.3240  0.3472
12330TIP3    H258406   2.105   0.664  11.872  0.0895  1.4751  0.6177
12331TIP3   OH258407   4.394   0.078   5.129  0.3593  0.2758 -0.6710
12331TIP3    H158408   4.358   0.015   5.191  0.4254  0.2586 -0.6501
12331TIP3    H258409   4.363   0.163   5.161 -1.8361  0.0977 -2.0835
12332TIP3   OH258410   1.669   0.551   2.705 -0.2987  0.2701 -0.2018
12332TIP3    H158411   1.761   0.554   2.731 -0.1156 -1.0106 -0.6341
12332TIP3    H258412   1.636   0.639   2.724  0.8357  0.5540  0.5806
12333TIP3   OH258413   3.895   6.239  14.487 -0.4907 -0.1073  0.0453
12333TIP3    H158414   3.887   6.145  14.499 -2.3217 -0.0769 -0.6879
12333TIP3    H258415   3.904   6.274  14.576 -2.7079 -0.7580  0.5780
12334TIP3   OH258416   1.358   3.660   2.092  0.2040 -0.1931 -0.7949
12334TIP3    H158417   1.284   3.629   2.144  0.6016  1.4628  0.8851
12334TIP3    H258418   1.342   3.627   2.004 -3.2751  1.2552 -0.8643
12335TIP3   OH258419   5.886   3.205  17.097 -0.3884  0.0954  0.6560
12335TIP3    H158420   5.955   3.234  17.038 -0.2959 -1.8240 -0.2605
12335TIP3    H258421   5.921   3.219  17.185  1.5804 -1.6053  0.2278
12336TIP3   OH258422   6.125   2.710  14.862  0.2463  0.8868  0.1931
12336TIP3    H158423   6.106   2.796  14.900 -1.2190  0.1984  1.1025
12336TIP3    H258424   6.185   2.669  14.925 -1.0389  0.3118  1.1043
12337TIP3   OH258425   3.614   1.033   1.702 -0.1856 -0.6859 -0.3080
12337TIP3    H158426   3.697   1.030   1.654 -0.7714 -2.5864 -1.2881
12337TIP3    H258427   3.621   0.962   1.766 -0.7645 -0.3385  0.1533
12338TIP3   OH258428   2.935   0.569  11.633 -0.2053 -0.2889  0.3638
12338TIP3    H158429   2.855   0.620  11.620  0.5908  0.6260 -1.3768
12338TIP3    H258430   2.911   0.479  11.613 -0.4017  0.2605 -2.2088
12339TIP3   OH258431   5.423   1.228  14.312  0.5279  0.4212  0.2318
12339TIP3    H158432   5.370   1.259  14.385  0.8884 -0.1005  0.7205
12339TIP3    H258433   5.361   1.220  14.240  0.3924  2.1060  0.1138
12340TIP3   OH258434   0.460   3.435   2.814  0.6196 -0.0049  0.2550
12340TIP3    H158435   0.511   3.427   2.733 -0.2990 -0.3941 -0.2997
12340TIP3    H258436   0.524   3.424   2.884  0.9805 -2.9733 -0.4165
12341TIP3   OH258437   1.774   5.627  16.584 -0.0897 -0.6722 -0.2069
12341TIP3    H158438   1.785   5.655  16.674 -0.3209 -0.6347 -0.1881
12341TIP3    H258439   1.782   5.707  16.532  0.0935 -0.7018 -0.2228
12342TIP3   OH258440   3.062   4.251  11.539  0.1783  0.1975 -0.1054
12342TIP3    H158441   3.125   4.188  11.504  0.5611  1.0397 -0.9880
12342TIP3    H258442   2.994   4.257  11.472 -1.2243 -1.1577  1.0995
12343TIP3   OH258443   3.432   4.895   1.210 -0.6447  0.2300  0.6331
12343TIP3    H158444   3.386   4.955   1.151  0.1608  1.0850  0.8528
12343TIP3    H258445   3.468   4.828   1.153 -0.6986  0.5129  0.2663
12344TIP3   OH258446   4.117   5.838  12.148  0.3392 -0.0927 -0.4868
12344TIP3    H158447   4.035   5.856  12.101  0.3021  0.8427 -0.0853
12344TIP3    H258448   4.148   5.924  12.175  2.1121 -0.2963 -1.6988
12345TIP3   OH258449   0.060   0.506  16.598  0.1040  0.0860 -0.1439
12345TIP3    H158450   0.027   0.417  16.615  1.0275 -0.3660 -0.6462
12345TIP3    H258451  -0.002   0.543  16.535  0.6906 -0.8677 -1.3261
12346TIP3   OH258452   3.017   6.511  11.882  0.8656 -0.0093 -0.5672
12346TIP3    H158453   3.000   6.417  11.878 -1.1875  0.3524 -1.0678
12346TIP3    H258454   2.944   6.547  11.933  1.4871  1.3558 -0.5947
12347TIP3   OH258455   4.077   2.076   3.480  0.0743  0.1736 -0.3686
12347TIP3    H158456   3.999   2.070   3.536  2.2889 -0.2362  2.9962
12347TIP3    H258457   4.077   1.995   3.430 -0.5414 -0.9225  1.2968
12348TIP3   OH258458   3.307   5.401  11.242  0.2596 -0.1469  0.2201
12348TIP3    H158459   3.315   5.364  11.331  1.4435  0.9704  0.6153
12348TIP3    H258460   3.398   5.404  11.210 -0.0938  0.0597 -0.7927
12349TIP3   OH258461   6.411   1.906   4.257 -0.2801  0.3788  0.0592
12349TIP3    H158462   6.488   1.890   4.202 -0.1294 -0.1074  0.4039
12349TIP3    H258463   6.447   1.946   4.337  0.0330 -2.4510  1.4881
12350TIP3   OH258464   4.493   1.713  12.974 -0.2050 -0.7175  0.2213
12350TIP3    H158465   4.408   1.727  13.016  0.7234  0.7553  1.7644
12350TIP3    H258466   4.520   1.800  12.944  1.3864 -0.8702  1.0753
12351TIP3   OH258467   1.853   1.689  16.853 -0.5277  0.1514  0.2322
12351TIP3    H158468   1.870   1.766  16.906 -1.7929 -0.8514  2.2064
12351TIP3    H258469   1.917   1.624  16.882  0.1273  0.2221 -0.9772
12352TIP3   OH258470   3.499   5.548   3.581 -0.2613  0.6597 -0.1377
12352TIP3    H158471   3.514   5.455   3.593  3.0956  1.2379  1.0847
12352TIP3    H258472   3.476   5.580   3.668 -1.7471  0.9843 -0.6143
12353TIP3   OH258473   3.242   4.563  13.754 -0.1303  0.2917 -0.2775
12353TIP3    H158474   3.195   4.614  13.820 -0.8702 -0.9531  0.1671
12353TIP3    H258475   3.249   4.623  13.680 -1.8755  0.7262 -0.1385
12354TIP3   OH258476   5.743   0.779   4.333  0.4928  0.6916 -0.0235
12354TIP3    H158477   5.652   0.788   4.304  0.7830  0.9343 -0.8819
12354TIP3    H258478   5.790   0.848   4.287  1.3149 -0.1292 -0.4370
12355TIP3   OH258479   3.185   6.677  14.524 -0.1428  0.4412  0.2551
12355TIP3    H158480   3.248   6.605  14.533  0.1995  0.6806 -0.1512
12355TIP3    H258481   3.143   6.684  14.609  1.0630  0.8925  0.8327
12356TIP3   OH258482   5.418   2.402  10.504  0.0361 -0.0647 -0.0929
12356TIP3    H158483   5.360   2.467  10.544 -1.9657 -0.4717 -2.0963
12356TIP3    H258484   5.369   2.320  10.510  1.8224 -1.1116  0.9358
12357TIP3   OH258485   3.319   1.101  16.343 -0.2324  0.3839  0.2751
12357TIP3    H158486   3.313   1.166  16.413  2.0404 -0.6902  1.5710
12357TIP3    H258487   3.298   1.018  16.386  2.6329 -0.5053  0.1539
12358TIP3   OH258488   2.774   0.307  12.167 -0.1385 -0.0373 -0.0165
12358TIP3    H158489   2.729   0.389  12.187 -1.1188 -0.2139 -1.3056
12358TIP3    H258490   2.865   0.322  12.194 -0.0334  1.8929 -1.1975
12359TIP3   OH258491   5.331   0.212  11.793  0.2041 -0.3306 -0.4783
12359TIP3    H158492   5.306   0.198  11.884  0.0849 -0.1321 -0.4790
12359TIP3    H258493   5.247   0.226  11.748  0.3591  1.0811 -0.3567
12360TIP3   OH258494   6.033   4.360  11.651  0.1981 -0.1018 -0.1972
12360TIP3    H158495   5.973   4.432  11.670  0.0620 -0.2367 -0.1140
12360TIP3    H258496   5.989   4.311  11.581  0.6480  0.3339 -0.7937
12361TIP3   OH258497   0.019   3.532  11.075  0.2338 -0.0476  0.2611
12361TIP3    H158498  -0.016   3.592  11.010 -0.1228  0.7055  1.1150
12361TIP3    H258499  -0.022   3.447  11.055  2.1209 -0.4857 -2.0549
12362TIP3   OH258500   2.756   6.349   5.098  0.0460 -0.1771 -0.1905
12362TIP3    H158501   2.698   6.284   5.138 -0.3211  0.1758 -0.1420
12362TIP3    H258502   2.699   6.423   5.078  0.4933  0.2064 -0.0733
12363TIP3   OH258503   0.034   1.553  13.402  0.0210  0.5087 -0.1401
12363TIP3    H158504  -0.030   1.530  13.468  0.9620  1.9366  1.3546
12363TIP3    H258505   0.080   1.471  13.382 -1.9508 -0.4490 -0.9621
12364TIP3   OH258506   5.568   3.330  12.630  0.4547 -0.0705  0.6782
12364TIP3    H158507   5.524   3.250  12.657  0.8077  0.0765  1.7213
12364TIP3    H258508   5.623   3.354  12.704 -0.3076  1.6326  0.7492
12365TIP3   OH258509   6.137   2.136  10.590 -0.2149  0.6726  0.0500
12365TIP3    H158510   6.060   2.085  10.564  1.0381 -0.3838 -1.7921
12365TIP3    H258511   6.143   2.205  10.524  2.5115 -1.5165 -2.2709
12366TIP3   OH258512   2.291   1.093  14.369 -0.3006 -0.4793  0.1620
12366TIP3    H158513   2.253   1.103  14.457  0.3230  3.1181  0.1700
12366TIP3    H258514   2.384   1.112  14.381 -0.2113  0.0593 -1.2444
12367TIP3   OH258515   1.346   0.105   1.391 -0.0627  0.1141 -0.3143
12367TIP3    H158516   1.425   0.140   1.434 -0.4336  2.6620 -1.4860
12367TIP3    H258517   1.375   0.023   1.351  1.1946 -0.5065  1.7487
12368TIP3   OH258518   4.789   5.746  16.602  0.2668  0.6672 -0.1267
12368TIP3    H158519   4.774   5.674  16.542  1.6675  0.2691 -0.0441
12368TIP3    H258520   4.799   5.823  16.545 -0.9663  0.7664 -0.2292
12369TIP3   OH258521   5.339   5.568   5.987 -0.2254 -0.0093 -0.1161
12369TIP3    H158522   5.416   5.626   5.987 -0.1387 -0.0855  1.8331
12369TIP3    H258523   5.275   5.613   6.042 -0.6791 -1.0946  0.2683
12370TIP3   OH258524   3.307   5.064   5.411 -0.2611  0.6779 -0.4516
12370TIP3    H158525   3.230   5.067   5.354 -0.5028  2.8466 -0.1141
12370TIP3    H258526   3.381   5.067   5.351 -0.5079  2.0736 -0.7270
12371TIP3   OH258527   0.089   4.807   4.757 -0.3612 -0.1347 -0.1236
12371TIP3    H158528   0.095   4.791   4.662  1.7256  0.8432 -0.2118
12371TIP3    H258529   0.044   4.891   4.764 -0.8535 -0.3865 -0.2167
12372TIP3   OH258530   1.885   5.293  14.297 -0.5503  0.0804  0.2940
12372TIP3    H158531   1.859   5.269  14.208 -3.5891  2.3838  0.3883
12372TIP3    H258532   1.952   5.361  14.284 -1.7306  1.1748 -0.3568
12373TIP3   OH258533   0.539   3.994  14.890 -0.3886 -0.3186 -0.0457
12373TIP3    H158534   0.545   4.011  14.796 -1.0805  1.2187  0.1481
12373TIP3    H258535   0.545   4.081  14.930  1.5510 -1.0767  1.4402
12374TIP3   OH258536   3.923   5.261   0.554 -0.8098 -0.0551  0.2577
12374TIP3    H158537   3.874   5.311   0.619 -1.1358 -1.2793  0.9919
12374TIP3    H258538   4.015   5.268   0.582 -1.1228 -2.3141  2.1789
12375TIP3   OH258539   2.010   1.116  13.852 -0.0053 -0.4949 -0.4462
12375TIP3    H158540   2.033   1.193  13.801 -1.1074  1.1046  1.3207
12375TIP3    H258541   2.042   1.135  13.940  0.0532 -2.2483 -0.0492
12376TIP3   OH258542   2.950   2.191   5.448 -0.5021 -0.2058 -0.6461
12376TIP3    H158543   2.962   2.096   5.452  1.5020 -0.0104 -0.6346
12376TIP3    H258544   2.963   2.213   5.356  0.3275  0.1725 -0.4484
12377TIP3   OH258545   6.532   6.585  11.920 -0.0029 -0.5983 -0.0044
12377TIP3    H158546   6.555   6.493  11.931 -3.5263 -1.6257  0.0659
12377TIP3    H258547   6.548   6.624  12.007  0.3013 -1.4618  0.3382
12378TIP3   OH258548   4.892   5.587   4.691  0.1878  0.0935 -0.2370
12378TIP3    H158549   4.859   5.586   4.601  0.2574  3.0900 -0.3891
12378TIP3    H258550   4.825   5.540   4.741 -0.1222 -1.1392 -1.7429
12379TIP3   OH258551   1.694   3.923  14.573  0.1300 -0.0493  0.8230
12379TIP3    H158552   1.672   3.912  14.665 -1.8305  0.1883  0.4445
12379TIP3    H258553   1.624   3.877  14.526  0.3105  0.9838 -0.5500
12380TIP3   OH258554   0.066   1.157   3.752  0.2326 -0.2812  0.1418
12380TIP3    H158555   0.154   1.122   3.766 -0.4323 -1.7565  0.8821
12380TIP3    H258556   0.025   1.157   3.839 -0.1495  1.4717  0.0103
12381TIP3   OH258557   3.965   2.036   0.536 -0.4111  0.2987  0.1781
12381TIP3    H158558   3.950   1.942   0.547  1.0487 -0.1431 -1.0552
12381TIP3    H258559   4.002   2.043   0.448  0.2840  1.9355  0.5687
12382TIP3   OH258560   5.106   3.459  10.875 -0.2043  0.1914 -0.0453
12382TIP3    H158561   5.026   3.493  10.913 -0.8022 -1.4165  0.2129
12382TIP3    H258562   5.118   3.373  10.917  1.7733  0.4887  0.0953
12383TIP3   OH258563   0.080   0.532   5.213  0.6726 -0.4114 -0.1872
12383TIP3    H158564   0.001   0.479   5.214  0.5110 -0.1681  0.3922
12383TIP3    H258565   0.069   0.592   5.139 -0.0550  0.1690  0.3774
12384TIP3   OH258566   0.167   1.477   3.818  0.1655  0.0174 -0.2073
12384TIP3    H158567   0.213   1.553   3.853 -0.6905  1.2397 -1.6165
12384TIP3    H258568   0.234   1.411   3.805  1.5761  1.7498 -2.2569
12385TIP3   OH258569   4.707   3.478   4.900 -0.0365 -0.3595  0.0216
12385TIP3    H158570   4.781   3.534   4.925  0.7179 -0.4492 -1.8847
12385TIP3    H258571   4.723   3.396   4.947  0.6564 -0.1241  0.2114
12386TIP3   OH258572   1.343   6.699   6.435 -0.1298  0.3316  0.5313
12386TIP3    H158573   1.288   6.741   6.501 -1.0624 -0.9576  0.6281
12386TIP3    H258574   1.339   6.758   6.359 -2.8370 -0.3265  0.0247
12387TIP3   OH258575   5.529   3.244  11.133  0.0055  0.8810 -0.5769
12387TIP3    H158576   5.532   3.153  11.103 -1.2228  0.2497  1.0185
12387TIP3    H258577   5.619   3.274  11.130  0.3881 -0.2954 -1.4055
12388TIP3   OH258578   4.591   4.590  17.165 -0.1607  0.0482 -0.1884
12388TIP3    H158579   4.587   4.494  17.170 -0.6457 -0.2897 -4.1840
12388TIP3    H258580   4.683   4.611  17.180  0.3776 -1.2844 -1.4275
12389TIP3   OH258581   2.711   6.708  16.670 -0.0526  0.5846 -0.0380
12389TIP3    H158582   2.728   6.765  16.596  0.5370  2.0443  1.1603
12389TIP3    H258583   2.618   6.689  16.666 -0.4002  2.2035 -0.0896
12390TIP3   OH258584   6.496   2.498   0.120  0.5199 -0.0930 -0.5163
12390TIP3    H158585   6.515   2.491   0.214  0.8826  0.1781 -0.5680
12390TIP3    H258586   6.545   2.427   0.080 -0.0814 -0.5553 -0.4396
12391TIP3   OH258587   1.652   3.132  14.472  0.1547  0.1479  0.2770
12391TIP3    H158588   1.625   3.222  14.490 -0.9553  0.0133 -0.6721
12391TIP3    H258589   1.618   3.081  14.545 -0.7623  0.2326 -0.0876
12392TIP3   OH258590   4.857   1.629   5.325 -0.1837  0.1219  0.2545
12392TIP3    H158591   4.835   1.551   5.376  0.0413 -0.2619 -0.2267
12392TIP3    H258592   4.952   1.626   5.316 -0.4130 -1.7594 -3.1509
12393TIP3   OH258593   2.475   2.905   5.982 -0.4392 -0.2446  0.0674
12393TIP3    H158594   2.410   2.898   5.912 -2.7477  0.9703  1.9032
12393TIP3    H258595   2.452   2.834   6.042  0.7998 -0.6008  0.1361
12394TIP3   OH258596   1.257   4.054   6.094 -0.2794  0.4294  0.0739
12394TIP3    H158597   1.164   4.037   6.084 -0.1584 -0.8770  0.9247
12394TIP3    H258598   1.300   3.972   6.070  0.4785  0.1665  2.0949
12395TIP3   OH258599   6.001   1.953  14.862  0.0551 -0.3350 -0.0625
12395TIP3    H158600   5.910   1.979  14.848 -0.0034  0.2173  1.1853
12395TIP3    H258601   6.009   1.868  14.819 -0.6403  0.2709 -1.4525
12396TIP3   OH258602   0.009   5.852  15.160  0.0003 -0.5148 -0.4834
12396TIP3    H158603   0.015   5.814  15.073  1.3124  0.0828 -0.6775
12396TIP3    H258604   0.098   5.877  15.182 -0.6111  1.3282  0.1316
12397TIP3   OH258605   0.207   2.772   5.599 -0.2869  0.0751  0.4654
12397TIP3    H158606   0.133   2.832   5.588  0.3384  0.6829 -0.6807
12397TIP3    H258607   0.210   2.754   5.693 -1.5302  0.4881  0.6017
12398TIP3   OH258608   1.598   4.866  17.239  0.2703 -0.0789 -0.3786
12398TIP3    H158609   1.546   4.860  17.319  1.0241  2.4363  0.4009
12398TIP3    H258610   1.541   4.912  17.177  1.1494  1.9671  0.2232
12399TIP3   OH258611   5.828   5.829  11.512  0.2907  0.2496 -0.0098
12399TIP3    H158612   5.842   5.878  11.593  0.4849 -0.2139  0.2382
12399TIP3    H258613   5.792   5.894  11.451  0.1385  0.5999  0.4471
12400TIP3   OH258614   2.654   6.646  11.680  0.3003 -0.3966  0.9223
12400TIP3    H158615   2.618   6.643  11.591  0.6106 -1.1509  0.8200
12400TIP3    H258616   2.577   6.657  11.736  0.2129  1.8119  0.4804
12401TIP3   OH258617   2.095   2.511   4.582 -0.7029 -0.1088 -0.1238
12401TIP3    H158618   2.166   2.574   4.595  0.4106 -1.6581  1.9029
12401TIP3    H258619   2.138   2.426   4.589 -2.0325 -1.2193 -3.4037
12402TIP3   OH258620   6.479   6.101   1.721  0.2925  0.1101 -0.1308
12402TIP3    H158621   6.513   6.037   1.658  3.9402 -0.2472  1.9342
12402TIP3    H258622   6.396   6.064   1.751 -0.1796 -1.0489 -2.6290
12403TIP3   OH258623   3.839   5.170  13.322 -0.7155 -0.2137  0.4137
12403TIP3    H158624   3.832   5.122  13.404  0.6998 -2.5181 -0.7287
12403TIP3    H258625   3.902   5.240  13.340 -0.4718 -0.6522  1.3048
12404TIP3   OH258626   3.544   0.314  14.970 -0.7973  0.1255  0.2732
12404TIP3    H158627   3.595   0.389  14.999 -0.4537 -0.3226  0.8613
12404TIP3    H258628   3.557   0.248  15.039 -1.2919 -0.3804 -0.1055
12405TIP3   OH258629   0.922   4.164  13.202 -0.0371  0.4189 -0.2169
12405TIP3    H158630   0.839   4.128  13.170 -0.5778  0.3596  1.1846
12405TIP3    H258631   0.986   4.141  13.134 -1.2290  0.8297 -1.5226
12406TIP3   OH258632   5.916   4.922  12.698  0.3955 -0.2528 -0.2709
12406TIP3    H158633   5.939   4.955  12.784  0.0492  0.8679 -0.5924
12406TIP3    H258634   5.971   4.845  12.686  0.6162 -0.2797  0.8445
12407TIP3   OH258635   1.779   0.878   5.605 -0.6815  0.3417  0.3446
12407TIP3    H158636   1.813   0.805   5.552  3.6387  2.6399 -0.4758
12407TIP3    H258637   1.716   0.922   5.548 -0.0544 -0.2290 -0.8204
12408TIP3   OH258638   0.633   1.247  13.102 -0.1857  0.1207 -0.2401
12408TIP3    H158639   0.630   1.284  13.191 -1.8969 -0.2507 -0.1155
12408TIP3    H258640   0.597   1.317  13.047 -1.4283 -0.5284 -0.2858
12409TIP3   OH258641   2.079   4.479   0.946 -0.1949  0.3522  0.6077
12409TIP3    H158642   2.047   4.485   1.036 -0.3728  0.9639  0.5127
12409TIP3    H258643   2.070   4.568   0.912 -0.5301  0.0394 -0.1516
12410TIP3   OH258644   3.434   0.704   0.931  0.0010  0.5910 -0.2987
12410TIP3    H158645   3.451   0.615   0.901 -1.1434  0.3279 -0.2181
12410TIP3    H258646   3.353   0.697   0.981 -0.5541  1.8161 -0.9769
12411TIP3   OH258647   5.431   2.450  13.230 -0.1127  0.0551  0.2617
12411TIP3    H158648   5.377   2.526  13.210 -0.3050  0.0011  0.5687
12411TIP3    H258649   5.380   2.401  13.295 -0.0586 -0.4154 -0.0517
12412TIP3   OH258650   0.072   6.189  16.465 -0.6674  0.3426 -0.4344
12412TIP3    H158651  -0.013   6.205  16.424 -0.6340 -1.0581 -1.1199
12412TIP3    H258652   0.133   6.179  16.391 -0.3998 -1.1115 -0.0594
12413TIP3   OH258653   3.637   4.879   5.453  0.0296  0.1794  0.4562
12413TIP3    H158654   3.645   4.917   5.541 -0.6791 -0.8239  0.9869
12413TIP3    H258655   3.567   4.814   5.463 -0.6385  0.6246 -1.0624
12414TIP3   OH258656   4.190   4.771   3.637 -0.0878 -0.4504  0.7588
12414TIP3    H158657   4.103   4.791   3.604  0.5122  0.5056 -0.3214
12414TIP3    H258658   4.197   4.676   3.629 -0.3586 -0.3560 -0.9515
12415TIP3   OH258659   4.769   2.903   1.124  0.5284  0.1796  0.1760
12415TIP3    H158660   4.747   2.810   1.113 -2.5187  0.9641 -1.6169
12415TIP3    H258661   4.687   2.943   1.153  1.6714  2.3780  0.5180
12416TIP3   OH258662   0.232   5.512  11.472  0.0495  0.2969  0.1422
12416TIP3    H158663   0.137   5.498  11.474 -0.2472  2.0123  2.7081
12416TIP3    H258664   0.242   5.606  11.460  1.3412  0.3942  1.6471
12417TIP3   OH258665   1.175   3.460  12.567 -0.3876 -0.0228 -0.3086
12417TIP3    H158666   1.227   3.480  12.489  1.4607 -1.8777  0.3409
12417TIP3    H258667   1.225   3.498  12.639 -1.9060  1.3819  0.0722
12418TIP3   OH258668   0.717   5.919  14.323  0.3281 -0.4172  0.1651
12418TIP3    H158669   0.767   5.963  14.391  0.6119  0.1608 -0.4088
12418TIP3    H258670   0.626   5.924  14.352  0.4889 -0.5537  0.7008
12419TIP3   OH258671   0.784   5.873   5.483  0.5311  1.0466 -0.3307
12419TIP3    H158672   0.828   5.946   5.527  1.1992 -0.7063  2.1383
12419TIP3    H258673   0.850   5.804   5.480 -1.0580 -0.5740  0.5100
12420TIP3   OH258674   2.973   0.909   1.497 -0.5795  0.1673  0.2585
12420TIP3    H158675   2.889   0.956   1.499 -0.8434 -0.2693 -0.3990
12420TIP3    H258676   2.973   0.863   1.413 -0.5320 -1.3954  1.0849
12421TIP3   OH258677   2.253   1.788  15.089 -0.2035  0.0628 -0.0511
12421TIP3    H158678   2.296   1.873  15.096 -0.9128  0.4865 -0.7261
12421TIP3    H258679   2.281   1.754  15.003  1.9784 -1.4731  1.1705
12422TIP3   OH258680   5.606   5.849   5.539  0.1064 -0.0812 -0.1692
12422TIP3    H158681   5.684   5.804   5.573 -0.5110 -1.2386 -0.2434
12422TIP3    H258682   5.641   5.918   5.483  1.1497  1.4341  2.1764
12423TIP3   OH258683   4.397   4.760  10.907  0.0422  0.1907  0.2758
12423TIP3    H158684   4.444   4.819  10.848 -0.1345  0.7555  0.6896
12423TIP3    H258685   4.345   4.705  10.849 -0.8656  1.3703 -0.0726
12424TIP3   OH258686   4.247   3.620  16.864  0.2878  0.5545  0.1415
12424TIP3    H158687   4.293   3.671  16.930 -1.4876  1.7029  0.5757
12424TIP3    H258688   4.234   3.681  16.791 -0.0943  0.1190 -0.1637
12425TIP3   OH258689   2.359   1.386   5.708  0.5218 -0.3586 -0.1339
12425TIP3    H158690   2.267   1.394   5.736  0.8797  1.3905  0.6111
12425TIP3    H258691   2.400   1.336   5.779  0.2907 -0.5847 -0.1544
12426TIP3   OH258692   1.733   2.299   3.486  0.0021 -0.1356  0.2589
12426TIP3    H158693   1.783   2.292   3.405  1.0245 -0.2003  0.8770
12426TIP3    H258694   1.778   2.368   3.536  2.2149 -3.0634  2.6803
12427TIP3   OH258695   5.698   0.810   1.041 -0.5960 -0.1460  0.2632
12427TIP3    H158696   5.724   0.882   1.098  0.1891 -1.7156  1.9732
12427TIP3    H258697   5.720   0.731   1.090 -1.2306 -1.5744 -1.6366
12428TIP3   OH258698   5.600   3.689  15.291 -0.2390  0.9733 -0.2711
12428TIP3    H158699   5.533   3.662  15.354 -0.2103 -2.1323 -1.3737
12428TIP3    H258700   5.651   3.609  15.275  4.0219  3.2192  0.7164
12429TIP3   OH258701   4.000   4.199  12.625  0.3656  0.0792  0.0484
12429TIP3    H158702   3.950   4.269  12.584  0.1822 -0.3415 -0.4626
12429TIP3    H258703   3.934   4.131  12.644  0.6304 -0.1933 -0.0004
12430TIP3   OH258704   5.896   4.800   4.519 -0.2037 -0.4285  0.0946
12430TIP3    H158705   5.968   4.753   4.562 -0.5041 -1.1911 -0.2091
12430TIP3    H258706   5.844   4.835   4.592 -0.5674 -1.4896  0.3749
12431TIP3   OH258707   5.827   5.745   5.622  0.9692 -0.3059  0.4728
12431TIP3    H158708   5.880   5.760   5.544 -1.0209 -1.1890 -1.1317
12431TIP3    H258709   5.839   5.652   5.642 -0.4701 -0.6946 -0.3461
12432TIP3   OH258710   3.929   0.435  14.433 -0.4640  0.0150 -0.2042
12432TIP3    H158711   3.909   0.428  14.339 -1.2155 -2.2243  0.0635
12432TIP3    H258712   3.925   0.345  14.465 -0.6737  0.7782  2.0852
12433TIP3   OH258713   2.054   3.538   1.860 -0.2461 -0.1470 -0.4060
12433TIP3    H158714   1.979   3.494   1.820  0.4592  0.6086 -2.7330
12433TIP3    H258715   2.038   3.531   1.954 -2.6668 -0.9607 -0.7884
12434TIP3   OH258716   5.730   2.019  11.974  0.0617 -0.1121  0.0107
12434TIP3    H158717   5.794   2.090  11.969 -0.9212  0.9155  1.4109
12434TIP3    H258718   5.783   1.942  11.999  0.8708  0.5169  0.2858
12435TIP3   OH258719   5.948   1.303  17.225  0.1248 -0.3938 -0.2362
12435TIP3    H158720   5.930   1.337  17.137 -1.9169  0.4220  0.4500
12435TIP3    H258721   6.010   1.366  17.263 -0.1360  0.0772 -0.5779
12436TIP3   OH258722   6.470   3.868   2.404  0.4174 -0.6324  0.2686
12436TIP3    H158723   6.401   3.915   2.452  0.7668  1.6222 -1.2470
12436TIP3    H258724   6.430   3.851   2.318  1.0751 -1.1025  0.0569
12437TIP3   OH258725   4.118   4.249  15.224 -0.5411  0.2313  0.3680
12437TIP3    H158726   4.197   4.196  15.212 -1.4885 -1.0274 -0.5598
12437TIP3    H258727   4.083   4.221  15.309 -0.6214 -0.0626  0.2374
12438TIP3   OH258728   2.252   5.489   1.179 -0.1170 -1.1034  0.2126
12438TIP3    H158729   2.293   5.407   1.152  0.7851 -0.3980 -0.6547
12438TIP3    H258730   2.322   5.537   1.224 -0.5570 -0.6985  0.4736
12439TIP3   OH258731   3.184   4.563   3.285  0.4506 -0.5586 -0.1898
12439TIP3    H158732   3.254   4.552   3.221  1.3320 -0.4986  0.7397
12439TIP3    H258733   3.135   4.481   3.281  0.6217 -0.6383 -0.7750
12440TIP3   OH258734   0.133   2.241  13.569  0.4494  0.0769  0.4336
12440TIP3    H158735   0.214   2.207  13.532 -0.9830 -1.6235 -1.4057
12440TIP3    H258736   0.129   2.205  13.657  2.0700  0.9241  0.8830
12441TIP3   OH258737   2.626   6.289   0.402 -0.0136 -0.2684 -0.2569
12441TIP3    H158738   2.671   6.314   0.483  0.4924 -2.5782  0.2652
12441TIP3    H258739   2.539   6.326   0.411  0.2835  0.1993  0.9752
12442TIP3   OH258740   6.380   5.762   0.158  0.2073  0.4801  0.2652
12442TIP3    H158741   6.439   5.687   0.153  0.7590  0.9222  0.1162
12442TIP3    H258742   6.356   5.767   0.251  0.3434  0.2571  0.3130
12443TIP3   OH258743   4.924   1.126   0.752  0.2408 -0.2978 -0.6763
12443TIP3    H158744   4.929   1.101   0.844 -1.4874  1.4054 -0.0416
12443TIP3    H258745   4.948   1.219   0.751 -0.8892  0.0112 -1.7417
12444TIP3   OH258746   5.240   0.451   5.133  0.3369  0.0013 -0.4466
12444TIP3    H158747   5.310   0.393   5.161  0.7286 -0.1410 -1.6594
12444TIP3    H258748   5.230   0.513   5.205  4.0715  2.1807 -1.5543
12445TIP3   OH258749   1.315   1.121  11.032 -0.3909 -0.2067  0.3881
12445TIP3    H158750   1.279   1.122  10.943  0.9962  1.8028 -0.2067
12445TIP3    H258751   1.294   1.033  11.065 -1.9524 -0.5959 -1.4815
12446TIP3   OH258752   3.698   1.676   4.024 -0.2450 -0.4918  0.2751
12446TIP3    H158753   3.707   1.731   3.947  0.2455 -1.0403 -0.0681
12446TIP3    H258754   3.703   1.736   4.098  0.0741 -0.0560 -0.0983
12447TIP3   OH258755   5.868   1.396  16.769 -0.5319 -0.1202  0.3343
12447TIP3    H158756   5.848   1.323  16.711  0.8100  0.4759 -0.9453
12447TIP3    H258757   5.878   1.356  16.856 -2.9184 -0.9718  0.2762
12448TIP3   OH258758   1.732   6.081  14.745  0.2301 -0.5469 -0.0783
12448TIP3    H158759   1.732   6.012  14.679 -2.5700 -0.1342 -0.6627
12448TIP3    H258760   1.745   6.162  14.696 -1.6411 -0.2589 -0.1795
12449TIP3   OH258761   2.154   0.468   1.449  0.1803  0.7080 -0.2007
12449TIP3    H158762   2.222   0.479   1.383 -0.7340  1.3754 -1.0637
12449TIP3    H258763   2.103   0.549   1.445  1.0912  1.5036  2.5247
12450TIP3   OH258764   1.765   4.096  11.587  0.1651 -0.0855 -0.2312
12450TIP3    H158765   1.798   4.048  11.511 -1.3609  1.0571 -1.6845
12450TIP3    H258766   1.783   4.188  11.568  0.8811  0.1485  1.4070
12451TIP3   OH258767   5.742   4.430   2.412 -0.3848  0.1513  0.3670
12451TIP3    H158768   5.781   4.362   2.357  0.9571  2.2713 -1.4758
12451TIP3    H258769   5.675   4.470   2.355 -0.3378  1.1206  0.9827
12452TIP3   OH258770   3.627   6.598  13.394 -0.0885  1.3470 -0.3038
12452TIP3    H158771   3.574   6.520  13.380  0.0756  1.0233  0.7879
12452TIP3    H258772   3.589   6.664  13.336  1.7345 -0.3589 -3.7899
12453TIP3   OH258773   2.735   1.052   4.187  0.3142 -0.8992 -0.1155
12453TIP3    H158774   2.644   1.061   4.159  0.0617  0.1000  0.9475
12453TIP3    H258775   2.785   1.061   4.106 -0.4959 -0.6134 -0.6056
12454TIP3   OH258776   2.804   0.016  14.885  0.3142  0.6330 -0.7518
12454TIP3    H158777   2.820   0.109  14.900  1.1129  1.0111 -3.4187
12454TIP3    H258778   2.710   0.005  14.900  0.5536  1.3739  1.5991
12455TIP3   OH258779   4.521   5.964  11.983  0.1535 -0.0315  0.0438
12455TIP3    H158780   4.538   6.049  11.942  1.8491 -0.6926 -0.7304
12455TIP3    H258781   4.465   5.918  11.920 -1.7043  0.8641  0.9672
12456TIP3   OH258782   0.982   6.569  17.340 -0.1675 -0.6769  0.4843
12456TIP3    H158783   1.063   6.569  17.289 -0.4241 -0.1943  0.0585
12456TIP3    H258784   0.913   6.563  17.273 -0.5285  0.4625  0.7356
12457TIP3   OH258785   4.646   0.552  14.618 -0.1126  0.0705  0.1426
12457TIP3    H158786   4.732   0.584  14.645  0.4643 -2.1950  1.3002
12457TIP3    H258787   4.657   0.457  14.613 -2.1674 -0.1650 -1.2178
12458TIP3   OH258788   1.415   1.714  16.364  0.1797  0.1680 -0.0892
12458TIP3    H158789   1.359   1.774  16.414 -1.1961  0.9270 -2.4179
12458TIP3    H258790   1.490   1.767  16.337  0.8253 -0.1933  0.9015
12459TIP3   OH258791   4.507   2.517  11.476 -0.0089  0.4825 -0.6960
12459TIP3    H158792   4.457   2.586  11.433  1.3154  0.6861 -1.9878
12459TIP3    H258793   4.552   2.561  11.549  0.2407  0.8240 -1.0559
12460TIP3   OH258794   6.203   0.493  11.997 -0.4488  0.0918  0.0724
12460TIP3    H158795   6.289   0.469  12.032  1.1409  3.7834 -0.8242
12460TIP3    H258796   6.147   0.501  12.074  0.1361 -1.7141  0.7356
12461TIP3   OH258797   3.816   0.432  14.759  0.4862 -0.0859  0.0712
12461TIP3    H158798   3.821   0.336  14.757 -0.0157 -0.1110 -0.1782
12461TIP3    H258799   3.750   0.451  14.826 -0.3691  0.0357 -0.7760
12462TIP3   OH258800   4.986   2.845   0.482 -0.4976  0.2072  0.2012
12462TIP3    H158801   5.008   2.803   0.565 -0.7818  0.7547  0.5627
12462TIP3    H258802   4.936   2.780   0.433 -0.6480  0.0126  0.6169
12463TIP3   OH258803   0.919   1.273  14.413 -0.5161  0.3693  0.5956
12463TIP3    H158804   0.828   1.252  14.395 -0.8416  0.0093  2.4839
12463TIP3    H258805   0.921   1.295  14.506  1.2901  0.5509  0.5537
12464TIP3   OH258806   2.440   6.134  12.683 -0.2292  0.3607  0.9107
12464TIP3    H158807   2.493   6.179  12.617 -1.9786  0.7625 -0.3309
12464TIP3    H258808   2.454   6.183  12.763 -0.1504  1.6016  0.1696
12465TIP3   OH258809   1.874   3.548  12.700  0.1275  0.3225  0.2882
12465TIP3    H158810   1.804   3.485  12.678  0.3774 -0.2092  0.9933
12465TIP3    H258811   1.829   3.632  12.707 -0.3265  0.1050  0.0353
12466TIP3   OH258812   5.309   1.195   0.188  0.6315  0.0836 -0.3834
12466TIP3    H158813   5.333   1.127   0.251  1.0884  0.7217  0.1421
12466TIP3    H258814   5.230   1.235   0.225 -1.7853 -2.3834 -2.3764
12467TIP3   OH258815   3.615   3.722  17.198  0.0322  0.9100 -0.2768
12467TIP3    H158816   3.699   3.700  17.159 -0.6945 -1.1016 -0.7765
12467TIP3    H258817   3.580   3.639  17.230 -1.7208  1.7154  0.0321
12468TIP3   OH258818   6.067   6.283   0.379 -0.2715  0.6342 -0.4408
12468TIP3    H158819   5.987   6.247   0.340  0.2534  0.2444 -1.1829
12468TIP3    H258820   6.132   6.214   0.369 -0.1379  0.4526  1.2970
12469TIP3   OH258821   5.784   5.499   0.751  0.2985 -0.8753 -0.0966
12469TIP3    H158822   5.845   5.425   0.743  0.5200 -0.7838  0.6866
12469TIP3    H258823   5.714   5.466   0.808  0.8539 -0.1988  0.9981
12470TIP3   OH258824   0.524   2.498  16.237  0.7061 -0.8125 -0.5096
12470TIP3    H158825   0.595   2.560  16.228  0.0342 -0.2306 -2.1447
12470TIP3    H258826   0.524   2.475  16.330  0.7273  1.9321  0.2561
12471TIP3   OH258827   0.712   4.976  11.810  0.1169  0.2253  0.0057
12471TIP3    H158828   0.797   4.967  11.767  0.6518  0.9044  0.8863
12471TIP3    H258829   0.731   5.022  11.892 -0.6966 -2.0428  1.5533
12472TIP3   OH258830   3.877   5.148  14.153 -0.3594  0.0063  0.0865
12472TIP3    H158831   3.813   5.120  14.218  0.1765 -1.1211  0.1497
12472TIP3    H258832   3.826   5.201  14.090 -1.6875 -2.0480 -0.6796
12473TIP3   OH258833   4.013   5.438  12.389  0.2056  0.0245  1.0209
12473TIP3    H158834   4.042   5.492  12.315  1.8274 -0.0594  1.5552
12473TIP3    H258835   4.041   5.486  12.467  1.2255 -1.3092  1.5222
12474TIP3   OH258836   3.448   4.408  13.758 -0.4130 -0.4357  0.5205
12474TIP3    H158837   3.364   4.453  13.744  0.9354  2.7742  1.6773
12474TIP3    H258838   3.437   4.365  13.843 -0.8233  0.1846  0.7937
12475TIP3   OH258839   1.527   0.196  15.037  0.5708  0.3351  0.1824
12475TIP3    H158840   1.458   0.225  15.096 -0.0790 -0.3405 -0.2192
12475TIP3    H258841   1.505   0.236  14.953 -0.6162 -1.5925 -0.5059
12476TIP3   OH258842   5.130   0.315  16.052 -0.3192  0.1260 -0.4784
12476TIP3    H158843   5.164   0.227  16.068 -2.3692 -0.5874  0.2470
12476TIP3    H258844   5.086   0.310  15.968  0.1396  0.6590 -0.7571
12477TIP3   OH258845   5.551   0.118  16.915  0.4668  0.3500 -0.5943
12477TIP3    H158846   5.521   0.129  17.006  0.7602  0.1121 -0.4675
12477TIP3    H258847   5.577   0.206  16.888  0.5722  0.3859 -0.3787
12478TIP3   OH258848   2.336   2.328  15.684 -0.2366 -0.0354  0.0470
12478TIP3    H158849   2.429   2.325  15.662  0.1401  2.3077  0.9451
12478TIP3    H258850   2.330   2.287  15.771 -0.1272 -0.5852 -0.2019
12479TIP3   OH258851   3.939   0.964  14.943  0.0543 -0.4395  0.5797
12479TIP3    H158852   3.939   0.958  15.039 -0.1296  0.0850  0.6151
12479TIP3    H258853   3.862   1.017  14.922 -0.1725 -0.9455  0.1102
12480TIP3   OH258854   3.268   5.812  13.563 -0.9524  0.0673  0.5102
12480TIP3    H158855   3.192   5.812  13.505 -0.4791  1.2090 -0.1448
12480TIP3    H258856   3.343   5.808  13.504 -0.4503  1.7208  0.9943
12481TIP3   OH258857   3.394   5.384   4.109 -0.2976 -0.1223 -0.7416
12481TIP3    H158858   3.301   5.374   4.085 -0.6429  0.8042  0.1472
12481TIP3    H258859   3.415   5.474   4.087 -0.4498  0.5784  1.6846
12482TIP3   OH258860   0.507   4.710  14.767 -0.3752  0.3542 -0.0947
12482TIP3    H158861   0.587   4.665  14.741 -1.1523 -0.2563 -1.5500
12482TIP3    H258862   0.506   4.790  14.713 -1.4841 -0.4063 -1.2671
12483TIP3   OH258863   0.079   6.506  15.993  1.0101 -0.1932 -0.0935
12483TIP3    H158864   0.125   6.446  16.052 -0.1225 -1.8707 -0.8285
12483TIP3    H258865  -0.001   6.459  15.969  0.5504  1.2228 -1.4941
12484TIP3   OH258866   2.327   4.370  15.321 -0.0214  0.7904  0.1725
12484TIP3    H158867   2.388   4.355  15.393  0.3119  1.1040 -0.0395
12484TIP3    H258868   2.253   4.313  15.340 -0.6967  2.1069  1.6473
12485TIP3   OH258869   4.015   1.337   3.703  0.0805  0.5472  0.3350
12485TIP3    H158870   3.938   1.363   3.752 -0.5108  1.3202 -0.9394
12485TIP3    H258871   4.079   1.407   3.719  0.4219  0.0635  1.1411
12486TIP3   OH258872   6.288   6.209  14.615 -0.2796  0.0192 -0.4334
12486TIP3    H158873   6.226   6.184  14.547  0.8671  0.3107 -1.6419
12486TIP3    H258874   6.251   6.288  14.654 -1.8131 -1.1189  0.5122
12487TIP3   OH258875   2.261   0.807   5.135  0.2998 -0.6492 -0.5425
12487TIP3    H158876   2.199   0.758   5.080 -2.2871 -0.1006  1.6986
12487TIP3    H258877   2.222   0.893   5.145  2.2231  0.2382 -0.2201
12488TIP3   OH258878   4.089   5.243  15.270 -0.2837  0.0253 -0.3920
12488TIP3    H158879   4.029   5.235  15.196  1.4827  0.5124 -1.9560
12488TIP3    H258880   4.095   5.155  15.306 -0.5673 -0.3994 -1.3476
12489TIP3   OH258881   0.512   1.612  13.081 -0.0795 -0.2439 -0.4305
12489TIP3    H158882   0.502   1.576  13.169 -0.1382 -0.4308 -0.5110
12489TIP3    H258883   0.423   1.625  13.050 -0.0561  0.2352 -0.2988
12490TIP3   OH258884   4.666   1.968   4.958  0.1676  0.1147  0.2889
12490TIP3    H158885   4.734   2.030   4.933  1.1083 -1.6831 -1.9825
12490TIP3    H258886   4.587   2.021   4.966  1.7314  2.3032  3.1780
12491TIP3   OH258887   1.460   3.973   0.421 -0.3667 -0.0979  0.3171
12491TIP3    H158888   1.410   3.968   0.339 -0.4641  0.2861  0.3527
12491TIP3    H258889   1.440   3.891   0.466 -0.0452 -0.4619 -0.1988
12492TIP3   OH258890   0.186   4.160  16.282  0.4901 -0.0326  0.0439
12492TIP3    H158891   0.129   4.237  16.284 -0.2490 -0.5843  0.8390
12492TIP3    H258892   0.273   4.194  16.305  0.5250  0.8261 -1.2645
12493TIP3   OH258893   4.551   1.087  13.788 -0.0540 -0.7157  0.2823
12493TIP3    H158894   4.631   1.073  13.838 -0.7622 -0.5538  1.5075
12493TIP3    H258895   4.505   1.157  13.835 -1.6030 -1.8078  0.4906
12494TIP3   OH258896   3.582   5.431  14.159  0.0321 -0.2016  0.2092
12494TIP3    H158897   3.550   5.521  14.166  1.1209  0.1661  0.5362
12494TIP3    H258898   3.561   5.392  14.244  0.4428  0.0372  0.4212
12495TIP3   OH258899   4.630   2.631  11.700 -0.0045 -0.0085  0.2878
12495TIP3    H158900   4.578   2.606  11.777  1.2964  0.1826  1.2744
12495TIP3    H258901   4.653   2.723  11.716 -0.4052  0.2819 -0.7463
12496TIP3   OH258902   6.705   6.645  11.175 -0.1500 -0.1194 -0.2193
12496TIP3    H158903   6.625   6.602  11.143 -0.1070  0.7184 -1.5401
12496TIP3    H258904   6.770   6.627  11.107  0.0566  1.3998 -0.4550
12497TIP3   OH258905   4.997   0.278   5.531  0.2768 -0.3525 -0.0146
12497TIP3    H158906   4.954   0.362   5.515 -0.3531 -0.6945 -0.1616
12497TIP3    H258907   5.007   0.240   5.444  1.9893  0.2388 -0.1086
12498TIP3   OH258908   3.554   6.600  16.694  0.0940  0.1594  0.0041
12498TIP3    H158909   3.487   6.667  16.707 -0.8487 -0.7008 -0.3016
12498TIP3    H258910   3.578   6.608  16.602 -0.4014 -0.2551 -0.1674
12499TIP3   OH258911   1.351   5.275   2.362  0.3181 -0.6611  0.7717
12499TIP3    H158912   1.416   5.232   2.418 -0.0445 -1.4502  0.5939
12499TIP3    H258913   1.339   5.216   2.288  0.3578  0.1026  0.1404
12500TIP3   OH258914   4.530   3.568   0.731 -0.2700 -0.4366 -0.0322
12500TIP3    H158915   4.601   3.512   0.701  0.9983  1.3023 -0.4615
12500TIP3    H258916   4.460   3.508   0.756  1.0971 -2.1798 -0.2382
12501TIP3   OH258917   2.947   2.664   4.653 -0.0964  0.1162 -0.4135
12501TIP3    H158918   2.879   2.667   4.585 -0.9842  1.4201  0.4758
12501TIP3    H258919   3.029   2.656   4.605 -0.7643  0.1030 -1.5989
12502TIP3   OH258920   1.542   6.105   3.712  0.0164 -0.1963  0.4153
12502TIP3    H158921   1.588   6.108   3.628 -1.7459  2.4069 -0.5653
12502TIP3    H258922   1.608   6.072   3.774  1.9769 -0.2535 -1.5810
12503TIP3   OH258923   2.783   5.477  13.366  0.0846  0.5214 -0.1430
12503TIP3    H158924   2.748   5.405  13.313 -0.7467 -0.0869  1.1840
12503TIP3    H258925   2.707   5.534  13.382  0.7512  1.7824 -1.2539
12504TIP3   OH258926   0.808   3.668   0.099 -0.2966  0.0320 -0.6290
12504TIP3    H158927   0.810   3.582   0.058  0.2936 -0.2050 -0.1248
12504TIP3    H258928   0.827   3.729   0.028  0.7385 -0.3721 -0.7285
12505TIP3   OH258929   0.117   4.919   4.266 -0.1663  0.6000  0.3285
12505TIP3    H158930   0.086   4.947   4.352 -0.3786  0.9363  0.1427
12505TIP3    H258931   0.045   4.866   4.231 -0.1381  0.5816  0.2988
12506TIP3   OH258932   2.998   4.850  16.326 -0.1386 -0.0140  0.1281
12506TIP3    H158933   2.951   4.819  16.404 -1.7961 -0.1046 -0.8681
12506TIP3    H258934   3.004   4.945  16.338 -2.1727  0.2494 -0.5052
12507TIP3   OH258935   4.944   5.363  12.918  0.4157  0.3911 -0.4477
12507TIP3    H158936   4.956   5.304  12.992 -1.4254  0.4050 -0.0893
12507TIP3    H258937   4.855   5.346  12.888  0.6776  1.3076 -1.8508
12508TIP3   OH258938   0.882   2.165   3.970  0.1938 -0.6209  0.1225
12508TIP3    H158939   0.909   2.239   4.025 -1.6178  0.5222 -0.4484
12508TIP3    H258940   0.930   2.178   3.888  0.3705 -0.4458  0.2516
12509TIP3   OH258941   5.986   4.700   3.173 -0.2432  0.3261  0.3748
12509TIP3    H158942   6.035   4.633   3.221  0.1179  2.1100  2.6704
12509TIP3    H258943   5.914   4.724   3.231 -2.2809 -0.2610 -1.7677
12510TIP3   OH258944   1.443   3.953   5.720  0.5871  0.2997 -1.0470
12510TIP3    H158945   1.485   4.030   5.681  0.7402  0.0204 -1.4398
12510TIP3    H258946   1.350   3.972   5.716  0.6682  0.9292 -0.1621
12511TIP3   OH258947   5.233   3.936  12.993 -0.3960 -0.1650 -0.1890
12511TIP3    H158948   5.143   3.946  13.023 -0.8029 -0.8645 -1.1125
12511TIP3    H258949   5.229   3.869  12.924  0.8154 -0.1598 -0.3028
12512TIP3   OH258950   4.883   6.513   4.355 -0.6477  0.0900  0.2126
12512TIP3    H158951   4.930   6.560   4.286  0.9251 -1.0713  0.4405
12512TIP3    H258952   4.876   6.575   4.427  0.3297  0.3572  0.0819
12513TIP3   OH258953   1.087   1.033  13.305  0.4323 -0.2669 -0.5490
12513TIP3    H158954   1.016   0.975  13.331  1.2049 -0.0682  2.2871
12513TIP3    H258955   1.093   1.022  13.210 -1.7279 -2.1365 -0.5514
12514TIP3   OH258956   0.623   6.415   3.574 -0.0473 -0.8419 -0.0152
12514TIP3    H158957   0.556   6.451   3.517  2.4155 -0.1313 -2.7178
12514TIP3    H258958   0.669   6.491   3.609  1.8447 -1.1976 -1.5237
12515TIP3   OH258959   6.526   4.839   2.927 -0.1436 -0.7132 -0.1222
12515TIP3    H158960   6.560   4.841   3.016  0.2212 -1.4988 -0.2435
12515TIP3    H258961   6.463   4.912   2.924 -0.3675 -0.8604  0.8518
12516TIP3   OH258962   0.485   0.049   5.677 -0.1503  0.2413 -0.3403
12516TIP3    H158963   0.548   0.004   5.621  1.2214 -0.5470  1.6950
12516TIP3    H258964   0.540   0.098   5.739 -1.5285 -0.2478  1.3332
12517TIP3   OH258965   0.588   1.515   0.748 -0.4870 -0.5890 -0.6711
12517TIP3    H158966   0.507   1.513   0.696 -1.4516 -1.3637  0.7997
12517TIP3    H258967   0.630   1.431   0.728 -1.7494 -1.7071  1.0761
12518TIP3   OH258968   1.445   5.995   5.829  0.2249  0.6457  0.0235
12518TIP3    H158969   1.393   5.981   5.909 -0.0647  1.8531  0.0693
12518TIP3    H258970   1.439   5.912   5.782 -1.4500  0.6225  0.2162
12519TIP3   OH258971   0.102   3.877   0.874  0.2502 -0.0452 -0.1304
12519TIP3    H158972   0.055   3.898   0.955  1.3578  0.4126  0.4342
12519TIP3    H258973   0.169   3.814   0.902 -1.1785 -2.1822 -1.2605
12520TIP3   OH258974   5.849   4.969  17.057 -0.5285 -0.8005 -0.3765
12520TIP3    H158975   5.847   5.064  17.067  0.9378 -0.6829 -0.9809
12520TIP3    H258976   5.871   4.936  17.144  3.4802 -0.2686 -0.9967
12521TIP3   OH258977   1.320   0.936   3.228  0.2012  0.4921 -0.1433
12521TIP3    H158978   1.343   0.914   3.318 -2.0099 -1.7735 -0.0179
12521TIP3    H258979   1.292   1.027   3.232 -0.0661  0.3685  1.5123
12522TIP3   OH258980   4.460   5.334  14.840 -0.4612 -0.2213 -0.1607
12522TIP3    H158981   4.398   5.367  14.774  0.5125  1.3537 -0.3566
12522TIP3    H258982   4.543   5.327  14.792 -0.0593 -0.4217  0.5627
12523TIP3   OH258983   5.293   2.561   4.280 -0.7290 -0.3042  0.3382
12523TIP3    H158984   5.278   2.655   4.289 -1.1143 -0.2669 -0.6366
12523TIP3    H258985   5.377   2.554   4.236 -1.3112 -0.3825 -0.7846
12524TIP3   OH258986   0.550   1.427  15.559 -0.4474  0.3693  0.2573
12524TIP3    H158987   0.576   1.357  15.619 -1.1712  0.6403  0.9131
12524TIP3    H258988   0.632   1.463  15.526 -0.0327  0.3698  1.2670
12525TIP3   OH258989   5.392   6.306   2.475  0.5037  0.5162 -0.3468
12525TIP3    H158990   5.479   6.305   2.436  0.3182 -0.9868 -0.7788
12525TIP3    H258991   5.402   6.260   2.558 -0.0192 -0.3714 -0.7590
12526TIP3   OH258992   0.201   3.450  17.271  0.4821 -0.3310 -0.4107
12526TIP3    H158993   0.282   3.432  17.319  1.4879  0.3107 -1.8097
12526TIP3    H258994   0.201   3.386  17.200 -0.0733 -0.1029 -0.6235
12527TIP3   OH258995   0.452   2.722  11.080 -0.6040  0.6211 -0.7586
12527TIP3    H158996   0.497   2.685  11.156 -1.9829  1.3854  0.4779
12527TIP3    H258997   0.407   2.648  11.039  1.3690 -0.0829 -1.7869
12528TIP3   OH258998   6.486   0.558  12.394 -0.2114  0.8749  0.0115
12528TIP3    H158999   6.542   0.481  12.381 -0.3340  0.6996  0.5057
12528TIP3    H259000   6.427   0.533  12.465 -2.0953  0.3956 -1.6039
12529TIP3   OH259001   2.717   4.461   4.891 -0.2558 -0.4424  0.1195
12529TIP3    H159002   2.787   4.511   4.933  0.5080  0.4707 -2.1201
12529TIP3    H259003   2.637   4.500   4.925  0.3307  1.6989 -0.7671
12530TIP3   OH259004   3.540   6.115  13.315  0.1432  0.3099 -0.2003
12530TIP3    H159005   3.567   6.102  13.406 -0.1434  0.9702 -0.0140
12530TIP3    H259006   3.479   6.189  13.318  0.2541  0.4443 -0.9505
12531TIP3   OH259007   3.194   2.938  12.292 -0.0494  0.3700 -0.0126
12531TIP3    H159008   3.289   2.939  12.284 -0.1439  1.0481 -1.3933
12531TIP3    H259009   3.167   2.858  12.248 -0.1746  0.8254 -0.7938
12532TIP3   OH259010   4.754   3.159   1.601 -0.0630 -0.1863 -0.3447
12532TIP3    H159011   4.806   3.094   1.648  0.2213 -0.4880 -1.0680
12532TIP3    H259012   4.800   3.172   1.518 -0.3096  0.6804 -0.3532
12533TIP3   OH259013   4.090   1.624  14.097  0.6568 -0.5917  0.0550
12533TIP3    H159014   4.110   1.623  14.190  0.3645 -0.8557  0.1198
12533TIP3    H259015   4.173   1.644  14.054  0.2436  2.6593  0.4998
12534TIP3   OH259016   4.361   3.489  15.636  0.1740  0.1300 -1.1574
12534TIP3    H159017   4.355   3.584  15.620 -0.3938  0.5324  1.0909
12534TIP3    H259018   4.452   3.475  15.662 -0.2859  0.5351  0.8485
12535TIP3   OH259019   5.499   5.480  12.574 -0.2641 -0.0267  0.4084
12535TIP3    H159020   5.570   5.542  12.558 -0.9882  0.6501 -0.3124
12535TIP3    H259021   5.445   5.485  12.495 -1.1884 -0.4202  0.9948
12536TIP3   OH259022   2.786   2.578   5.780  0.5094 -0.2546 -0.2425
12536TIP3    H159023   2.825   2.651   5.828  2.1622 -0.5240 -1.1168
12536TIP3    H259024   2.717   2.618   5.727 -2.5186 -0.1348  3.3641
12537TIP3   OH259025   2.993   2.437   0.486 -0.5460 -0.4095  0.9545
12537TIP3    H159026   3.030   2.512   0.533  0.1207 -0.5763  0.7138
12537TIP3    H259027   2.987   2.368   0.553 -0.5586 -0.3339  1.0318
12538TIP3   OH259028   4.042   0.189  16.757 -0.4427 -0.1712 -0.4377
12538TIP3    H159029   4.019   0.280  16.739 -0.4741 -0.2496 -0.7913
12538TIP3    H259030   3.978   0.161  16.823 -1.3035 -0.3580 -1.3331
12539TIP3   OH259031   1.549   1.568  16.570 -0.0082  0.2878 -0.1019
12539TIP3    H159032   1.555   1.492  16.512 -0.8088 -0.4221  0.7201
12539TIP3    H259033   1.489   1.627  16.526 -2.6365 -1.3253  1.1059
12540TIP3   OH259034   2.916   2.737  16.816 -0.1453  0.7248 -0.1043
12540TIP3    H159035   2.885   2.771  16.901  0.3362 -1.2293  0.9188
12540TIP3    H259036   2.996   2.690  16.837  0.1930  0.5301 -1.7286
12541TIP3   OH259037   2.374   5.041  13.097  0.1833  0.1132  0.1154
12541TIP3    H159038   2.365   5.104  13.168  1.0882  0.1115  0.2523
12541TIP3    H259039   2.326   4.963  13.126  0.7195  0.0392  0.8174
12542TIP3   OH259040   5.607   3.429   5.060  0.1153 -0.7884 -0.3178
12542TIP3    H159041   5.565   3.494   5.004  0.3341 -0.4634 -0.1059
12542TIP3    H259042   5.669   3.479   5.112  2.2332 -1.5124 -1.9971
12543TIP3   OH259043   5.331   6.669   1.855  0.4147  0.8120  0.0160
12543TIP3    H159044   5.416   6.634   1.827 -1.1787 -1.9827 -1.8090
12543TIP3    H259045   5.308   6.619   1.933  0.3221  1.4136  0.3829
12544TIP3   OH259046   0.193   1.328  13.311  0.4269 -0.3829 -0.6927
12544TIP3    H159047   0.173   1.238  13.338 -1.1058 -0.1279 -0.9355
12544TIP3    H259048   0.171   1.330  13.218  3.0658 -0.4854 -1.4028
12545TIP3   OH259049   4.207   0.208   0.059 -0.2564  0.0134 -0.5287
12545TIP3    H159050   4.221   0.250  -0.026 -2.1034  0.3074 -0.7313
12545TIP3    H259051   4.269   0.135   0.060  2.6076  2.2465 -0.4436
12546TIP3   OH259052   0.907   2.927  17.211 -0.4526 -0.1629 -0.0227
12546TIP3    H159053   0.894   2.944  17.118 -0.2906 -0.1526 -0.0439
12546TIP3    H259054   0.836   2.867  17.235 -0.2570 -0.4907 -0.2478
12547TIP3   OH259055   0.449   5.793  11.861 -0.4125 -0.5471 -0.3821
12547TIP3    H159056   0.512   5.723  11.845 -0.3778 -0.6146  0.0390
12547TIP3    H259057   0.499   5.861  11.906 -0.4147 -0.1913 -0.8978
12548TIP3   OH259058   2.325   3.419  16.835 -0.1643 -0.7424  0.1037
12548TIP3    H159059   2.299   3.387  16.748  0.0509  1.5141 -0.8801
12548TIP3    H259060   2.411   3.459  16.820 -0.7526  0.9619  0.9948
12549TIP3   OH259061   4.117   1.284  12.309 -0.1386  0.1487  0.1788
12549TIP3    H159062   4.115   1.277  12.214  0.5294 -1.3781  0.2497
12549TIP3    H259063   4.192   1.341  12.327  1.1120 -1.3071 -0.1797
12550TIP3   OH259064   5.503   5.767  17.346  0.5579  0.0619  0.0372
12550TIP3    H159065   5.486   5.830  17.417  0.3507 -0.1904  0.2136
12550TIP3    H259066   5.417   5.730  17.327  0.5470  0.4244 -0.6311
12551TIP3   OH259067   4.472   3.481  15.267  0.0140 -0.4840 -0.0859
12551TIP3    H159068   4.410   3.532  15.215  1.7171  1.0897 -0.6855
12551TIP3    H259069   4.543   3.462  15.207  1.5518  0.4627  1.3554
12552TIP3   OH259070   2.074   0.498   5.390  0.4194  1.4529 -0.3133
12552TIP3    H159071   2.138   0.509   5.320  0.0523  0.4564 -0.8314
12552TIP3    H259072   2.032   0.414   5.371  0.6858  0.8927  1.4193
12553TIP3   OH259073   2.263   4.031  14.602  0.1719 -0.2229  0.2606
12553TIP3    H159074   2.246   4.086  14.678 -1.0457  2.0297 -1.5027
12553TIP3    H259075   2.357   4.042  14.585 -0.4495  3.7347 -1.6271
12554TIP3   OH259076   5.846   1.014   1.181  0.2522 -0.0055 -0.0405
12554TIP3    H159077   5.858   1.023   1.087  1.0210 -3.2030 -0.3730
12554TIP3    H259078   5.934   1.029   1.218  0.7019 -1.8716 -0.2354
12555TIP3   OH259079   1.718   1.634   2.046 -0.3826 -0.4850 -0.0629
12555TIP3    H159080   1.758   1.701   1.991 -1.2618  1.1639  1.2234
12555TIP3    H259081   1.774   1.631   2.124 -0.5148 -1.0689  0.0154
12556TIP3   OH259082   0.454   3.728   2.270 -0.2898 -0.1831  0.0194
12556TIP3    H159083   0.535   3.727   2.320 -0.9011 -0.4081  1.0490
12556TIP3    H259084   0.387   3.701   2.333 -1.3408  1.1143 -0.4952
12557TIP3   OH259085   1.697   0.874   1.056 -0.0457 -0.8433  0.0715
12557TIP3    H159086   1.648   0.917   1.127 -2.0687 -0.0433 -1.7070
12557TIP3    H259087   1.771   0.932   1.039  0.9445 -1.4412  1.9750
12558TIP3   OH259088   1.501   1.841   1.476  0.6128 -0.2675 -0.7635
12558TIP3    H159089   1.473   1.886   1.396  0.0664  2.4835  0.8336
12558TIP3    H259090   1.420   1.825   1.524  1.0846  0.0880  0.1756
12559TIP3   OH259091   3.521   1.729  15.448 -0.1557 -0.9904  0.2674
12559TIP3    H159092   3.470   1.729  15.529  0.3122  0.4803  0.5912
12559TIP3    H259093   3.557   1.641  15.442 -1.1779 -1.4838  1.0167
12560TIP3   OH259094   0.334   4.714  13.016 -0.0417 -0.4287 -0.3298
12560TIP3    H159095   0.324   4.771  12.940  0.9289 -0.0869 -0.2200
12560TIP3    H259096   0.336   4.774  13.091  1.2970 -0.5659 -0.2400
12561TIP3   OH259097   4.890   2.408  11.848 -0.0670 -0.3160  0.3461
12561TIP3    H159098   4.856   2.453  11.925  1.5918  0.4922  0.6372
12561TIP3    H259099   4.970   2.366  11.879  0.3663 -0.3704 -0.8317
12562TIP3   OH259100   6.128   4.761  15.262 -0.3856 -0.3675  0.0441
12562TIP3    H159101   6.076   4.833  15.227 -0.8596 -1.2219 -1.0754
12562TIP3    H259102   6.190   4.803  15.322 -0.8324  0.9246 -0.3629
12563TIP3   OH259103   2.831   3.157  11.377 -0.5029  0.0834  0.1433
12563TIP3    H159104   2.748   3.142  11.423 -1.2729 -0.7805 -1.4564
12563TIP3    H259105   2.805   3.180  11.288  0.9093  2.9778  0.3788
12564TIP3   OH259106   1.418   0.231  17.196  0.4973 -0.2976 -0.1637
12564TIP3    H159107   1.440   0.159  17.255  1.3305  1.0361  1.2103
12564TIP3    H259108   1.340   0.271  17.234 -1.3717 -1.8010 -2.1741
12565TIP3   OH259109   3.222   3.381   4.052  0.2217  0.2487  0.7924
12565TIP3    H159110   3.188   3.449   3.994  1.0635 -0.4182 -0.5170
12565TIP3    H259111   3.306   3.416   4.082 -0.9660  1.3796  3.1042
12566TIP3   OH259112   0.599   2.682   0.735 -0.4088  0.8210  0.0603
12566TIP3    H159113   0.610   2.777   0.722  3.1166  0.7456  1.5440
12566TIP3    H259114   0.531   2.675   0.801  0.8193  2.5114  1.6010
12567TIP3   OH259115   0.849   0.385  17.236  0.3931 -0.0946 -0.3554
12567TIP3    H159116   0.900   0.365  17.315 -1.6731 -0.7495  0.9108
12567TIP3    H259117   0.882   0.324  17.170  0.0674 -1.7779  0.9494
12568TIP3   OH259118   5.597   2.121  12.192 -0.4348 -0.1235  0.9320
12568TIP3    H159119   5.639   2.105  12.276 -0.5399  0.6120  1.1391
12568TIP3    H259120   5.634   2.056  12.133  1.7741  1.0929  0.8492
12569TIP3   OH259121   1.010   4.247  14.734 -0.0401 -0.1862 -0.0138
12569TIP3    H159122   0.996   4.290  14.818 -1.6078  2.5398 -1.5252
12569TIP3    H259123   1.096   4.278  14.706 -0.7178  1.2064 -0.6249
12570TIP3   OH259124   5.260   4.728   5.436  0.0731 -0.2045  0.1099
12570TIP3    H159125   5.191   4.751   5.498  0.3133 -3.3565  1.7503
12570TIP3    H259126   5.341   4.755   5.479  0.1663 -1.4243  0.7437
12571TIP3   OH259127   4.988   0.883  15.451  0.1018 -0.0316  0.0244
12571TIP3    H159128   5.055   0.842  15.505 -0.4752 -0.7140  0.2278
12571TIP3    H259129   4.919   0.909  15.512 -0.4459 -0.5938 -0.3350
12572TIP3   OH259130   6.131   4.748   0.799  0.3975 -0.3574 -0.4845
12572TIP3    H159131   6.047   4.727   0.838  0.3522 -0.0277 -0.3952
12572TIP3    H259132   6.162   4.666   0.760 -2.0268  0.3635 -4.5146
12573TIP3   OH259133   5.360   0.674   0.031 -0.3464 -0.4858  0.7032
12573TIP3    H159134   5.393   0.658  -0.057 -1.9353 -0.2704  0.0255
12573TIP3    H259135   5.368   0.589   0.076  0.1690 -0.6769  0.2556
12574TIP3   OH259136   2.528   3.422   2.070  0.1759  0.0195 -0.4235
12574TIP3    H159137   2.453   3.365   2.056  0.6322 -1.0381  1.0749
12574TIP3    H259138   2.571   3.386   2.148  1.7925  1.0537 -0.7731
12575TIP3   OH259139   1.455   5.701  12.081  0.0684 -0.1430 -0.0906
12575TIP3    H159140   1.490   5.720  12.168  1.6403 -1.6599 -0.3513
12575TIP3    H259141   1.463   5.784  12.034  2.2472 -0.1232  0.2398
12576TIP3   OH259142   2.931   6.016  12.028 -0.2935 -0.7694 -0.0503
12576TIP3    H159143   2.988   5.948  11.991  1.8895  0.7440  0.3042
12576TIP3    H259144   2.936   6.002  12.122  0.0437 -0.2395  0.0154
12577TIP3   OH259145   6.393   1.636  11.991 -0.0518  0.0318 -0.4749
12577TIP3    H159146   6.397   1.576  12.065 -0.9794 -0.1207 -0.5354
12577TIP3    H259147   6.354   1.583  11.920  1.7441 -0.1313 -1.3844
12578TIP3   OH259148   2.745   0.798   3.456  0.7191  0.4445 -0.2335
12578TIP3    H159149   2.811   0.860   3.487  1.8446 -0.9268  0.1690
12578TIP3    H259150   2.752   0.723   3.514 -0.1864 -0.3552 -1.1060
12579TIP3   OH259151   4.377   4.511   5.651 -0.2318  0.7045  0.2067
12579TIP3    H159152   4.364   4.540   5.742 -0.3702 -0.9242  0.7474
12579TIP3    H259153   4.452   4.561   5.620  1.9264 -0.9642  2.3500
12580TIP3   OH259154   6.475   6.546  13.078  0.1392  0.5430 -0.7069
12580TIP3    H159155   6.530   6.618  13.107 -0.1331  0.3957  0.2072
12580TIP3    H259156   6.388   6.567  13.111  0.0335 -0.1439 -0.5256
12581TIP3   OH259157   2.443   5.821  17.062  0.4517 -0.0186 -0.3870
12581TIP3    H159158   2.434   5.808  17.157 -0.1222 -0.5333 -0.5039
12581TIP3    H259159   2.525   5.777  17.041  0.3703 -0.2784 -0.1853
12582TIP3   OH259160   6.324   3.635  14.069 -0.5632  0.1666 -0.4649
12582TIP3    H159161   6.303   3.726  14.089  1.0823  0.6662 -0.8538
12582TIP3    H259162   6.361   3.600  14.150 -0.0341  0.2345 -0.6695
12583TIP3   OH259163   1.656   0.944  15.978 -0.2397  0.2350 -0.6013
12583TIP3    H159164   1.625   0.944  16.068 -0.9487 -0.1408 -0.8412
12583TIP3    H259165   1.673   1.037  15.959 -0.4707  0.3574 -0.2184
12584TIP3   OH259166   6.524   4.174  12.422 -0.0783 -0.9679 -0.7539
12584TIP3    H159167   6.572   4.134  12.494 -0.9033 -1.8895 -0.6880
12584TIP3    H259168   6.442   4.204  12.462  0.9959  1.9704 -0.5344
12585TIP3   OH259169   3.779   4.154  11.284 -0.5330  0.3418  0.1465
12585TIP3    H159170   3.830   4.078  11.254 -0.4507  0.5075 -0.1360
12585TIP3    H259171   3.754   4.132  11.373  2.4673  1.4558  1.3972
12586TIP3   OH259172   3.316   4.372  15.977  0.1431  0.3054  0.6798
12586TIP3    H159173   3.270   4.312  15.918  0.3489  0.7990 -0.0047
12586TIP3    H259174   3.246   4.421  16.020 -0.0844 -1.2111  2.1550
12587TIP3   OH259175   1.623   4.713  13.186 -0.7473  0.1492  0.0355
12587TIP3    H159176   1.559   4.675  13.245  1.4240 -2.9927  0.6248
12587TIP3    H259177   1.677   4.639  13.157  2.3218  2.4581 -0.7653
12588TIP3   OH259178   3.323   6.326   0.769 -0.1937 -0.0828  0.0425
12588TIP3    H159179   3.390   6.263   0.742 -0.1056  0.3093 -0.6781
12588TIP3    H259180   3.366   6.411   0.765 -0.4561  0.0791  0.5318
12589TIP3   OH259181   3.889   0.803  13.787  0.4642 -0.4823  0.1556
12589TIP3    H159182   3.898   0.831  13.696 -0.9942 -1.6026 -0.3635
12589TIP3    H259183   3.861   0.712  13.782 -3.2614  0.4119  1.6037
12590TIP3   OH259184   1.591   3.464   5.156 -0.0939  0.0904  0.1724
12590TIP3    H159185   1.566   3.517   5.080 -2.5713 -1.1626  0.0316
12590TIP3    H259186   1.567   3.519   5.232  1.6700  1.0201  0.1105
12591TIP3   OH259187   0.965   0.826   1.054  0.0299 -0.2660 -0.1036
12591TIP3    H159188   1.016   0.845   0.975 -0.3759  1.0061 -0.0821
12591TIP3    H259189   1.027   0.780   1.111  0.8186  0.2399 -0.5274
12592TIP3   OH259190   5.737   4.661  12.760 -0.0371 -0.3274 -0.0412
12592TIP3    H159191   5.805   4.704  12.707 -0.5013  1.3073  0.6157
12592TIP3    H259192   5.754   4.690  12.850  0.0971 -2.2070  0.5742
12593TIP3   OH259193   4.424   5.221  14.177 -0.0995  0.3449 -0.7179
12593TIP3    H159194   4.419   5.316  14.184 -1.4639  0.4189 -2.2251
12593TIP3    H259195   4.338   5.190  14.205  0.1162 -0.4073 -0.8592
12594TIP3   OH259196   4.719   4.873   4.373  0.4720  0.4841  0.4643
12594TIP3    H159197   4.739   4.957   4.416  1.1807  0.8393 -0.5080
12594TIP3    H259198   4.747   4.886   4.283 -0.6291 -0.3739 -0.0214
12595TIP3   OH259199   0.263   1.097   5.601 -0.1485 -0.1233  0.1627
12595TIP3    H159200   0.185   1.076   5.653 -1.3495 -0.6550 -1.7201
12595TIP3    H259201   0.303   1.012   5.583 -1.0447 -0.2215 -1.6116
12596TIP3   OH259202   1.183   0.039   4.714 -0.6772 -0.0502  0.0721
12596TIP3    H159203   1.193  -0.030   4.779  0.8662 -0.8424 -0.9522
12596TIP3    H259204   1.126   0.001   4.647 -1.4576  0.4142  0.4519
12597TIP3   OH259205   0.971   3.670   0.674 -0.1493 -0.5744 -0.0484
12597TIP3    H159206   0.994   3.757   0.707 -0.2523  0.5270 -2.6463
12597TIP3    H259207   0.898   3.642   0.729 -1.1657  1.6923 -0.1336
12598TIP3   OH259208   5.252   3.192   1.496  0.1312 -0.7013  0.0310
12598TIP3    H159209   5.250   3.162   1.406 -2.1162 -0.9555  0.1071
12598TIP3    H259210   5.266   3.287   1.490  2.1054 -0.9736 -0.4340
12599TIP3   OH259211   0.021   0.765   2.764  0.1615  0.0383 -0.4624
12599TIP3    H159212   0.064   0.811   2.692 -0.7065  3.9487  1.2624
12599TIP3    H259213   0.093   0.720   2.809  1.3460  0.7936 -1.5259
12600TIP3   OH259214   0.531   5.863  12.552 -0.1256  0.3440  0.1759
12600TIP3    H159215   0.585   5.823  12.619 -1.8386  0.2155  1.5468
12600TIP3    H259216   0.569   5.950  12.539  2.1791 -0.7642 -1.1079
12601TIP3   OH259217   1.022   3.234  14.790  0.1203  0.1755  0.4908
12601TIP3    H159218   1.075   3.199  14.862 -0.0633  0.5456  0.8120
12601TIP3    H259219   1.082   3.241  14.716  0.1254 -0.9533  0.3727
12602TIP3   OH259220   1.711   0.596  13.488 -0.0087  0.4895 -0.6099
12602TIP3    H159221   1.645   0.558  13.545  0.6409  0.4406  0.1219
12602TIP3    H259222   1.664   0.618  13.407 -0.8348  0.1419 -0.2267
12603TIP3   OH259223   1.017   3.894  16.062  0.2001  0.8355  0.6410
12603TIP3    H159224   1.033   3.866  15.971 -0.6530  0.0304  0.7201
12603TIP3    H259225   0.924   3.918  16.063 -0.2875 -0.9042  1.6997
12604TIP3   OH259226   1.040   4.345  15.002 -0.5689 -0.3250  0.1854
12604TIP3    H159227   0.973   4.317  15.065 -1.6527  0.5390 -0.5432
12604TIP3    H259228   1.105   4.390  15.056  0.4371 -2.7576  1.1633
12605TIP3   OH259229   5.000   1.775   1.594  0.7477 -0.0593  0.1957
12605TIP3    H159230   4.925   1.716   1.602 -0.4598  1.4395  0.4566
12605TIP3    H259231   4.982   1.826   1.515  2.3400 -0.7641 -0.6813
12606TIP3   OH259232   1.020   1.531   6.009 -0.2152  0.1264 -0.0552
12606TIP3    H159233   1.071   1.450   6.010  0.6505  0.6172 -1.2300
12606TIP3    H259234   1.066   1.589   6.070  0.5753  0.5047 -0.9726
12607TIP3   OH259235   0.561   4.650   0.934  0.5701 -0.5797 -0.3682
12607TIP3    H159236   0.548   4.555   0.931 -0.4310 -0.5691  1.7438
12607TIP3    H259237   0.484   4.686   0.891  0.4137 -0.7124 -0.2013
12608TIP3   OH259238   0.678   5.643   2.706  0.1215  0.6594  0.1176
12608TIP3    H159239   0.668   5.554   2.670 -0.9644  0.4785  0.8376
12608TIP3    H259240   0.594   5.685   2.689 -0.0068  0.9505  1.4039
12609TIP3   OH259241   5.071   4.266  12.172  0.2071  0.4170  0.1233
12609TIP3    H159242   5.126   4.190  12.153  0.0876  0.7960 -1.8898
12609TIP3    H259243   4.981   4.233  12.162  0.1508  0.7546 -0.5147
12610TIP3   OH259244   0.562   5.847   0.888  0.2431  0.0057 -0.5775
12610TIP3    H159245   0.533   5.922   0.939 -0.4195  0.0448 -0.9914
12610TIP3    H259246   0.651   5.829   0.918 -0.4739 -0.5962  1.3008
12611TIP3   OH259247   2.913   6.403   1.120  0.2524 -0.2919 -0.1697
12611TIP3    H159248   2.894   6.342   1.191  0.3207  0.5135  0.5559
12611TIP3    H259249   2.842   6.391   1.057  0.4568 -1.3680 -0.2163
12612TIP3   OH259250   1.823   6.018  12.639 -0.1870 -0.3472  0.2005
12612TIP3    H159251   1.850   6.035  12.729 -0.3549  0.9331  0.0145
12612TIP3    H259252   1.899   5.975  12.600  0.2286 -0.0788  0.6957
12613TIP3   OH259253   5.816   3.812   0.741 -0.4063  0.3679  0.2783
12613TIP3    H159254   5.733   3.858   0.749 -0.4591  0.4419 -0.5999
12613TIP3    H259255   5.794   3.730   0.696  0.0794  0.6711 -0.5350
12614TIP3   OH259256   3.823   1.305   2.145 -0.5021  0.0819 -0.2417
12614TIP3    H159257   3.896   1.367   2.146 -1.5180  1.3065  0.5225
12614TIP3    H259258   3.801   1.295   2.053 -0.2199  0.7410 -0.3876
12615TIP3   OH259259   0.862   0.453  14.446  0.6699  0.3448  0.6948
12615TIP3    H159260   0.802   0.422  14.378 -0.7071  2.3760  0.9142
12615TIP3    H259261   0.948   0.451  14.404  0.2269 -0.9266 -0.2194
12616TIP3   OH259262   0.022   4.315  13.411  0.2660  0.2242  0.1603
12616TIP3    H159263  -0.062   4.340  13.372 -0.6591 -1.5839  0.8853
12616TIP3    H259264   0.037   4.226  13.379  1.2390  0.0300  1.1241
12617TIP3   OH259265   1.744   2.233  12.449 -0.2369  0.1717  0.0911
12617TIP3    H159266   1.765   2.140  12.457 -0.0748 -0.0296 -2.0165
12617TIP3    H259267   1.828   2.275  12.430 -0.1535  0.9268  1.9257
12618TIP3   OH259268   5.104   2.409  12.911 -0.0951  0.6518 -0.1583
12618TIP3    H159269   5.062   2.391  12.996 -3.5626  2.5924 -1.2409
12618TIP3    H259270   5.174   2.470  12.931  0.4572 -0.4431  1.4689
12619TIP3   OH259271   5.501   4.823   4.711 -0.2526  0.4971  0.3280
12619TIP3    H159272   5.547   4.901   4.680 -0.8964  0.1157 -1.7616
12619TIP3    H259273   5.413   4.854   4.733  0.0145  0.6571  1.1795
12620TIP3   OH259274   3.722   6.717  12.800 -0.2815  0.0605 -0.3137
12620TIP3    H159275   3.777   6.638  12.804 -1.9432 -1.1615 -0.4237
12620TIP3    H259276   3.715   6.745  12.891 -0.8535 -0.7940 -0.0795
12621TIP3   OH259277   1.865   3.340  13.199  0.2479  0.1552 -0.9552
12621TIP3    H159278   1.852   3.427  13.163  0.1154  0.5034 -0.0942
12621TIP3    H259279   1.904   3.355  13.285 -1.3881 -0.5449 -0.0475
12622TIP3   OH259280   2.641   4.657  16.915  0.3015 -0.5174 -0.0062
12622TIP3    H159281   2.635   4.620  16.827  0.6560  0.0105 -0.2635
12622TIP3    H259282   2.650   4.582  16.973  1.9183 -0.8138 -0.5915
12623TIP3   OH259283   5.847   0.989  17.224  0.1781 -0.5679 -0.0728
12623TIP3    H159284   5.927   0.985  17.276 -0.0732 -1.9241  0.2594
12623TIP3    H259285   5.822   0.897  17.211  0.1125 -0.2961 -2.4288
12624TIP3   OH259286   3.353   2.153  12.098  0.2772  0.1499 -0.9991
12624TIP3    H159287   3.378   2.128  12.187 -1.5156 -0.8169 -0.7181
12624TIP3    H259288   3.347   2.070  12.050  0.7726  0.6230 -1.9040
12625TIP3   OH259289   1.179   6.494   6.328  0.4751  0.7182 -0.5197
12625TIP3    H159290   1.103   6.472   6.383 -0.5076  0.3154 -1.9746
12625TIP3    H259291   1.237   6.544   6.385  0.1891 -0.9157  1.3118
12626TIP3   OH259292   0.668   2.719   2.933  0.3228  0.2885  0.3792
12626TIP3    H159293   0.581   2.726   2.971  0.0502  0.3051 -0.2461
12626TIP3    H259294   0.722   2.682   3.003 -0.6092 -1.5575  0.1726
12627TIP3   OH259295   2.240   2.276  14.674  0.4165  0.0331  0.2455
12627TIP3    H159296   2.257   2.321  14.591 -1.9070 -0.4379 -0.5458
12627TIP3    H259297   2.165   2.322  14.711 -0.7552 -1.9197  0.3991
12628TIP3   OH259298   4.926   1.297  14.501 -0.2004 -0.5728 -0.0023
12628TIP3    H159299   4.968   1.360  14.443 -0.6172 -0.5973 -0.3294
12628TIP3    H259300   4.989   1.225  14.507  0.4151 -0.0003  0.6234
12629TIP3   OH259301   4.387   0.468  14.652  0.5074  0.1513 -0.3320
12629TIP3    H159302   4.373   0.500  14.742  0.2634 -1.4114  0.2035
12629TIP3    H259303   4.458   0.524  14.619  1.5006 -0.0730  1.2877
12630TIP3   OH259304   6.520   2.445   1.594 -0.3157  0.0599 -0.1640
12630TIP3    H159305   6.498   2.481   1.680  1.3043  2.9113 -0.7969
12630TIP3    H259306   6.475   2.502   1.531 -0.8225 -1.4810 -1.2681
12631TIP3   OH259307   4.764   4.937   1.420 -0.2315 -0.2733  0.2633
12631TIP3    H159308   4.674   4.922   1.392 -0.3577  1.6123 -0.4574
12631TIP3    H259309   4.759   4.944   1.516 -0.6004 -1.6083  0.3570
12632TIP3   OH259310   2.726   5.925   1.959 -0.2383 -0.0410 -0.0516
12632TIP3    H159311   2.660   5.879   1.907  0.0439 -1.0293  0.4466
12632TIP3    H259312   2.679   5.954   2.038 -0.5501  1.0470 -0.6078
12633TIP3   OH259313   2.081   4.482  16.796  0.4214 -0.3243  0.1396
12633TIP3    H159314   2.144   4.494  16.866  0.6191 -1.0767  0.0968
12633TIP3    H259315   2.017   4.553  16.808  0.3716 -0.5300  1.1615
12634TIP3   OH259316   5.627   5.079   3.823 -0.2384 -0.4308 -0.1333
12634TIP3    H159317   5.651   5.022   3.895  0.2259  0.4072  0.3883
12634TIP3    H259318   5.709   5.095   3.776  0.3684  2.4556  1.6609
12635TIP3   OH259319   0.299   5.752   5.494 -0.3018 -0.5830  0.2474
12635TIP3    H159320   0.311   5.709   5.578 -0.7911 -0.2170  0.5074
12635TIP3    H259321   0.349   5.833   5.501 -0.1791 -0.6475  0.1145
12636TIP3   OH259322   2.944   1.029   3.460 -0.4148  0.1516 -0.0043
12636TIP3    H159323   2.963   1.046   3.553  0.1921  1.2681 -0.3187
12636TIP3    H259324   3.023   1.055   3.414 -0.3369 -1.3641 -0.7683
12637TIP3   OH259325   4.043   2.612   4.280 -0.0517 -0.4696  0.2313
12637TIP3    H159326   4.071   2.692   4.325 -2.5164  0.0430  0.9961
12637TIP3    H259327   4.104   2.545   4.311  1.1958  0.8092  0.6667
12638TIP3   OH259328   1.122   4.466  14.349 -0.0901  0.9179  0.4914
12638TIP3    H159329   1.205   4.428  14.321  0.1393  1.4250  0.4720
12638TIP3    H259330   1.059   4.395  14.341 -0.1000  1.1097 -1.6639
12639TIP3   OH259331   2.754   1.346  14.796 -0.0698 -0.4552 -0.3900
12639TIP3    H159332   2.786   1.334  14.886 -2.2719 -0.5705  0.4589
12639TIP3    H259333   2.790   1.431  14.769  0.1203 -0.1203  0.8503
12640TIP3   OH259334   1.655   1.984   3.421 -0.6929  0.1673 -0.8039
12640TIP3    H159335   1.652   1.992   3.516 -2.9634 -1.0846 -0.6946
12640TIP3    H259336   1.747   1.996   3.398  0.0556 -0.4502  1.6290
12641TIP3   OH259337   0.350   0.688   5.898  0.3315  0.4946 -0.6068
12641TIP3    H159338   0.255   0.684   5.900  0.2396  1.9959 -0.9436
12641TIP3    H259339   0.378   0.653   5.983 -0.4115 -1.5310 -1.1316
12642TIP3   OH259340   1.221   0.017  15.305  0.0371  0.2012  0.1461
12642TIP3    H159341   1.238  -0.056  15.365 -1.0270 -0.4249 -0.2920
12642TIP3    H259342   1.132   0.045  15.326 -0.6485 -0.5241 -1.6303
12643TIP3   OH259343   2.462   5.819  13.684  0.0184 -0.4084  0.0120
12643TIP3    H159344   2.414   5.882  13.738  1.9946  0.4757  0.8197
12643TIP3    H259345   2.519   5.773  13.745  1.5341 -0.1330 -1.1432
12644TIP3   OH259346   5.824   5.363  11.941  0.2463 -0.1974 -0.3193
12644TIP3    H159347   5.771   5.284  11.940 -0.0380 -0.0323  0.7286
12644TIP3    H259348   5.878   5.355  12.019  1.0640  0.1033 -0.8376
12645TIP3   OH259349   5.678   4.150  12.769 -0.0722  0.0023 -0.7592
12645TIP3    H159350   5.602   4.207  12.771  0.3212  0.8264 -3.9192
12645TIP3    H259351   5.751   4.208  12.746  1.2923 -0.9989  0.8256
12646TIP3   OH259352   5.263   1.766   2.877  0.8160 -0.5049 -0.8976
12646TIP3    H159353   5.208   1.778   2.954  2.9741  0.2539  0.6424
12646TIP3    H259354   5.269   1.853   2.838  1.3471 -0.4574 -0.7195
12647TIP3   OH259355   1.143   0.243   0.353 -0.5386  0.1286  0.1985
12647TIP3    H159356   1.204   0.169   0.352 -0.0284  0.5380  0.4638
12647TIP3    H259357   1.199   0.320   0.362 -1.1421  0.4580  1.4043
12648TIP3   OH259358   5.859   2.766  14.816 -0.3292 -0.4757 -0.6939
12648TIP3    H159359   5.805   2.779  14.894 -0.8996 -1.6049 -0.8686
12648TIP3    H259360   5.929   2.707  14.845 -0.7734 -1.2240 -1.1156
12649TIP3   OH259361   5.441   6.017   2.937 -0.1617 -0.0255 -0.2638
12649TIP3    H159362   5.363   6.009   2.991  0.4464 -0.6605  0.5645
12649TIP3    H259363   5.483   5.931   2.942  0.1446  0.0349 -1.4093
12650TIP3   OH259364   1.653   2.430   1.932  0.3357 -0.0597  0.0919
12650TIP3    H159365   1.730   2.487   1.937 -0.3506  0.9624 -0.4638
12650TIP3    H259366   1.586   2.477   1.982 -0.1032 -0.6162  0.0260
12651TIP3   OH259367   4.189   5.712   0.413 -0.2889 -0.0627 -0.9962
12651TIP3    H159368   4.228   5.633   0.450 -2.4731  0.5956  3.4083
12651TIP3    H259369   4.095   5.700   0.423 -0.8571  1.9446 -2.9621
12652TIP3   OH259370   5.319   4.228  14.993 -0.0626 -0.3165 -0.0491
12652TIP3    H159371   5.406   4.225  14.953 -0.3445 -1.7457 -0.6495
12652TIP3    H259372   5.320   4.159  15.058  0.1616  1.5619  2.0486
12653TIP3   OH259373   5.820   4.078  11.812 -0.7220 -0.1144 -0.1904
12653TIP3    H159374   5.872   4.072  11.732  0.2938 -0.6274  0.4809
12653TIP3    H259375   5.735   4.041  11.789 -0.3542 -0.5000 -0.9493
12654TIP3   OH259376   6.344   2.044  12.151  0.0570 -0.0839 -0.3105
12654TIP3    H159377   6.401   2.004  12.216  0.9336  0.4323 -0.7398
12654TIP3    H259378   6.327   2.132  12.184 -0.3603 -0.1818 -0.2628
12655TIP3   OH259379   2.607   4.372  10.705  0.4629 -0.2838  0.0094
12655TIP3    H159380   2.592   4.407  10.793  0.7816  1.4990 -0.6062
12655TIP3    H259381   2.702   4.366  10.697  0.5159  1.0777 -0.7312
12656TIP3   OH259382   2.842   3.888   4.045 -0.1070 -0.0244 -0.1243
12656TIP3    H159383   2.840   3.793   4.045  0.5172 -0.0392 -0.0812
12656TIP3    H259384   2.926   3.911   4.085  0.0849  0.5400 -0.8305
12657TIP3   OH259385   0.144   0.298  12.754  0.3127  0.1046 -0.5115
12657TIP3    H159386   0.176   0.215  12.790  1.3152  1.5335  2.2272
12657TIP3    H259387   0.049   0.293  12.761  0.3951 -0.6018  0.1787
12658TIP3   OH259388   6.506   2.183  11.202 -0.2146 -0.4358 -0.2107
12658TIP3    H159389   6.495   2.270  11.241  0.8131 -0.8260  1.0305
12658TIP3    H259390   6.578   2.194  11.140 -1.3591  0.0122 -1.5195
12659TIP3   OH259391   5.969   0.886  13.565 -0.5515 -0.2013 -0.2043
12659TIP3    H159392   5.924   0.859  13.485  0.9390 -0.2627 -1.0396
12659TIP3    H259393   5.898   0.896  13.629 -1.9091  0.9625 -1.8057
12660TIP3   OH259394   4.835   0.146   5.694  0.1053 -0.5231  0.6053
12660TIP3    H159395   4.896   0.198   5.642 -1.3451  0.6526  0.0226
12660TIP3    H259396   4.857   0.055   5.671  0.1699 -0.0705 -1.3423
12661TIP3   OH259397   0.448   0.081   4.744 -0.5478 -0.0075  0.5362
12661TIP3    H159398   0.476   0.149   4.804  0.4460 -0.7897  0.9832
12661TIP3    H259399   0.470  -0.001   4.788 -0.9141 -0.6110 -0.3660
12662TIP3   OH259400   3.135   1.385  11.131 -0.5772  0.0622  0.6647
12662TIP3    H159401   3.180   1.469  11.119  0.3907 -0.5173  0.1980
12662TIP3    H259402   3.062   1.389  11.068  0.0405  0.1643 -0.0615
12663TIP3   OH259403   2.384   0.209   1.702  0.4320  0.3392 -0.3868
12663TIP3    H159404   2.306   0.198   1.648 -0.9091  1.0009  1.3145
12663TIP3    H259405   2.405   0.302   1.696 -0.9315  0.8414  1.7099
12664TIP3   OH259406   4.719   1.501  14.281  0.0187  0.8572  0.6366
12664TIP3    H159407   4.675   1.470  14.360  0.2123  1.1299  0.8546
12664TIP3    H259408   4.810   1.475  14.293 -0.3078 -0.9493 -0.4419
12665TIP3   OH259409   0.258   2.827  11.895 -0.1902  0.1673 -0.4643
12665TIP3    H159410   0.198   2.757  11.920  2.4495 -2.1346 -0.1197
12665TIP3    H259411   0.267   2.818  11.800  0.1223  0.0298 -0.4245
12666TIP3   OH259412   0.704   2.260  16.088  0.3844 -1.4382 -0.1102
12666TIP3    H159413   0.777   2.224  16.039  0.1918 -0.2465 -1.3302
12666TIP3    H259414   0.734   2.346  16.117 -1.3227  0.2112 -2.8430
12667TIP3   OH259415   4.824   3.390   3.798 -0.1959  0.5219 -0.1478
12667TIP3    H159416   4.838   3.403   3.704  0.7047  0.7396  0.0086
12667TIP3    H259417   4.775   3.308   3.803  1.1490 -0.3599 -0.7424
12668TIP3   OH259418   4.762   6.077  16.284  0.3044  0.7974 -0.1227
12668TIP3    H159419   4.690   6.076  16.347  0.6106  0.9214  0.2363
12668TIP3    H259420   4.834   6.033  16.330  0.9186  1.9826  0.0757
12669TIP3   OH259421   3.789   3.411   4.637  0.4192 -0.4778  0.3951
12669TIP3    H159422   3.858   3.435   4.698  0.7203 -1.3026  0.3822
12669TIP3    H259423   3.828   3.344   4.581  0.0354  0.0137 -0.4748
12670TIP3   OH259424   6.105   2.994  16.708  0.3301  0.4014  0.2561
12670TIP3    H159425   6.160   3.070  16.689  1.2707 -0.3543 -0.1797
12670TIP3    H259426   6.102   2.990  16.804  1.6555  0.0633  0.3057
12671TIP3   OH259427   4.567   6.221   3.104  0.3525  0.1887 -0.1247
12671TIP3    H159428   4.528   6.137   3.080 -0.4057 -0.2505  2.3481
12671TIP3    H259429   4.523   6.245   3.185  1.4627  2.3737 -0.1086
12672TIP3   OH259430   3.629   0.624   1.454 -0.5122 -0.1662  0.8311
12672TIP3    H159431   3.557   0.612   1.392  0.7056 -1.8975 -0.3498
12672TIP3    H259432   3.608   0.566   1.527 -0.1501 -1.0213  0.2816
12673TIP3   OH259433   5.649   4.476   0.112 -0.3604  0.0309  0.5075
12673TIP3    H159434   5.629   4.431   0.194 -0.1894 -1.4094 -0.2106
12673TIP3    H259435   5.581   4.448   0.051  0.6986 -0.6151 -0.4278
12674TIP3   OH259436   1.931   4.184  16.268  0.2115  0.1444 -0.2799
12674TIP3    H159437   2.008   4.127  16.266  0.3905  0.3557  0.3053
12674TIP3    H259438   1.876   4.149  16.338 -0.7961 -0.7035 -1.4456
12675TIP3   OH259439   0.882   6.115  12.623 -0.2852  0.2922  0.4925
12675TIP3    H159440   0.853   6.054  12.554 -0.1826 -0.8439  1.4231
12675TIP3    H259441   0.954   6.163  12.583 -0.4303 -0.1232 -0.3053
12676TIP3   OH259442   6.148   0.897  14.763  0.3094 -0.7270  0.7100
12676TIP3    H159443   6.111   0.819  14.722  3.0085 -1.7880  0.0827
12676TIP3    H259444   6.123   0.968  14.705  2.0577 -1.8905 -1.6478
12677TIP3   OH259445   4.279   2.221  15.001 -0.3119  0.2065 -0.7821
12677TIP3    H159446   4.191   2.184  15.006  0.1095 -0.6579  1.6096
12677TIP3    H259447   4.273   2.306  15.044 -0.4699  1.3806 -2.9639
12678TIP3   OH259448   6.723   5.936   2.204  0.1042  0.0814 -0.5102
12678TIP3    H159449   6.653   5.944   2.269  2.2526  3.3187  1.7322
12678TIP3    H259450   6.681   5.956   2.120 -1.8253  1.0968  0.6273
12679TIP3   OH259451   1.726   1.301  14.985 -0.5420 -0.5825 -0.5557
12679TIP3    H159452   1.787   1.228  14.972  0.0644 -0.1655 -0.0709
12679TIP3    H259453   1.740   1.358  14.909 -0.0821 -0.3139 -0.2693
12680TIP3   OH259454   0.180   3.376   3.253  0.3116 -0.0499  0.1831
12680TIP3    H159455   0.263   3.422   3.262 -0.2540  0.6014  3.1132
12680TIP3    H259456   0.129   3.430   3.192  1.0808  1.0420  0.4797
12681TIP3   OH259457   4.107   5.830  15.726  0.3702 -0.3334 -0.4913
12681TIP3    H159458   4.028   5.779  15.741 -0.5896  1.6719  2.0772
12681TIP3    H259459   4.179   5.770  15.747 -0.6751 -0.9612  1.6422
12682TIP3   OH259460   0.548   6.143  12.547  0.4043  0.2896  0.2755
12682TIP3    H159461   0.478   6.153  12.482 -1.4294 -0.8753  1.9292
12682TIP3    H259462   0.610   6.213  12.527 -0.0816  0.0023 -2.6400
12683TIP3   OH259463   4.051   6.405   5.001 -0.2597  0.0722  0.0544
12683TIP3    H159464   4.058   6.344   4.928  0.1503  0.9629 -0.6599
12683TIP3    H259465   4.042   6.491   4.961 -0.1582  0.5656  1.0510
12684TIP3   OH259466   4.942   1.918   1.069 -0.2254 -0.1759  0.2576
12684TIP3    H159467   4.970   2.002   1.032 -1.4279 -0.0124 -0.3070
12684TIP3    H259468   4.945   1.857   0.995 -1.5875 -0.0937  0.1202
12685TIP3   OH259469   3.003   6.474  12.552 -0.3491 -0.2060 -0.1459
12685TIP3    H159470   2.986   6.388  12.590  1.7433 -0.2091  0.9423
12685TIP3    H259471   2.951   6.475  12.471 -0.4949 -2.4542 -0.1583
12686TIP3   OH259472   4.976   0.520   3.085  0.1717  0.2226  0.0631
12686TIP3    H159473   5.025   0.533   3.166  0.1098  0.6340  0.0378
12686TIP3    H259474   5.026   0.568   3.019 -0.4129  0.8866  0.0948
12687TIP3   OH259475   3.716   6.609   2.664 -0.1726  0.0185  0.0258
12687TIP3    H159476   3.635   6.590   2.712 -0.3030  1.0597  0.2399
12687TIP3    H259477   3.686   6.628   2.574 -0.3559  1.8277  0.4253
12688TIP3   OH259478   4.215   1.355  11.283 -0.0012  0.0033 -0.4303
12688TIP3    H159479   4.143   1.394  11.232 -0.2650  1.5897  1.0917
12688TIP3    H259480   4.294   1.389  11.242 -0.0504 -1.6586 -2.0429
12689TIP3   OH259481   3.851   0.104   2.640  0.6422 -0.3839  0.1707
12689TIP3    H159482   3.910   0.106   2.564  0.8850 -2.1601  0.2509
12689TIP3    H259483   3.795   0.027   2.624  0.3270 -0.4533  1.5113
12690TIP3   OH259484   3.650   3.650  16.599 -0.0335  0.5268  0.0769
12690TIP3    H159485   3.692   3.731  16.571  1.1309 -0.4814 -1.2768
12690TIP3    H259486   3.687   3.632  16.686  2.0046 -0.0446 -0.8521
12691TIP3   OH259487   3.453   5.614   1.342 -0.5784  0.4765 -0.6557
12691TIP3    H159488   3.477   5.683   1.403  0.9998 -0.5508 -0.0645
12691TIP3    H259489   3.534   5.593   1.295 -0.7625 -1.6071 -0.1454
12692TIP3   OH259490   5.318   6.421   4.733 -0.1090 -0.5666  0.2284
12692TIP3    H159491   5.372   6.342   4.722  1.9263  0.8741 -0.9131
12692TIP3    H259492   5.257   6.418   4.659  0.7219 -0.5139 -0.4712
12693TIP3   OH259493   1.858   3.385   0.519  0.0952  0.4312  0.0922
12693TIP3    H159494   1.773   3.397   0.563 -0.7865 -1.5349 -0.9654
12693TIP3    H259495   1.922   3.388   0.590 -0.9155  1.2967  0.9968
12694TIP3   OH259496   6.608   0.169   2.320 -1.0860 -0.9261 -0.2915
12694TIP3    H159497   6.569   0.087   2.288 -1.3241 -1.7995  2.0005
12694TIP3    H259498   6.693   0.142   2.356 -1.1983 -0.1924  0.5564
12695TIP3   OH259499   5.853   6.285   3.419  0.4700 -0.3235  0.0669
12695TIP3    H159500   5.776   6.337   3.398 -1.2775 -2.9074 -0.3482
12695TIP3    H259501   5.865   6.227   3.343  2.1184 -0.7570  0.6127
12696TIP3   OH259502   4.427   0.064   3.226 -0.0336 -0.2283  0.5924
12696TIP3    H159503   4.374   0.122   3.281  0.6633  0.6210  0.3752
12696TIP3    H259504   4.363   0.002   3.190 -0.5429 -0.6651  2.1536
12697TIP3   OH259505   6.510   2.801  17.054  0.2399 -0.8038 -0.5604
12697TIP3    H159506   6.533   2.890  17.080 -2.0853 -0.5533  0.9295
12697TIP3    H259507   6.446   2.812  16.984 -3.7831 -0.9605  2.7459
12698TIP3   OH259508   5.950   5.197  11.328  0.1719 -0.6378 -0.1037
12698TIP3    H159509   6.033   5.155  11.306 -1.1634 -3.2235 -0.7411
12698TIP3    H259510   5.958   5.286  11.296  2.6732 -0.8112 -0.1388
12699TIP3   OH259511   3.292   1.253  10.916  0.2809 -0.3055 -0.7041
12699TIP3    H159512   3.311   1.304  10.838  0.5950 -1.5106 -1.4379
12699TIP3    H259513   3.200   1.272  10.936  0.2179  0.0607 -1.3337
12700TIP3   OH259514   6.286   6.515  12.261 -0.4284 -0.2908  0.4544
12700TIP3    H159515   6.193   6.507  12.280 -0.8033  1.2393 -0.5249
12700TIP3    H259516   6.299   6.461  12.182 -0.3865 -0.8121  0.8114
12701TIP3   OH259517   1.096   4.721   1.342 -0.1698 -0.4675  0.5061
12701TIP3    H159518   1.032   4.790   1.360 -0.0960  0.1697 -1.4819
12701TIP3    H259519   1.044   4.642   1.330 -0.5808 -0.0408 -0.6550
12702TIP3   OH259520   2.813   6.671   2.741  0.5585  0.2874  0.2006
12702TIP3    H159521   2.720   6.652   2.756  0.2389  0.6415 -1.2340
12702TIP3    H259522   2.859   6.615   2.803 -0.5894 -0.3886  0.4636
12703TIP3   OH259523   1.988   4.297  15.107  0.2952  0.4815  0.3430
12703TIP3    H159524   1.939   4.288  15.025  2.8843 -0.3450 -1.2550
12703TIP3    H259525   2.047   4.372  15.091  0.4919  0.6250  1.6506
12704TIP3   OH259526   2.483   5.385  14.989 -0.1294 -0.2634  0.2988
12704TIP3    H159527   2.422   5.373  14.917  0.5122  1.8708 -0.6722
12704TIP3    H259528   2.429   5.417  15.061 -0.5157 -0.8077  0.2564
12705TIP3   OH259529   0.637   0.026   0.709  0.6509 -0.3414 -0.3888
12705TIP3    H159530   0.575   0.081   0.757 -1.5702 -1.4838 -1.7814
12705TIP3    H259531   0.721   0.070   0.720 -0.3284  1.1678  1.7790
12706TIP3   OH259532   2.545   0.150   0.512 -0.4534  0.4118  0.0297
12706TIP3    H159533   2.599   0.094   0.457 -1.6033 -0.1606 -0.5588
12706TIP3    H259534   2.586   0.146   0.598  0.7520  0.4503 -0.5266
12707TIP3   OH259535   5.843   0.023  13.839  0.2910 -0.1256 -0.4250
12707TIP3    H159536   5.909   0.087  13.811 -1.0267  0.8930 -1.3427
12707TIP3    H259537   5.797   0.000  13.758 -0.1511 -1.2247  0.1159
12708TIP3   OH259538   1.699   3.740  12.780  0.3862 -0.1620 -0.4100
12708TIP3    H159539   1.661   3.806  12.838  1.5163  0.7519 -0.6553
12708TIP3    H259540   1.661   3.760  12.694 -0.5799 -0.9344 -0.1813
12709TIP3   OH259541   0.081   0.700  16.367  0.0693  0.1622 -0.3449
12709TIP3    H159542   0.037   0.669  16.288  0.0972 -0.4449 -0.1344
12709TIP3    H259543   0.161   0.647  16.371 -1.1326 -1.6797  1.4429
12710TIP3   OH259544   3.907   2.818   0.108 -0.4288  0.5372  0.5126
12710TIP3    H159545   3.821   2.825   0.149 -0.5439  2.6987  0.0172
12710TIP3    H259546   3.968   2.825   0.182 -0.6551  3.4279  0.5464
12711TIP3   OH259547   6.555   2.167   6.658 -0.1250 -0.1396  0.4520
12711TIP3    H159548   6.586   2.079   6.681  0.5435  0.1071  0.5298
12711TIP3    H259549   6.477   2.153   6.605 -0.1287 -0.7767  0.6250
12712TIP3   OH259550   4.869   1.634  12.966  0.2032 -1.1340  0.1493
12712TIP3    H159551   4.950   1.593  12.996  0.3698  0.5604  2.2600
12712TIP3    H259552   4.802   1.603  13.028  0.3162  1.4786  1.7612
12713TIP3   OH259553   0.490   0.408  15.824 -0.2530  0.1122 -0.2726
12713TIP3    H159554   0.495   0.312  15.816 -3.0862 -0.4630  2.9565
12713TIP3    H259555   0.582   0.435  15.831  0.5911 -2.5475  0.3530
12714TIP3   OH259556   5.211   4.746  15.217 -0.5186 -0.2893  0.0002
12714TIP3    H159557   5.261   4.703  15.148 -0.1677 -0.2141  0.2067
12714TIP3    H259558   5.250   4.716  15.298 -0.4132  0.2434  0.1524
12715TIP3   OH259559   5.072   4.040   1.319  0.4658  0.6686  0.0733
12715TIP3    H159560   5.026   3.957   1.305  1.3210 -0.0847  1.4675
12715TIP3    H259561   5.145   4.037   1.257  1.0059 -0.0632  0.7134
12716TIP3   OH259562   2.603   5.878   4.843  0.3656  0.2540  0.0087
12716TIP3    H159563   2.550   5.954   4.820  1.3718  0.5990 -1.2853
12716TIP3    H259564   2.541   5.806   4.850 -0.5409  1.0986  0.7841
12717TIP3   OH259565   0.475   2.746   6.498 -0.4464  0.0297 -0.6379
12717TIP3    H159566   0.419   2.795   6.559  2.7977  1.7264  1.2546
12717TIP3    H259567   0.504   2.670   6.549 -0.6834 -0.6364 -1.4729
12718TIP3   OH259568   5.347   0.906   6.124 -0.0479 -0.4937 -0.4964
12718TIP3    H159569   5.317   0.996   6.127  1.5937  0.0789  1.9253
12718TIP3    H259570   5.307   0.864   6.200  0.1317 -1.4894 -0.9258
12719TIP3   OH259571   4.084   3.280   3.503 -0.0855 -0.0797  0.1303
12719TIP3    H159572   4.164   3.270   3.554 -1.2216 -1.1253  1.8212
12719TIP3    H259573   4.089   3.369   3.466  1.1001  0.4586  1.5082
12720TIP3   OH259574   3.531   4.969  15.885 -0.1586 -0.2444 -1.2247
12720TIP3    H159575   3.604   4.922  15.845  0.2227  1.3764 -2.5484
12720TIP3    H259576   3.465   4.902  15.902  1.3432 -1.6487 -0.6187
12721TIP3   OH259577   4.005   0.375   2.744  0.9003 -0.3504 -0.3621
12721TIP3    H159578   4.095   0.352   2.767  0.0322 -2.3664  1.4077
12721TIP3    H259579   3.988   0.327   2.663  1.4382  0.0912 -0.7363
12722TIP3   OH259580   5.515   6.095  11.942 -0.1178  0.2755 -0.0069
12722TIP3    H159581   5.525   6.012  11.894 -1.6805  0.1079 -0.0785
12722TIP3    H259582   5.604   6.117  11.969  0.4451 -0.9861 -0.7206
12723TIP3   OH259583   1.414   0.725   1.304 -1.2434 -0.0057  0.1214
12723TIP3    H159584   1.348   0.660   1.329 -0.7717 -2.1333 -3.3803
12723TIP3    H259585   1.370   0.780   1.238  0.0952 -0.8975 -1.6121
12724TIP3   OH259586   5.802   1.639  11.213  0.3028  0.0918 -0.1508
12724TIP3    H159587   5.877   1.591  11.250 -0.0523  0.3402  0.9044
12724TIP3    H259588   5.801   1.612  11.121 -0.2597 -2.4428  0.5188
12725TIP3   OH259589   2.643   6.230   6.173  0.0947 -0.2934  0.4300
12725TIP3    H159590   2.704   6.301   6.153  0.4487 -0.4646  0.8851
12725TIP3    H259591   2.570   6.273   6.218 -0.7341  0.1055 -1.2050
12726TIP3   OH259592   0.067   3.058  12.637  0.0473  0.6398  0.0758
12726TIP3    H159593   0.114   3.115  12.698 -0.9349  2.1331 -0.5094
12726TIP3    H259594   0.108   3.076  12.552 -1.7492  2.3116 -0.5339
12727TIP3   OH259595   4.385   5.951   6.539 -0.0602  0.3053 -0.0994
12727TIP3    H159596   4.387   5.932   6.633 -1.0564  0.9661  0.0729
12727TIP3    H259597   4.460   6.007   6.524  2.8287 -3.2695 -0.5648
12728TIP3   OH259598   6.186   0.141  13.040 -0.1306  0.0763 -0.6724
12728TIP3    H159599   6.137   0.088  13.103  1.1705 -0.2372  0.1376
12728TIP3    H259600   6.126   0.211  13.015 -0.8335 -0.0150  0.6357
12729TIP3   OH259601   6.367   3.281   0.099 -0.1718 -0.0821 -0.2863
12729TIP3    H159602   6.372   3.287   0.003  1.8974  2.2623 -0.1071
12729TIP3    H259603   6.294   3.339   0.122 -0.7472 -0.7377 -0.4140
12730TIP3   OH259604   3.159   3.773   1.917 -0.0749  0.0491  0.4403
12730TIP3    H159605   3.187   3.696   1.869  0.2928  0.5343 -0.1377
12730TIP3    H259606   3.079   3.745   1.963  1.0890 -1.2163  1.7840
12731TIP3   OH259607   4.235   6.215   3.540 -0.3410  0.1390  0.5096
12731TIP3    H159608   4.304   6.232   3.605  0.6412  0.0550 -0.4863
12731TIP3    H259609   4.170   6.284   3.556  0.5680  0.9815  0.6506
12732TIP3   OH259610   5.386   1.671  17.311  0.8381  0.2497  0.0500
12732TIP3    H159611   5.357   1.580  17.300  0.0865  0.4389  0.3803
12732TIP3    H259612   5.432   1.671  17.394 -0.4348  0.4540  0.7864
12733TIP3   OH259613   6.625   5.715  15.359  0.9960  0.3445  0.1318
12733TIP3    H159614   6.670   5.793  15.328 -1.7667  1.0154 -2.7725
12733TIP3    H259615   6.685   5.643  15.342  1.9654  1.4174 -1.1328
12734TIP3   OH259616   6.354   2.086  12.788  0.0770  0.0279  0.0909
12734TIP3    H159617   6.432   2.131  12.819  0.8855 -1.4137  0.1830
12734TIP3    H259618   6.282   2.126  12.838  1.1865 -1.3366  2.9429
12735TIP3   OH259619   5.678   3.949   3.387 -0.0724 -0.4449  0.4233
12735TIP3    H159620   5.731   3.998   3.324  0.2843 -1.3074  0.0376
12735TIP3    H259621   5.653   4.014   3.453  0.7133  0.1642  0.1367
12736TIP3   OH259622   6.088   5.861   0.735 -0.3861  0.5407  0.0776
12736TIP3    H159623   6.155   5.810   0.690 -1.1361  0.9453 -1.5578
12736TIP3    H259624   6.109   5.851   0.828  0.0870 -1.9097 -0.2330
12737TIP3   OH259625   0.763   5.128  13.893 -0.3001  0.0397  0.5170
12737TIP3    H159626   0.713   5.180  13.829 -0.5182 -0.6298  0.1411
12737TIP3    H259627   0.731   5.039  13.882  0.5869 -0.3020  0.6614
12738TIP3   OH259628   0.359   0.878  16.827 -0.5443  0.2543  0.3345
12738TIP3    H159629   0.363   0.839  16.740 -0.5878  1.9790 -0.4702
12738TIP3    H259630   0.431   0.940  16.829  0.8791 -1.3331  2.3814
12739TIP3   OH259631   2.235   5.422  12.907 -0.0484 -0.2563 -0.3976
12739TIP3    H159632   2.263   5.506  12.872  0.5345 -0.3054 -0.0698
12739TIP3    H259633   2.201   5.442  12.993 -2.6512  0.0417 -1.4190
12740TIP3   OH259634   2.554   0.911  12.629  0.0421  0.2159 -0.2703
12740TIP3    H159635   2.640   0.916  12.671 -0.8032  2.9692  1.3852
12740TIP3    H259636   2.571   0.934  12.537  1.1561  0.0636 -0.1200
12741TIP3   OH259637   6.610   2.560   2.564 -0.6864  0.3571  0.0572
12741TIP3    H159638   6.659   2.571   2.483  2.5952 -0.5534  1.7044
12741TIP3    H259639   6.612   2.647   2.605 -0.9924  0.4611 -0.1476
12742TIP3   OH259640   0.336   1.536   2.463 -0.3378 -0.2170 -0.1434
12742TIP3    H159641   0.264   1.596   2.446  0.0943  0.4023  0.1764
12742TIP3    H259642   0.317   1.459   2.409 -1.0925  0.0489 -0.2652
12743TIP3   OH259643   5.871   2.182   6.794 -0.4361  0.1517 -0.3423
12743TIP3    H159644   5.952   2.229   6.771  0.2307 -1.2334 -0.9329
12743TIP3    H259645   5.834   2.232   6.866  0.5628  1.2367 -0.5483
12744TIP3   OH259646   0.381   4.681   2.576 -0.1711  0.8329  0.2991
12744TIP3    H159647   0.399   4.724   2.493 -0.3529 -0.7850 -0.6165
12744TIP3    H259648   0.289   4.654   2.570 -0.0641  0.3069  0.8319
12745TIP3   OH259649   2.305   5.387  14.445  0.2812 -0.0178  0.4643
12745TIP3    H159650   2.270   5.342  14.522  1.0242 -2.2442 -0.4435
12745TIP3    H259651   2.392   5.349  14.432  0.9557  1.7209 -0.3665
12746TIP3   OH259652   5.093   1.153   6.731  0.0471 -0.0762  0.5624
12746TIP3    H159653   5.033   1.078   6.740 -0.4626  0.0903 -0.9880
12746TIP3    H259654   5.065   1.195   6.650  1.3164  0.9120  0.6095
12747TIP3   OH259655   3.084   5.715  16.390 -0.1038 -0.3019 -0.1659
12747TIP3    H159656   3.162   5.711  16.335  0.7858  2.7513  0.6373
12747TIP3    H259657   3.107   5.664  16.468  0.0096 -1.6308 -1.0374
12748TIP3   OH259658   6.611   2.947  15.143  0.2671 -0.1640  0.3657
12748TIP3    H159659   6.621   2.855  15.164  0.8764  0.1291  1.4343
12748TIP3    H259660   6.656   2.958  15.059  1.8119 -0.5001  1.1124
12749TIP3   OH259661   3.063   6.570  16.126  0.0205  0.8543  0.1249
12749TIP3    H159662   3.058   6.534  16.215  1.7508 -0.3150 -0.1973
12749TIP3    H259663   3.042   6.663  16.137 -0.2739  0.6354  1.6756
12750TIP3   OH259664   0.875   6.530   6.718  0.7079  0.0568  0.0488
12750TIP3    H159665   0.827   6.448   6.731  0.5880 -0.2624 -2.0684
12750TIP3    H259666   0.810   6.591   6.684  1.5979 -0.2438 -2.3931
12751TIP3   OH259667   1.013   5.747   3.084 -0.1927  0.0028 -0.0362
12751TIP3    H159668   0.971   5.696   3.015  0.3816 -1.5212  0.7141
12751TIP3    H259669   0.940   5.782   3.136 -0.6265  1.0995 -1.3221
12752TIP3   OH259670   4.507   6.621  14.687 -0.7638  0.1362 -0.3534
12752TIP3    H159671   4.421   6.603  14.649 -2.0384 -0.0480  2.3880
12752TIP3    H259672   4.499   6.708  14.726 -0.1569 -0.3740  0.9909
12753TIP3   OH259673   2.913   4.646   5.381  0.1995 -0.2458  0.4147
12753TIP3    H159674   2.970   4.721   5.399 -1.4891  0.8257  1.6159
12753TIP3    H259675   2.941   4.578   5.442 -0.5315  0.6942  1.8518
12754TIP3   OH259676   3.441   2.687  14.919  0.1267 -0.0727 -0.0035
12754TIP3    H159677   3.460   2.774  14.954 -0.2892 -0.1704  0.4677
12754TIP3    H259678   3.488   2.626  14.976 -0.7590 -0.2478  0.5574
12755TIP3   OH259679   2.404   0.139  14.789 -0.2711  0.3995  0.2084
12755TIP3    H159680   2.437   0.138  14.879 -0.3898  0.2174  0.2521
12755TIP3    H259681   2.415   0.049  14.758 -1.5758  0.1000  0.5417
12756TIP3   OH259682   3.992   3.855  17.034  0.4761 -0.1735 -0.4324
12756TIP3    H159683   3.976   3.761  17.038  0.6216 -0.1698  0.4235
12756TIP3    H259684   4.009   3.880  17.124  0.3849  0.6874 -0.6467
12757TIP3   OH259685   3.857   6.575  14.728 -0.4855 -0.2989  0.4305
12757TIP3    H159686   3.912   6.522  14.786  1.3676  0.1966 -0.7784
12757TIP3    H259687   3.811   6.511  14.674 -0.4570 -0.7142  0.8899
12758TIP3   OH259688   2.111   5.576   2.558 -0.5679  0.2356  0.3658
12758TIP3    H159689   2.184   5.537   2.605 -1.1058 -3.0332 -1.2288
12758TIP3    H259690   2.033   5.535   2.597 -1.1705 -0.3768 -1.3813
12759TIP3   OH259691   1.082   1.406  12.829  0.0559 -0.1146  0.1380
12759TIP3    H159692   1.173   1.392  12.806  0.0919  2.4318 -1.6839
12759TIP3    H259693   1.072   1.366  12.915  3.2603  0.7468  1.0346
12760TIP3   OH259694   6.366   4.576  15.247 -0.0300  0.2435 -0.3980
12760TIP3    H159695   6.301   4.646  15.237  0.8068  0.8707 -1.7438
12760TIP3    H259696   6.403   4.590  15.334 -1.8660 -0.3047  0.5259
12761TIP3   OH259697   4.292   0.688   3.013  0.0571  0.0480  0.2176
12761TIP3    H159698   4.316   0.607   3.058  0.9044 -1.1125 -2.1135
12761TIP3    H259699   4.331   0.678   2.926  1.0170  3.4048  0.1439
12762TIP3   OH259700   5.735   0.730  17.220  0.3555  0.2897  0.5171
12762TIP3    H159701   5.802   0.712  17.154  1.0497  0.3378  1.1924
12762TIP3    H259702   5.773   0.698  17.302  0.0406  1.3558  1.1072
12763TIP3   OH259703   3.294   0.387   4.112  0.3971  0.6489 -0.0979
12763TIP3    H159704   3.293   0.365   4.205  2.3811  0.5826 -0.0358
12763TIP3    H259705   3.280   0.482   4.111 -0.6722  0.5061  0.1765
12764TIP3   OH259706   1.440   1.369   3.250 -0.0491 -0.5936  0.1452
12764TIP3    H159707   1.488   1.442   3.288 -0.4044 -0.2273 -0.0963
12764TIP3    H259708   1.424   1.395   3.159  0.7338 -1.4255 -0.2460
12765TIP3   OH259709   3.845   1.764  12.677 -0.3204 -0.7781  0.3775
12765TIP3    H159710   3.828   1.732  12.765 -1.9063 -1.8356 -0.2718
12765TIP3    H259711   3.768   1.739  12.627  0.3359  0.2203 -1.2164
12766TIP3   OH259712   0.420   3.315   4.836 -0.4602  0.0640 -0.1684
12766TIP3    H159713   0.458   3.229   4.820  0.7771  0.5823 -0.1601
12766TIP3    H259714   0.385   3.311   4.924  1.9350  0.3311  0.8735
12767TIP3   OH259715   4.718   6.448  15.109  0.3892  0.2547  0.7633
12767TIP3    H159716   4.764   6.377  15.064 -0.1765  0.0504  0.4982
12767TIP3    H259717   4.696   6.410  15.194 -1.2218 -0.4204  0.0797
12768TIP3   OH259718   4.004   6.008   1.035  0.3006  0.1383 -0.4087
12768TIP3    H159719   3.947   5.953   1.087 -0.2698  0.6635 -0.4628
12768TIP3    H259720   4.010   5.964   0.950  0.4948 -0.2462 -0.1956
12769TIP3   OH259721   1.340   3.239   1.842 -1.0232  0.8812 -0.0248
12769TIP3    H159722   1.325   3.245   1.748 -1.4089  1.0234  0.0441
12769TIP3    H259723   1.310   3.323   1.877  1.2953  1.7910 -0.0407
12770TIP3   OH259724   1.621   5.232   5.186  0.0226 -0.2307 -0.2678
12770TIP3    H159725   1.526   5.225   5.185 -0.1854  2.0601 -0.5511
12770TIP3    H259726   1.642   5.279   5.266  1.1023 -2.1520  0.6578
12771TIP3   OH259727   4.884   3.618  16.491  0.1152  0.0933  0.2048
12771TIP3    H159728   4.860   3.668  16.413  1.4848 -0.3792 -0.5562
12771TIP3    H259729   4.890   3.683  16.561 -0.6452  0.5955 -0.1855
12772TIP3   OH259730   5.770   6.599  11.590  0.4574 -0.1270  0.0782
12772TIP3    H159731   5.808   6.566  11.509 -1.9854  2.2390 -2.2229
12772TIP3    H259732   5.821   6.678  11.611 -1.3011  1.5498 -1.5441
12773TIP3   OH259733   5.825   4.592  12.005  0.4787  0.4706 -0.2203
12773TIP3    H159734   5.822   4.568  11.913 -2.5592 -5.3014  0.9290
12773TIP3    H259735   5.917   4.582  12.030  0.9196 -0.5403 -2.1074
12774TIP3   OH259736   6.339   2.681   4.934  0.3175  0.0078  0.0379
12774TIP3    H159737   6.286   2.610   4.969 -1.5129  1.1102 -0.3704
12774TIP3    H259738   6.286   2.760   4.947  0.8068  0.8618 -2.4915
12775TIP3   OH259739   4.859   0.323  14.711  0.0925  0.6486 -0.3244
12775TIP3    H159740   4.815   0.289  14.633  1.7406 -1.6754 -0.3326
12775TIP3    H259741   4.929   0.379  14.676 -1.1498  2.2439 -0.3685
12776TIP3   OH259742   4.493   2.946   3.839  0.4513 -0.5980 -0.1106
12776TIP3    H159743   4.428   2.979   3.901  1.7720  0.8407  0.5713
12776TIP3    H259744   4.442   2.925   3.761 -0.7829  1.1506  0.1586
12777TIP3   OH259745   0.303   0.993   4.226 -0.4109 -0.3556 -0.0294
12777TIP3    H159746   0.293   0.927   4.294 -0.5208  0.9190  1.2463
12777TIP3    H259747   0.236   1.058   4.246 -0.1269  0.2861 -1.0865
12778TIP3   OH259748   4.230   3.479   2.218 -0.0662 -1.2695  0.5541
12778TIP3    H159749   4.147   3.527   2.224 -0.2262 -0.6938 -3.4444
12778TIP3    H259750   4.204   3.390   2.192  0.4823 -0.8384 -1.6734
12779TIP3   OH259751   4.719   3.284  16.494 -0.1581  0.2950  0.1699
12779TIP3    H159752   4.745   3.349  16.428  0.4515  0.5079  0.6049
12779TIP3    H259753   4.800   3.235  16.511  0.2460  1.5647  2.2240
12780TIP3   OH259754   5.011   4.075  13.089  0.0111 -0.4816 -0.0606
12780TIP3    H159755   4.929   4.073  13.040 -0.1917 -2.4905  0.2671
12780TIP3    H259756   5.039   4.166  13.087 -1.1205 -0.1436 -2.0144
12781TIP3   OH259757   0.785   6.710  16.284  0.0498  0.1065 -0.2150
12781TIP3    H159758   0.851   6.642  16.293  0.2992 -0.1916 -3.2671
12781TIP3    H259759   0.705   6.671  16.318  0.8279 -0.5826  0.8558
12782TIP3   OH259760   4.401   1.365  12.229  0.4988  0.9496 -0.4119
12782TIP3    H159761   4.351   1.344  12.150 -1.5100  1.3607  0.6752
12782TIP3    H259762   4.438   1.451  12.212 -1.6531  1.9919 -0.1890
12783TIP3   OH259763   6.026   1.021  14.549  0.0127 -0.5631 -0.6274
12783TIP3    H159764   5.943   0.990  14.586 -0.3502  2.0820  1.0212
12783TIP3    H259765   6.009   1.111  14.523  2.6387  0.4624  0.8233
12784TIP3   OH259766   1.692   5.232   5.649 -0.3263 -1.0165  0.1777
12784TIP3    H159767   1.768   5.230   5.706 -0.8039 -0.7731  0.8369
12784TIP3    H259768   1.639   5.157   5.676 -0.3465 -1.1588 -0.2470
12785TIP3   OH259769   6.392   6.604  17.276  0.1677  0.3902 -0.6255
12785TIP3    H159770   6.358   6.558  17.199 -0.9151 -0.3252  0.2492
12785TIP3    H259771   6.431   6.684  17.241 -0.4978  0.1843 -1.8917
12786TIP3   OH259772   2.150   2.673   1.824  0.3505  0.7857 -0.0550
12786TIP3    H159773   2.190   2.655   1.909 -0.8626  0.7222  0.5273
12786TIP3    H259774   2.167   2.766   1.809 -0.3645  1.0640  0.7870
12787TIP3   OH259775   0.240   2.631   0.466  0.1556 -0.0484  0.1410
12787TIP3    H159776   0.313   2.569   0.470 -1.1847 -1.9309 -1.9864
12787TIP3    H259777   0.175   2.587   0.411 -1.2710  2.8910 -0.7147
12788TIP3   OH259778   0.952   1.843  14.128  0.1004  0.5913 -0.0135
12788TIP3    H159779   1.001   1.869  14.207 -0.1261  0.0937  0.3012
12788TIP3    H259780   0.860   1.847  14.154  0.0117  0.7178 -0.3477
12789TIP3   OH259781   3.738   0.123   3.299  0.0565  0.5972  0.5694
12789TIP3    H159782   3.654   0.095   3.263  1.2489 -1.2932 -0.9518
12789TIP3    H259783   3.789   0.042   3.308  0.6952  1.2340  4.4677
12790TIP3   OH259784   3.564   2.100  14.637  1.0119 -0.1796  0.0921
12790TIP3    H159785   3.552   2.185  14.680  0.0287  0.2278 -0.9535
12790TIP3    H259786   3.656   2.101  14.609  0.5522  1.3852 -1.5978
12791TIP3   OH259787   5.140   4.147  16.906 -0.1930  0.0137  0.0531
12791TIP3    H159788   5.118   4.072  16.962 -1.2341  1.1610  1.2478
12791TIP3    H259789   5.191   4.109  16.834 -0.6544 -1.8293  0.6374
12792TIP3   OH259790   3.655   2.450   1.126  0.4641 -0.6560 -0.1662
12792TIP3    H159791   3.687   2.540   1.128  1.6283 -1.0539 -0.0787
12792TIP3    H259792   3.585   2.451   1.061 -0.7896  0.6942  1.0991
12793TIP3   OH259793   4.361   6.703  14.985  0.6956  0.5029  0.2012
12793TIP3    H159794   4.325   6.758  14.915 -1.4790 -0.4345  0.5137
12793TIP3    H259795   4.355   6.614  14.951  2.0594  0.2279  0.6011
12794TIP3   OH259796   3.836   4.285  14.628  0.0694  0.3835 -0.1118
12794TIP3    H159797   3.825   4.207  14.683 -0.1814  1.0836  0.8501
12794TIP3    H259798   3.892   4.255  14.556  2.1500 -0.0708  1.5849
12795TIP3   OH259799   6.413   6.140   4.315 -0.2203 -0.2354  0.7181
12795TIP3    H159800   6.481   6.207   4.316 -0.9108  0.5423 -1.0053
12795TIP3    H259801   6.346   6.174   4.257 -1.0265 -2.0187  0.5267
12796TIP3   OH259802   6.067   3.548   0.759 -0.2632 -0.1813  0.4288
12796TIP3    H159803   6.114   3.481   0.708 -1.3794 -0.7353  0.1042
12796TIP3    H259804   6.034   3.608   0.693 -1.2849 -0.6237  0.5213
12797TIP3   OH259805   5.904   3.845   3.560 -0.6400 -0.3286 -0.0645
12797TIP3    H159806   5.828   3.866   3.614  0.4638  3.4143  0.3550
12797TIP3    H259807   5.906   3.914   3.493  0.6643 -2.1518 -2.0589
12798TIP3   OH259808   5.679   0.171   2.641  0.3884 -0.4519 -0.0260
12798TIP3    H159809   5.659   0.108   2.571  1.1609 -0.4786 -0.2291
12798TIP3    H259810   5.600   0.225   2.648  0.0166 -0.9382 -0.3910
12799TIP3   OH259811   6.131   3.999   5.700  0.1787 -0.8038  0.1122
12799TIP3    H159812   6.107   3.912   5.731 -0.3955 -1.1269 -1.1883
12799TIP3    H259813   6.099   4.059   5.768  0.1307 -1.5610  0.7672
12800TIP3   OH259814   1.546   5.498   3.230  0.3183  0.4840 -0.0704
12800TIP3    H159815   1.480   5.549   3.277 -0.3450 -0.7522  0.3720
12800TIP3    H259816   1.580   5.558   3.164 -0.5034  1.4689  0.3801
12801TIP3   OH259817   3.957   5.055  16.560 -0.0940 -1.2798  0.0973
12801TIP3    H159818   3.874   5.100  16.547  0.0047 -1.3081 -0.6789
12801TIP3    H259819   4.003   5.065  16.477  0.5871 -1.4567  0.4443
12802TIP3   OH259820   0.351   1.521  13.776 -0.9667  0.5498  0.4606
12802TIP3    H159821   0.268   1.529  13.730  0.1484  0.8698 -1.5945
12802TIP3    H259822   0.357   1.429  13.799 -1.7119  0.4541  0.2911
12803TIP3   OH259823   5.674   6.058  14.616 -0.6765 -0.0621 -0.1155
12803TIP3    H159824   5.662   6.153  14.625 -1.4821 -0.2335  0.8972
12803TIP3    H259825   5.588   6.022  14.635 -0.8957 -0.9254 -2.4739
12804TIP3   OH259826   5.721   2.715   5.363  0.4350  0.3667 -0.1207
12804TIP3    H159827   5.710   2.734   5.456  0.8626 -0.6080  0.1427
12804TIP3    H259828   5.635   2.732   5.325  0.3294  1.0476  0.3975
12805TIP3   OH259829   5.534   1.779   5.693  0.0455  0.0590  0.7445
12805TIP3    H159830   5.455   1.759   5.642  1.4797  0.8336 -2.0322
12805TIP3    H259831   5.544   1.874   5.684  1.6248 -0.1050  0.4451
12806TIP3   OH259832   0.854   4.766   1.930  0.0576  0.0042 -0.3872
12806TIP3    H159833   0.786   4.721   1.880 -1.8884  2.2400  0.1376
12806TIP3    H259834   0.890   4.831   1.869  0.3439  0.1830 -0.0322
12807TIP3   OH259835   0.524   1.167  12.224 -0.2685 -0.4870  0.1878
12807TIP3    H159836   0.611   1.160  12.264 -0.4778 -1.5868  0.4854
12807TIP3    H259837   0.535   1.132  12.136 -0.2440  0.0983 -0.0444
12808TIP3   OH259838   3.475   5.267   2.199 -0.3717 -0.7081  0.4732
12808TIP3    H159839   3.449   5.320   2.124  0.6006  0.7640  1.1390
12808TIP3    H259840   3.519   5.328   2.258  1.0869 -2.3142  1.1346
12809TIP3   OH259841   3.156   0.528   3.530  0.4496 -0.0384 -0.1751
12809TIP3    H159842   3.207   0.508   3.609  2.2063 -0.4496 -1.3594
12809TIP3    H259843   3.140   0.622   3.535  0.8192 -0.0073  0.5232
12810TIP3   OH259844   3.638   3.445  15.221 -0.0326 -0.4709  0.6655
12810TIP3    H159845   3.633   3.540  15.228  0.6874 -0.2348 -1.3526
12810TIP3    H259846   3.572   3.421  15.156  0.9365 -1.1248 -0.1253
12811TIP3   OH259847   0.232   3.635  16.248 -0.0514  0.9432  0.3881
12811TIP3    H159848   0.188   3.560  16.289  1.1242 -0.4131 -0.7197
12811TIP3    H259849   0.257   3.691  16.321  2.5508 -1.7082  1.7319
12812TIP3   OH259850   3.154   2.855  17.343 -0.2206  0.2765  0.8129
12812TIP3    H159851   3.076   2.810  17.376  1.0841 -1.2801  1.9772
12812TIP3    H259852   3.175   2.810  17.261 -0.3738  0.5118  0.6427
12813TIP3   OH259853   4.092   2.899   4.173  0.3794  0.8442  0.3401
12813TIP3    H159854   4.009   2.862   4.142  0.6824  0.6649 -0.2692
12813TIP3    H259855   4.156   2.829   4.161  1.4845  2.2384 -3.1394
12814TIP3   OH259856   2.617   5.788   5.424 -0.1965 -0.4803 -0.2718
12814TIP3    H159857   2.544   5.819   5.371 -0.4156  1.8917  1.2585
12814TIP3    H259858   2.682   5.857   5.419  0.2624 -0.7191  1.5376
12815TIP3   OH259859   0.663   0.184  15.663  0.4650 -0.3626  0.1590
12815TIP3    H159860   0.739   0.241  15.678  1.9494 -1.9966 -0.6836
12815TIP3    H259861   0.641   0.150  15.750  1.1771 -0.4352  0.3168
12816TIP3   OH259862   5.463   5.119   4.589 -0.8003  0.4412  0.1980
12816TIP3    H159863   5.400   5.053   4.559  1.1040 -0.8423 -1.2342
12816TIP3    H259864   5.458   5.189   4.524  0.0606 -0.2381 -0.6453
12817TIP3   OH259865   6.533   5.747  11.688 -0.3497  0.0004 -0.5159
12817TIP3    H159866   6.536   5.775  11.780  1.5278  1.0419 -0.8280
12817TIP3    H259867   6.482   5.667  11.689  0.7075 -0.7342  1.6658
12818TIP3   OH259868   2.000   2.013   6.180  0.0578 -0.8932  0.3109
12818TIP3    H159869   2.054   1.940   6.151  0.5388  0.6390 -3.0781
12818TIP3    H259870   2.061   2.075   6.219  0.2082 -0.7416 -0.1611
12819TIP3   OH259871   0.520   6.307   2.834 -0.1792  0.3672  0.0865
12819TIP3    H159872   0.470   6.357   2.897 -0.6335  0.5163 -0.3855
12819TIP3    H259873   0.586   6.260   2.886  0.3400  1.5436  0.5142
12820TIP3   OH259874   1.812   1.956  12.387 -0.3029  0.5095 -0.6770
12820TIP3    H159875   1.736   1.903  12.361 -1.0009  1.7944 -1.3694
12820TIP3    H259876   1.877   1.941  12.318 -0.1200 -0.1868 -0.3589
12821TIP3   OH259877   3.374   4.821  14.582 -0.2732  0.0945 -0.0878
12821TIP3    H159878   3.288   4.810  14.622  0.2725 -0.2519  1.0287
12821TIP3    H259879   3.424   4.745  14.611  0.8573  1.0356  0.4914
12822TIP3   OH259880   0.084   2.521  16.251  0.1943 -0.0679  0.0279
12822TIP3    H159881   0.129   2.597  16.214 -2.1088  0.6533 -1.4930
12822TIP3    H259882   0.076   2.460  16.179 -1.1553 -0.2053  0.2785
12823TIP3   OH259883   6.164   1.787  16.350  0.4888  0.1287  0.5759
12823TIP3    H159884   6.168   1.841  16.430  0.6092 -0.9931  1.3457
12823TIP3    H259885   6.254   1.787  16.317  1.1906 -1.9713  2.2317
12824TIP3   OH259886   1.999   3.893  13.480 -0.1629  0.4996  0.8190
12824TIP3    H159887   1.998   3.983  13.449 -1.9811 -0.1528 -1.3142
12824TIP3    H259888   2.082   3.857  13.447 -0.9002  0.5500 -1.2894
12825TIP3   OH259889   4.752   0.196  14.933  0.1444  0.0837 -0.3432
12825TIP3    H159890   4.808   0.259  14.888 -0.9213  0.8840 -0.6170
12825TIP3    H259891   4.801   0.114  14.933  2.4515  1.3443  1.7851
12826TIP3   OH259892   4.875   6.187  11.531  0.0692  0.5376 -0.5237
12826TIP3    H159893   4.843   6.237  11.456  0.0621  0.7724 -0.3658
12826TIP3    H259894   4.884   6.098  11.498 -1.1043  0.3851 -0.4694
12827TIP3   OH259895   4.718   4.030   3.691 -0.3099  0.0625  0.3111
12827TIP3    H159896   4.791   4.042   3.753 -0.3369  2.1160  0.0157
12827TIP3    H259897   4.754   4.055   3.606 -1.3070  0.9624  0.1334
12828TIP3   OH259898   2.440   5.208   4.198 -0.3194  0.0119 -0.0857
12828TIP3    H159899   2.468   5.159   4.276 -0.8280  0.6586  0.5258
12828TIP3    H259900   2.447   5.300   4.225 -0.9483  0.2296 -0.6503
12829TIP3   OH259901   4.905   1.021  12.401 -0.6894 -0.2973 -0.3054
12829TIP3    H159902   4.827   0.966  12.404 -1.0624  0.2766  1.5841
12829TIP3    H259903   4.978   0.959  12.408 -1.0691 -0.6562  0.5987
12830TIP3   OH259904   5.999   3.415   1.460 -0.4372 -0.2000  0.3814
12830TIP3    H159905   5.957   3.333   1.483  0.1614 -0.3308  1.0299
12830TIP3    H259906   5.960   3.439   1.376  2.4329 -3.3578 -2.1073
12831TIP3   OH259907   4.870   6.736  12.900 -0.3537 -0.7307  0.1484
12831TIP3    H159908   4.834   6.749  12.812 -0.4091  3.6261  0.6310
12831TIP3    H259909   4.938   6.669  12.888  1.1269  1.1681 -3.7629
12832TIP3   OH259910   4.715   6.300   3.373 -0.1358 -0.3101  0.1206
12832TIP3    H159911   4.712   6.383   3.420 -0.9753  1.3086 -2.5955
12832TIP3    H259912   4.628   6.262   3.385 -0.0199 -0.4007  0.6840
12833TIP3   OH259913   6.079   5.989   4.784  0.1416 -0.2120  0.1730
12833TIP3    H159914   6.014   5.919   4.792  0.4225 -0.3921  0.9561
12833TIP3    H259915   6.045   6.045   4.714  0.2928 -1.5225 -0.9903
12834TIP3   OH259916   2.099   4.120  13.376 -0.5009  0.2532  0.0371
12834TIP3    H159917   2.169   4.115  13.442 -0.1314  1.9896 -0.1778
12834TIP3    H259918   2.061   4.207  13.389  0.6778  1.3652 -3.0770
12835TIP3   OH259919   1.189   1.580  13.156  0.6629  0.1026 -0.1624
12835TIP3    H159920   1.281   1.560  13.173  0.6754 -0.0759 -0.4308
12835TIP3    H259921   1.165   1.644  13.223  0.8399 -0.2277  0.2137
12836TIP3   OH259922   1.065   5.193  16.834 -0.0149 -0.5451  0.1663
12836TIP3    H159923   1.003   5.229  16.771 -0.8090 -1.4317  0.4184
12836TIP3    H259924   1.050   5.098  16.830  0.9039 -0.7247  0.6785
12837TIP3   OH259925   6.138   3.566  13.578 -0.4171  0.3943  0.2014
12837TIP3    H159926   6.074   3.615  13.527 -0.6459  0.5350  0.6128
12837TIP3    H259927   6.087   3.497  13.621 -0.1901  0.1350  0.0625
12838TIP3   OH259928   6.686   0.074   1.105  0.2733  0.5266  0.8968
12838TIP3    H159929   6.769   0.088   1.150  1.0742  0.2455 -0.4209
12838TIP3    H259930   6.651  -0.007   1.143  1.8378 -0.7479 -0.1966
12839TIP3   OH259931   3.135   2.040  13.526 -0.4505 -0.2983 -0.0102
12839TIP3    H159932   3.165   2.113  13.471 -0.5079 -0.6703 -0.5458
12839TIP3    H259933   3.152   2.069  13.616  1.3220 -0.3897 -0.2626
12840TIP3   OH259934   4.759   5.013   5.632 -0.3390  0.2919  0.8576
12840TIP3    H159935   4.816   5.064   5.575 -0.5488 -0.9092 -0.4605
12840TIP3    H259936   4.781   5.043   5.721 -0.0221  2.2012  0.1811
12841TIP3   OH259937   5.535   1.177   5.776  0.0374  0.0196 -0.5371
12841TIP3    H159938   5.623   1.140   5.786  0.5560  0.1248 -3.6308
12841TIP3    H259939   5.476   1.106   5.801  1.0134 -0.7626 -0.3655
12842TIP3   OH259940   5.107   2.583  10.825  0.3631  0.3658 -0.1691
12842TIP3    H159941   5.178   2.519  10.823 -0.0682 -0.1171 -0.1136
12842TIP3    H259942   5.030   2.534  10.798  0.4015  1.3347 -2.2353
12843TIP3   OH259943   6.579   3.979  13.497  0.2426  0.3097  0.2872
12843TIP3    H159944   6.539   4.060  13.466  1.4109  0.9640  0.4460
12843TIP3    H259945   6.508   3.914  13.494 -1.0305  1.5950  1.2820
12844TIP3   OH259946   0.550   2.637   2.330  0.1642 -1.3614  0.1019
12844TIP3    H159947   0.575   2.729   2.321  0.4525 -1.5177 -0.7839
12844TIP3    H259948   0.576   2.613   2.419  0.8430 -0.8185  0.0565
12845TIP3   OH259949   4.978   6.344  13.801  0.4896  0.3216  0.4230
12845TIP3    H159950   4.891   6.337  13.762  1.5908 -2.6224 -1.9653
12845TIP3    H259951   4.976   6.281  13.874  0.7604 -0.2740 -0.0696
12846TIP3   OH259952   2.277   5.989   1.863 -0.1356 -0.7888 -0.3511
12846TIP3    H159953   2.194   6.011   1.904 -0.9383 -2.1122 -1.1858
12846TIP3    H259954   2.271   5.895   1.845  1.2815 -0.7850 -1.0330
12847TIP3   OH259955   2.775   1.869  15.704 -0.2082  0.5114  0.1329
12847TIP3    H159956   2.736   1.783  15.686 -1.3269  1.0963 -0.3254
12847TIP3    H259957   2.837   1.882  15.632 -0.3744  0.2859 -0.0556
12848TIP3   OH259958   3.907   0.170  14.385  0.2799  0.4765  0.6065
12848TIP3    H159959   3.878   0.161  14.294 -0.1945  0.2235  0.7863
12848TIP3    H259960   3.839   0.128  14.437  1.1929 -0.5636  0.9987
12849TIP3   OH259961   3.462   2.505  14.431  0.3864  0.1941  0.5393
12849TIP3    H159962   3.549   2.466  14.424 -0.2355 -1.0275 -0.8709
12849TIP3    H259963   3.402   2.431  14.426 -0.7673  1.0814  0.7763
12850TIP3   OH259964   2.177   2.867  13.046 -0.5951  0.2310 -0.0251
12850TIP3    H159965   2.139   2.881  12.959  1.2414 -0.0007 -0.9003
12850TIP3    H259966   2.156   2.948  13.094 -1.1387  0.6022 -0.8536
12851TIP3   OH259967   1.087   2.051  13.266 -0.0116 -0.4996  0.7141
12851TIP3    H159968   1.021   2.118  13.285 -2.2558 -2.5025  0.3862
12851TIP3    H259969   1.118   2.073  13.178  0.2182  0.8043  1.1022
12852TIP3   OH259970   6.677   4.657  11.044 -0.3957  0.1949  0.2135
12852TIP3    H159971   6.641   4.578  11.003 -2.1857  0.2641  1.5159
12852TIP3    H259972   6.761   4.630  11.079  0.0612 -0.5027 -1.3146
12853TIP3   OH259973   0.869   4.033  14.478  0.5355  0.3159  0.0078
12853TIP3    H159974   0.819   4.006  14.555  0.1959 -0.4065 -0.4612
12853TIP3    H259975   0.888   3.952  14.431  1.2949  0.6811 -0.3434
12854TIP3   OH259976   2.197   2.552   3.625  0.0831  0.8734 -0.0892
12854TIP3    H159977   2.103   2.537   3.615  0.1076 -0.6637  1.5257
12854TIP3    H259978   2.237   2.500   3.555 -0.2208  0.3498  0.1186
12855TIP3   OH259979   4.001   3.461   3.218  0.1833  0.7009 -0.5631
12855TIP3    H159980   4.070   3.527   3.211 -1.0371  1.9461 -1.7007
12855TIP3    H259981   3.951   3.471   3.137 -0.4194 -1.2346 -0.4753
12856TIP3   OH259982   1.873   0.075  16.460  0.0304 -0.1672  0.1373
12856TIP3    H159983   1.845  -0.013  16.483  1.6897 -0.8797 -0.4238
12856TIP3    H259984   1.818   0.099  16.385 -0.7218 -0.5401  0.5624
12857TIP3   OH259985   4.780   1.961  16.788  0.1590  0.3458  0.0855
12857TIP3    H159986   4.708   2.012  16.823 -0.8379 -0.9546 -0.0012
12857TIP3    H259987   4.859   2.007  16.817 -0.6885  2.5112 -0.9115
12858TIP3   OH259988   5.259   3.261  15.203 -0.7270  0.1918  0.4202
12858TIP3    H159989   5.310   3.339  15.179  2.5510 -2.5553 -2.5990
12858TIP3    H259990   5.203   3.244  15.128 -2.0474  0.0057  1.4015
12859TIP3   OH259991   3.915   1.241  13.420 -0.1432  0.0994  0.2223
12859TIP3    H159992   3.846   1.183  13.453  0.8259 -1.9285 -1.1035
12859TIP3    H259993   3.934   1.209  13.332  1.0740  1.9241 -0.2419
12860TIP3   OH259994   0.272   0.010   0.693  0.0670 -0.0206 -0.1185
12860TIP3    H159995   0.181   0.020   0.663  0.0536  1.5468  0.3777
12860TIP3    H259996   0.324   0.052   0.625  0.3032  0.4466  0.3492
12861TIP3   OH259997   0.983   4.348   3.277 -0.0980 -0.0076 -0.3086
12861TIP3    H159998   1.072   4.320   3.257  0.1548  0.7450 -0.2582
12861TIP3    H259999   0.972   4.327   3.370 -0.7355 -2.0707 -0.7964
12862TIP3   OH260000   4.607   0.218   2.597 -0.4385 -0.1024  0.2615
12862TIP3    H160001   4.587   0.291   2.656  1.8960  1.5164 -0.7938
12862TIP3    H260002   4.602   0.257   2.510 -0.8907 -1.7109 -0.4662
12863TIP3   OH260003   3.766   4.369  13.100 -0.0778  0.6754 -0.5686
12863TIP3    H160004   3.854   4.346  13.130 -0.4926 -2.7363 -1.5083
12863TIP3    H260005   3.725   4.409  13.176  1.6619  0.4895  0.5316
12864TIP3   OH260006   5.443   0.411  12.269  0.4355  0.0837 -0.1309
12864TIP3    H160007   5.385   0.411  12.193 -0.4486 -1.7398  0.4871
12864TIP3    H260008   5.404   0.476  12.329 -0.3416 -0.3175 -0.1903
12865TIP3   OH260009   1.520   5.583  17.302 -0.1478 -0.5963  0.2357
12865TIP3    H160010   1.558   5.623  17.380 -1.5816 -0.2372  0.7705
12865TIP3    H260011   1.483   5.501  17.332  1.3506 -1.6205 -0.5552
12866TIP3   OH260012   6.613   1.356  11.317 -0.3522 -0.1949 -0.1793
12866TIP3    H160013   6.644   1.296  11.249  0.7896  0.7773 -0.5470
12866TIP3    H260014   6.596   1.438  11.271 -0.2523  0.2643  0.5863
12867TIP3   OH260015   5.638   0.025  14.586  0.1264  0.3267  0.0196
12867TIP3    H160016   5.697  -0.049  14.601 -0.6126  0.1048  2.1135
12867TIP3    H260017   5.598   0.042  14.671  0.6162  3.4664 -0.2549
12868TIP3   OH260018   4.838   4.349  13.027 -0.3856  0.4245 -0.5418
12868TIP3    H160019   4.835   4.377  13.119  0.0138  1.0005 -0.6961
12868TIP3    H260020   4.764   4.290  13.017 -1.6980  1.9872 -0.3912
12869TIP3   OH260021   4.786   0.739  12.780  0.0946  0.1829  0.1164
12869TIP3    H160022   4.794   0.831  12.756  0.0559  0.1094 -0.1763
12869TIP3    H260023   4.692   0.724  12.785  0.0629 -0.1843 -1.1776
12870TIP3   OH260024   0.446   2.792  16.272 -0.3053  0.2209 -0.8846
12870TIP3    H160025   0.459   2.847  16.350 -0.6594  0.1697 -0.7858
12870TIP3    H260026   0.437   2.703  16.307  0.0994  0.1187 -1.0331
12871TIP3   OH260027   0.449   0.028  15.200  0.0763  1.0383  0.5860
12871TIP3    H160028   0.463  -0.051  15.252  0.2733  0.9681  0.4295
12871TIP3    H260029   0.512   0.091  15.236  1.5721  0.3984 -0.7978
12872TIP3   OH260030   1.286   2.444  11.908  0.2913 -0.0447 -0.1017
12872TIP3    H160031   1.255   2.506  11.974  0.1559 -0.0167 -0.1931
12872TIP3    H260032   1.291   2.360  11.955  1.0312  0.1489  0.1788
12873TIP3   OH260033   4.264   4.037  16.869  0.1889  0.4452 -0.3209
12873TIP3    H160034   4.231   3.984  16.942 -1.3882  2.3939  0.4698
12873TIP3    H260035   4.212   4.009  16.794 -0.5448  0.7331  0.0632
12874TIP3   OH260036   5.143   2.495  15.019  0.8623  0.0435  0.5348
12874TIP3    H160037   5.148   2.563  15.087 -0.4983 -0.5095  1.2275
12874TIP3    H260038   5.226   2.502  14.973  1.9732  0.2347  2.4552
12875TIP3   OH260039   0.350   2.884   4.366  0.4302  0.3227 -0.0605
12875TIP3    H160040   0.387   2.832   4.295 -0.3003  0.1796 -0.3501
12875TIP3    H260041   0.354   2.975   4.335  0.4241  0.2930 -0.1477
12876TIP3   OH260042   2.714   5.527  14.543  0.4692 -0.5180  0.2200
12876TIP3    H160043   2.649   5.514  14.473  1.7676 -0.5795 -1.0280
12876TIP3    H260044   2.798   5.534  14.496  1.0911  2.1517  1.5579
12877TIP3   OH260045   1.048   0.187  15.030 -0.6400 -0.6302  0.0723
12877TIP3    H160046   0.959   0.180  14.994 -1.7989 -0.0463  2.5971
12877TIP3    H260047   1.051   0.122  15.100  1.5511 -1.7863 -1.0020
12878TIP3   OH260048   5.552   6.378  14.339 -0.5409  0.2446 -0.3914
12878TIP3    H160049   5.612   6.358  14.268  0.3085  0.4495  0.2567
12878TIP3    H260050   5.519   6.466  14.319 -0.4838  0.2086 -0.6461
12879TIP3   OH260051   5.655   2.827  16.104  0.1405 -0.1666 -0.0402
12879TIP3    H160052   5.729   2.881  16.132  0.3636 -0.8196  0.6752
12879TIP3    H260053   5.688   2.737  16.108 -0.2823 -0.3776 -1.0331
12880TIP3   OH260054   3.242   3.751  11.479  0.2772  0.5136 -0.1692
12880TIP3    H160055   3.225   3.666  11.519  0.0982  0.7001  0.1534
12880TIP3    H260056   3.248   3.812  11.552 -1.0181  1.0316 -0.4588
12881TIP3   OH260057   5.066   4.779   4.132  0.4524 -0.3729  0.0491
12881TIP3    H160058   4.983   4.825   4.124  0.9168  1.1096  2.5358
12881TIP3    H260059   5.042   4.696   4.175 -0.0043 -1.1577 -1.6377
12882TIP3   OH260060   6.319   2.812  14.400 -0.0085 -0.5880 -0.2238
12882TIP3    H160061   6.268   2.796  14.480 -0.0614  0.1938 -0.0962
12882TIP3    H260062   6.271   2.881  14.354  0.0133 -1.0429 -0.9493
12883TIP3   OH260063   3.921   2.339  15.595 -0.1144 -0.2242  0.6814
12883TIP3    H160064   3.991   2.312  15.536 -0.8793  0.4917 -0.5989
12883TIP3    H260065   3.884   2.257  15.628 -1.4606 -0.7819 -1.9976
12884TIP3   OH260066   6.699   1.627  16.817  0.0650  0.2519 -0.2850
12884TIP3    H160067   6.688   1.547  16.867  0.0122  0.4274 -0.0169
12884TIP3    H260068   6.655   1.610  16.733  1.3479 -0.5469 -0.8193
12885TIP3   OH260069   4.865   5.184  11.653  0.1831  0.2250  0.5908
12885TIP3    H160070   4.801   5.116  11.674  0.3154  0.7879  3.1849
12885TIP3    H260071   4.837   5.217  11.568 -0.0005 -2.8683 -0.6881
12886TIP3   OH260072   4.990   0.988   1.564 -0.3939 -0.2139  0.5690
12886TIP3    H160073   5.075   0.977   1.521 -0.0644 -1.2349  1.4370
12886TIP3    H260074   5.009   1.046   1.638 -0.5282 -0.1392  0.5447
12887TIP3   OH260075   5.694   0.770  12.606 -0.6375  0.1309 -0.2165
12887TIP3    H160076   5.755   0.813  12.547  0.2448 -1.5709 -0.6070
12887TIP3    H260077   5.615   0.756  12.554  0.1921 -1.5075 -1.1197
12888TIP3   OH260078   1.762   5.780   2.420 -0.1423 -0.2073 -0.0233
12888TIP3    H160079   1.722   5.865   2.403 -1.4978 -0.9011 -0.4820
12888TIP3    H260080   1.723   5.721   2.355  0.4128 -1.2813  0.5734
12889TIP3   OH260081   6.470   1.883  16.966 -0.0516  0.2226 -0.0363
12889TIP3    H160082   6.482   1.817  16.898  0.2395  0.7257 -0.4789
12889TIP3    H260083   6.422   1.954  16.923  0.4686  0.7111  0.1662
12890TIP3   OH260084   4.288   1.631  15.357  0.2261 -0.0937  0.5660
12890TIP3    H160085   4.375   1.654  15.324  0.4636 -0.3861  0.9757
12890TIP3    H260086   4.265   1.704  15.415 -0.3278  0.5764 -0.4701
12891TIP3   OH260087   1.162   3.716   2.814  0.3751 -0.0073 -0.8687
12891TIP3    H160088   1.103   3.676   2.751 -1.5845  0.3807  0.6235
12891TIP3    H260089   1.105   3.755   2.880  2.2733 -1.8399  2.0949
12892TIP3   OH260090   0.545   3.987   3.863 -0.5421  0.4775  0.0198
12892TIP3    H160091   0.464   3.989   3.813 -0.9356 -0.3459  0.6082
12892TIP3    H260092   0.530   4.050   3.934 -2.1064 -2.1325  2.2208
12893TIP3   OH260093   0.285   3.899   2.825 -0.1322 -0.1537  0.2336
12893TIP3    H160094   0.359   3.952   2.854  0.8938 -0.6834 -1.2924
12893TIP3    H260095   0.255   3.853   2.904  1.7288 -0.5994  0.7157
12894TIP3   OH260096   3.791   1.506  12.851 -0.6934 -0.2832 -0.6354
12894TIP3    H160097   3.788   1.418  12.813 -0.8433 -1.4470  1.8498
12894TIP3    H260098   3.712   1.511  12.906 -1.2994  1.8781 -1.5890
12895TIP3   OH260099   6.524   1.346  13.387  0.3616  0.9775  0.3643
12895TIP3    H160100   6.463   1.405  13.431 -1.3997 -0.4616 -0.0218
12895TIP3    H260101   6.542   1.388  13.303 -2.3182  0.2199 -0.6869
12896TIP3   OH260102   5.055   6.711  15.532  0.0936 -0.4955 -0.0181
12896TIP3    H160103   5.103   6.685  15.453  0.5121 -2.5848  0.8408
12896TIP3    H260104   4.971   6.665  15.524  0.5439 -1.6047  1.1913
12897TIP3   OH260105   1.001   4.631  14.031 -0.1746  0.4092  0.2337
12897TIP3    H160106   1.021   4.723  14.043 -0.3347  0.2229  2.2157
12897TIP3    H260107   0.905   4.625  14.040 -0.0367 -0.1159  1.4992
12898TIP3   OH260108   0.533   4.448  12.539  0.0568 -0.1049 -0.2819
12898TIP3    H160109   0.485   4.516  12.585 -0.9740 -1.6507  1.0034
12898TIP3    H260110   0.472   4.415  12.473 -0.1658 -1.1034  0.4067
12899TIP3   OH260111   1.735   3.938   4.788  0.1893  0.1514  0.2908
12899TIP3    H160112   1.718   3.851   4.752 -3.1771  1.3413 -1.4780
12899TIP3    H260113   1.690   3.938   4.873  0.1617  0.1815  0.2761
12900TIP3   OH260114   4.905   3.858  12.519  0.0420 -0.0471 -0.1657
12900TIP3    H160115   4.830   3.811  12.555  1.3009 -0.9729  1.3894
12900TIP3    H260116   4.908   3.940  12.568  0.6606 -0.4861  0.5456
12901TIP3   OH260117   4.469   6.366   6.028 -0.2858 -0.2302  0.5163
12901TIP3    H160118   4.521   6.306   6.081 -1.3048 -1.1370  0.5268
12901TIP3    H260119   4.378   6.340   6.043 -0.7368  1.0211  0.1523
12902TIP3   OH260120   4.050   2.165  14.237 -0.7791 -0.3229 -0.1054
12902TIP3    H160121   4.057   2.073  14.211 -1.1170 -0.3651 -0.0588
12902TIP3    H260122   3.983   2.201  14.178  1.2138  0.5853 -1.9604
12903TIP3   OH260123   0.941   0.524  11.155 -0.1392  0.3329 -0.0167
12903TIP3    H160124   0.955   0.432  11.178  1.2133  1.1147  2.8017
12903TIP3    H260125   1.022   0.567  11.182 -0.5576  2.3038 -1.7435
12904TIP3   OH260126   3.192   4.931  13.072  0.2874  0.2401  0.3247
12904TIP3    H160127   3.112   4.905  13.117  0.3317  1.1642  0.9606
12904TIP3    H260128   3.261   4.880  13.114  0.1889  0.3337  0.5981
12905TIP3   OH260129   2.346   6.534   1.034  0.3678 -0.0355 -0.5111
12905TIP3    H160130   2.374   6.626   1.043 -1.1790  0.2792  2.0535
12905TIP3    H260131   2.267   6.538   0.980 -2.3277  0.8663  3.1473
12906TIP3   OH260132   0.616   6.294  11.781 -0.6599  0.1276  0.2627
12906TIP3    H160133   0.624   6.379  11.738 -0.9778 -0.0699 -0.1961
12906TIP3    H260134   0.698   6.283  11.827 -1.1125  1.2704  1.4076
12907TIP3   OH260135   1.124   4.777   0.426 -0.1796 -0.4676  0.2714
12907TIP3    H160136   1.077   4.722   0.362 -0.3135  0.7399 -0.7092
12907TIP3    H260137   1.063   4.785   0.500 -1.4132  0.7483 -0.8163
12908TIP3   OH260138   4.497   4.368  14.294  0.7151  0.5980 -0.3663
12908TIP3    H160139   4.588   4.367  14.324  0.6619  1.1803 -0.1641
12908TIP3    H260140   4.495   4.305  14.222  0.6486 -1.4436  1.3492
12909TIP3   OH260141   6.014   1.164  11.607  0.0244  0.1674  0.2263
12909TIP3    H160142   5.981   1.148  11.519  0.5694 -1.3868  0.2700
12909TIP3    H260143   5.988   1.087  11.657  3.5590 -1.2322  0.2577
12910TIP3   OH260144   6.751   5.903  11.632  0.3725  0.1003  0.1649
12910TIP3    H160145   6.675   5.846  11.636  0.1037  0.4322 -0.1961
12910TIP3    H260146   6.823   5.850  11.667  0.1691 -0.5244 -0.3645
12911TIP3   OH260147   5.334   3.530   4.636  0.5996 -0.2378  0.7511
12911TIP3    H160148   5.287   3.614   4.635  1.0801  0.0360 -0.5360
12911TIP3    H260149   5.265   3.464   4.637  0.1660  0.1634 -0.5959
12912TIP3   OH260150   3.491   1.402   1.528  0.4364 -0.1102  0.1252
12912TIP3    H160151   3.583   1.395   1.555  0.0504 -0.3483  1.4308
12912TIP3    H260152   3.475   1.320   1.481  0.2956 -1.1213  1.8458
12913TIP3   OH260153   3.199   2.535   4.940 -0.2546 -0.0563  0.4130
12913TIP3    H160154   3.237   2.530   5.027 -0.6690 -1.6749  0.5269
12913TIP3    H260155   3.105   2.521   4.953 -0.3070 -0.4147 -0.2906
12914TIP3   OH260156   5.970   4.965  15.175  0.1338 -0.4643  0.0084
12914TIP3    H160157   6.034   4.999  15.113  0.8849 -2.7763 -0.6029
12914TIP3    H260158   5.928   5.043  15.212  2.4022  1.0961 -0.4899
12915TIP3   OH260159   0.745   4.175  14.704  0.1968  0.2244 -0.1285
12915TIP3    H160160   0.717   4.262  14.735 -1.3185 -0.2189 -0.1971
12915TIP3    H260161   0.837   4.187  14.683  0.2640  1.5859  0.7478
12916TIP3   OH260162   6.025   5.342  13.654 -0.4023  0.4221  0.2959
12916TIP3    H160163   5.969   5.266  13.666 -0.2056 -0.1078 -1.6904
12916TIP3    H260164   6.114   5.306  13.654 -0.3699  0.3472 -2.1588
12917TIP3   OH260165   4.886   3.554   3.281  0.2621  0.1669 -0.2223
12917TIP3    H160166   4.795   3.583   3.288  0.4231  0.9142 -1.0503
12917TIP3    H260167   4.899   3.537   3.188  0.9038 -0.1491 -0.0798
12918TIP3   OH260168   5.845   2.104   1.322  0.1030  0.0000 -0.5359
12918TIP3    H160169   5.875   2.183   1.368  0.0002  0.5422 -1.3887
12918TIP3    H260170   5.915   2.041   1.336 -0.2924 -0.1294  1.0697
12919TIP3   OH260171   6.179   5.885   0.315 -0.3126  0.5392  0.6414
12919TIP3    H160172   6.235   5.962   0.316  1.3859 -0.5617 -1.5190
12919TIP3    H260173   6.090   5.921   0.321  0.4098  2.6782 -0.3448
12920TIP3   OH260174   4.536   4.132   2.617 -0.0868  0.3430  0.5834
12920TIP3    H160175   4.465   4.135   2.554  1.7842  0.0831 -1.6792
12920TIP3    H260176   4.564   4.223   2.628  0.1950  0.2958  0.2791
12921TIP3   OH260177   3.067   0.240  13.660 -0.4404  0.2064  0.2743
12921TIP3    H160178   3.007   0.305  13.623  0.6076  1.2949  0.3943
12921TIP3    H260179   3.084   0.180  13.588 -0.0064  1.1389 -0.4333
12922TIP3   OH260180   2.827   6.696   6.074 -0.3101 -0.7799 -0.2408
12922TIP3    H160181   2.904   6.752   6.064 -0.0329 -1.0873  0.1708
12922TIP3    H260182   2.781   6.704   5.990 -0.0252 -0.3134 -0.3570
12923TIP3   OH260183   2.852   2.637  12.317 -0.6791  0.0237  0.8714
12923TIP3    H160184   2.846   2.731  12.299 -0.3647 -0.2926 -1.1301
12923TIP3    H260185   2.937   2.610  12.282 -0.9326 -1.0861  1.0480
12924TIP3   OH260186   0.399   5.632  13.256 -0.0294 -0.3660  0.0293
12924TIP3    H160187   0.345   5.661  13.182 -1.3123 -0.6716  0.8277
12924TIP3    H260188   0.462   5.572  13.217 -0.2685 -0.0281 -0.9186
12925TIP3   OH260189   6.376   0.452  13.775 -0.1598  0.3466  0.2478
12925TIP3    H160190   6.321   0.417  13.846  0.0809 -0.9092 -0.1623
12925TIP3    H260191   6.456   0.400  13.779 -0.3525 -0.1017 -1.2744
12926TIP3   OH260192   3.841   3.433  12.841  0.0081  0.6537  0.1787
12926TIP3    H160193   3.827   3.449  12.935  1.1868 -0.0747  0.4928
12926TIP3    H260194   3.788   3.500  12.798  0.1521  1.5817  1.3792
12927TIP3   OH260195   1.329   0.162   1.891  0.2220 -0.4470  0.8294
12927TIP3    H160196   1.335   0.249   1.852 -0.6795 -0.8014 -0.1363
12927TIP3    H260197   1.398   0.112   1.849  0.7881 -0.1955  1.4375
12928TIP3   OH260198   5.177   0.251   3.312 -0.2413  0.3574  0.4746
12928TIP3    H160199   5.157   0.236   3.404 -1.2976  1.6660  0.4897
12928TIP3    H260200   5.269   0.225   3.302 -0.2601 -0.2621  1.7689
12929TIP3   OH260201   2.103   0.147   0.128 -0.2209 -0.1651 -0.3688
12929TIP3    H160202   2.188   0.123   0.166  0.3566 -0.5168 -1.8227
12929TIP3    H260203   2.096   0.241   0.143  1.1239  0.1467 -1.5100
12930TIP3   OH260204   1.990   1.428  16.101 -0.1362 -0.1016  0.4383
12930TIP3    H160205   1.960   1.392  16.185 -1.6564  0.4322  0.1624
12930TIP3    H260206   2.007   1.521  16.119 -1.9492  0.3843 -0.1433
12931TIP3   OH260207   5.133   5.250  16.948  0.2236  0.2009  0.5125
12931TIP3    H160208   5.107   5.317  17.012  2.0074  1.7054 -0.2520
12931TIP3    H260209   5.217   5.218  16.980 -0.1340 -0.9581  0.3068
12932TIP3   OH260210   2.992   1.714  13.239 -0.5189 -0.2798  0.3674
12932TIP3    H160211   3.026   1.751  13.321 -0.7384 -1.0023  0.7848
12932TIP3    H260212   2.944   1.636  13.266  3.5145 -3.5176 -0.7696
12933TIP3   OH260213   4.142   3.072   0.363  0.3771  0.0223 -0.3634
12933TIP3    H160214   4.106   3.104   0.281 -1.8617 -0.5332  0.3426
12933TIP3    H260215   4.102   3.128   0.430  1.2137 -0.3240  0.4467
12934TIP3   OH260216   0.802   1.619   0.208 -0.4651 -0.0883  0.1250
12934TIP3    H160217   0.896   1.601   0.208 -0.7541 -1.9759  2.1838
12934TIP3    H260218   0.786   1.671   0.287 -0.9654  1.7780 -1.1297
12935TIP3   OH260219   0.157   0.191   1.677  0.2281 -0.6640 -0.2169
12935TIP3    H160220   0.212   0.118   1.649  2.2236  0.1582  1.3182
12935TIP3    H260221   0.208   0.269   1.656  0.0576  0.1111  1.9853
12936TIP3   OH260222   2.335   3.904  12.577 -0.0465 -0.1159  0.2557
12936TIP3    H160223   2.253   3.865  12.607 -0.3697  0.8540  0.6765
12936TIP3    H260224   2.380   3.930  12.657  0.7423 -0.7513  0.0329
12937TIP3   OH260225   5.247   2.863   5.429  0.1949  0.6097  0.1296
12937TIP3    H160226   5.171   2.827   5.383  1.0062  0.6181 -1.2618
12937TIP3    H260227   5.318   2.861   5.365  1.7091 -0.4994  1.7361
12938TIP3   OH260228   1.770   1.171   0.634 -0.1654  0.2291 -0.1920
12938TIP3    H160229   1.697   1.203   0.687 -1.3583  0.3609 -1.8356
12938TIP3    H260230   1.758   1.076   0.629 -0.9506  0.3702 -1.4330
12939TIP3   OH260231   5.262   5.301  16.329  0.0767 -1.2436 -0.1842
12939TIP3    H160232   5.298   5.212  16.324 -0.1887 -1.4395  1.0070
12939TIP3    H260233   5.167   5.288  16.335 -0.1109 -0.7927 -1.7942
12940TIP3   OH260234   3.752   2.523  17.062  0.1949  0.1252 -0.2732
12940TIP3    H160235   3.738   2.451  17.124  1.8628 -1.2684 -1.4264
12940TIP3    H260236   3.803   2.587  17.112 -0.4298  0.0697  0.4619
12941TIP3   OH260237   1.933   0.035  15.525  0.2311  0.1115  0.4014
12941TIP3    H160238   1.962   0.035  15.434  0.2906  0.0085  0.4202
12941TIP3    H260239   2.014   0.031  15.577  0.2857  1.8657  0.4940
12942TIP3   OH260240   3.239   0.760   0.090  0.3089 -0.1686 -0.7189
12942TIP3    H160241   3.286   0.778   0.172  2.0977 -3.1494 -0.9447
12942TIP3    H260242   3.307   0.764   0.023 -0.6894 -0.1039 -1.7448
12943TIP3   OH260243   4.811   2.510  12.395  0.4659 -0.1998  0.1177
12943TIP3    H160244   4.812   2.445  12.465  0.2172  0.1536  0.4560
12943TIP3    H260245   4.832   2.593  12.439 -0.1845  0.1058 -0.1390
12944TIP3   OH260246   5.930   0.597  13.589  0.1165 -0.2077 -0.0404
12944TIP3    H160247   5.920   0.559  13.502  0.1265  1.2935 -0.7236
12944TIP3    H260248   5.920   0.691  13.576  0.2041  0.0625  1.5744
12945TIP3   OH260249   5.107   6.474  16.798 -0.5642  0.0021  0.1134
12945TIP3    H160250   5.095   6.456  16.891  0.3523  1.0613  0.4523
12945TIP3    H260251   5.022   6.508  16.769 -0.6807  0.2126  0.6956
12946TIP3   OH260252   6.367   2.167  14.813 -0.7969  0.6860  0.4196
12946TIP3    H160253   6.397   2.165  14.904 -0.0553  0.8293  0.1885
12946TIP3    H260254   6.414   2.094  14.771  0.5413  1.9247 -0.3342
12947TIP3   OH260255   1.911   3.276  11.745 -0.6251  0.1435  0.6434
12947TIP3    H160256   1.827   3.250  11.783 -0.1453 -0.5800  1.2469
12947TIP3    H260257   1.896   3.274  11.650 -1.0158 -0.9742  0.7128
12948TIP3   OH260258   4.337   6.427   3.086  0.3966  0.1786 -0.4358
12948TIP3    H160259   4.316   6.519   3.067  0.5957  0.0596 -1.2541
12948TIP3    H260260   4.283   6.406   3.163 -1.4578  0.2851 -1.6287
12949TIP3   OH260261   5.997   2.094   2.401  0.2355  0.1365 -0.6359
12949TIP3    H160262   5.919   2.149   2.410 -0.4125 -0.8673 -0.0135
12949TIP3    H260263   6.036   2.091   2.488  0.8297  0.4045 -0.8824
12950TIP3   OH260264   5.135   3.189  12.693  0.3543  0.4967 -0.1431
12950TIP3    H160265   5.137   3.097  12.667 -1.6887  0.5503 -0.6599
12950TIP3    H260266   5.210   3.199  12.751  0.9903 -1.3294 -0.5748
12951TIP3   OH260267   3.483   2.057   5.604 -0.0517 -0.1345 -0.6536
12951TIP3    H160268   3.441   2.104   5.677 -1.1481  0.3192 -1.5479
12951TIP3    H260269   3.576   2.077   5.613  0.1877 -1.8836  1.9243
12952TIP3   OH260270   0.266   1.029  11.682 -0.5801  0.0325 -0.8756
12952TIP3    H160271   0.350   1.071  11.666 -0.0898 -0.9761 -1.0895
12952TIP3    H260272   0.289   0.945  11.723 -1.5353  0.1714 -0.0165
12953TIP3   OH260273   1.776   2.214   3.074  0.2917 -0.7430 -0.1583
12953TIP3    H160274   1.815   2.260   2.999  1.0290  0.1979  0.7672
12953TIP3    H260275   1.761   2.283   3.139  1.0363 -1.7511  1.1263
12954TIP3   OH260276   5.585   0.953   2.425  0.0725  0.7172 -0.3117
12954TIP3    H160277   5.551   1.041   2.408  0.1423  1.0007  0.9191
12954TIP3    H260278   5.534   0.922   2.500  1.5400  0.5935  0.6695
12955TIP3   OH260279   4.234   0.514  16.647  0.4025 -0.2585  0.1413
12955TIP3    H160280   4.255   0.470  16.565 -1.3436  1.3748 -1.2691
12955TIP3    H260281   4.311   0.568  16.665  0.6296 -0.3015 -0.6665
12956TIP3   OH260282   1.020   2.894  13.433  0.1321 -0.5409  0.8003
12956TIP3    H160283   0.971   2.973  13.455  0.1380 -0.4988  0.6585
12956TIP3    H260284   1.106   2.925  13.406 -0.2981 -0.4916 -0.6076
12957TIP3   OH260285   1.960   2.638  14.888  0.0635 -0.0039  0.4125
12957TIP3    H160286   1.899   2.580  14.934  0.1946 -0.6994 -0.2629
12957TIP3    H260287   2.006   2.580  14.827 -0.5150  0.9909 -1.0039
12958TIP3   OH260288   1.304   3.079   0.378 -0.1399  0.1367 -0.2616
12958TIP3    H160289   1.312   3.019   0.451 -1.3119 -0.0242 -0.2485
12958TIP3    H260290   1.215   3.113   0.384 -0.0639  0.5556 -1.2801
12959TIP3   OH260291   5.863   0.065  16.726 -0.4154 -0.2809 -0.2564
12959TIP3    H160292   5.795   0.122  16.763 -0.2932  0.1856 -0.7370
12959TIP3    H260293   5.849   0.069  16.631  0.4136  0.0014 -0.3754
12960TIP3   OH260294   4.734   2.383  16.984  0.9524  0.2705 -0.0481
12960TIP3    H160295   4.691   2.300  16.965 -0.1874  0.9278 -0.4085
12960TIP3    H260296   4.824   2.370  16.955  0.4874 -0.4308 -1.2458
12961TIP3   OH260297   2.997   0.010  11.513 -0.5577 -0.0149 -0.1939
12961TIP3    H160298   3.055  -0.052  11.556  1.7174  1.3470 -1.0986
12961TIP3    H260299   2.946  -0.043  11.452  1.6957 -1.0058 -1.3442
12962TIP3   OH260300   3.787   1.746   2.838  0.0933 -0.2237  0.2522
12962TIP3    H160301   3.698   1.711   2.846 -0.2964  0.3150 -1.3188
12962TIP3    H260302   3.775   1.832   2.798  1.3138 -0.0829  0.1592
12963TIP3   OH260303   3.667   5.494  14.832 -0.0183  0.8340 -0.3791
12963TIP3    H160304   3.657   5.427  14.764 -0.4606 -1.4295  1.7738
12963TIP3    H260305   3.596   5.476  14.894 -0.8976  4.1167 -0.2505
12964TIP3   OH260306   3.145   5.609  16.836  0.9222  0.2625  0.5043
12964TIP3    H160307   3.105   5.694  16.817  1.5503  0.5515  0.4590
12964TIP3    H260308   3.152   5.566  16.751 -1.8468 -0.9679  0.7895
12965TIP3   OH260309   0.426   2.786   4.889 -0.1817  0.2644  0.2380
12965TIP3    H160310   0.364   2.716   4.911 -0.0303 -0.1027 -0.4940
12965TIP3    H260311   0.445   2.774   4.796 -0.5339  1.5841 -0.0307
12966TIP3   OH260312   6.262   1.897  15.655  0.5823 -0.4865 -0.3891
12966TIP3    H160313   6.173   1.861  15.648  1.1503 -2.1162  0.1404
12966TIP3    H260314   6.319   1.822  15.639  1.8502 -0.2156  2.2864
12967TIP3   OH260315   6.316   6.676  16.196 -0.7590 -0.2266 -0.0186
12967TIP3    H160316   6.371   6.695  16.273 -0.2531  1.4581 -0.7461
12967TIP3    H260317   6.227   6.693  16.225 -0.6692 -0.5521  0.4629
12968TIP3   OH260318   3.852   2.982  15.865 -0.1488  0.1367 -0.2394
12968TIP3    H160319   3.877   2.897  15.902 -0.7969  0.1391  0.2218
12968TIP3    H260320   3.922   3.002  15.802  1.6661  0.6933  1.8208
12969TIP3   OH260321   4.890   3.494   6.337 -0.0496  0.0810 -0.0100
12969TIP3    H160322   4.803   3.486   6.297 -0.5029  0.7691  0.8143
12969TIP3    H260323   4.873   3.511   6.429  0.9076  2.0647 -0.1364
12970TIP3   OH260324   4.527   1.936  16.624 -0.5783 -0.2969  0.1138
12970TIP3    H160325   4.433   1.927  16.608 -0.3806  1.3156 -2.5928
12970TIP3    H260326   4.543   2.031  16.619  0.9479 -0.3423  2.4744
12971TIP3   OH260327   2.679   1.929  12.876  0.6005  0.0543 -0.0934
12971TIP3    H160328   2.592   1.889  12.879  0.0060  1.1579 -1.3934
12971TIP3    H260329   2.733   1.865  12.830  0.4632 -0.5916  0.6265
12972TIP3   OH260330   0.226   3.026  17.304 -0.4978  0.2541 -0.3392
12972TIP3    H160331   0.263   3.010  17.391  0.2162  1.7108 -0.3549
12972TIP3    H260332   0.194   2.940  17.276  0.0441 -0.4103  0.9902
12973TIP3   OH260333   5.165   1.606  14.616  0.0380  0.5328  0.9510
12973TIP3    H160334   5.228   1.676  14.633 -0.2150  1.0517 -0.1871
12973TIP3    H260335   5.124   1.590  14.701  0.6083  1.2560  1.3783
12974TIP3   OH260336   3.307   5.981   4.864 -0.7349  0.8064  0.3034
12974TIP3    H160337   3.267   6.012   4.945 -2.7751  0.5124 -0.5394
12974TIP3    H260338   3.236   5.937   4.818  0.6039  0.2061 -1.2644
12975TIP3   OH260339   3.861   5.452   5.445 -0.2429  0.3270 -0.7862
12975TIP3    H160340   3.819   5.367   5.459 -1.2063  0.8577 -0.2798
12975TIP3    H260341   3.919   5.463   5.520  1.5240 -0.7939 -1.9303
12976TIP3   OH260342   1.103   5.310  15.209 -0.0708  0.0925  0.1799
12976TIP3    H160343   1.051   5.340  15.135 -0.7879  1.4059  1.1745
12976TIP3    H260344   1.194   5.321  15.181 -0.3368  1.1169 -0.2993
12977TIP3   OH260345   3.983   3.374   5.259 -0.2148 -0.0306  0.3877
12977TIP3    H160346   4.051   3.312   5.282 -0.2984 -0.5365 -0.6800
12977TIP3    H260347   3.901   3.332   5.286 -0.1139  0.8356  2.2389
12978TIP3   OH260348   2.901   6.260  11.888  0.2580  0.2594 -1.1886
12978TIP3    H160349   2.913   6.181  11.940 -0.1541  1.4958  0.8901
12978TIP3    H260350   2.844   6.233  11.816  1.5660 -1.7065 -1.5597
12979TIP3   OH260351   3.958   3.688   1.959 -0.0079 -0.1025  0.2802
12979TIP3    H160352   4.010   3.767   1.972 -0.6286  0.5607 -1.0722
12979TIP3    H260353   3.975   3.663   1.869 -0.3308 -1.1439  0.5030
12980TIP3   OH260354   3.334   0.007  16.752 -0.1532  0.2077  0.3783
12980TIP3    H160355   3.248  -0.036  16.761 -0.8183  1.1826 -0.9316
12980TIP3    H260356   3.315   0.100  16.765  0.7811  0.3952  0.4424
12981TIP3   OH260357   6.110   6.007   2.639 -0.1157  0.4264  0.3113
12981TIP3    H160358   6.074   6.093   2.618 -0.5860  0.3112  0.6310
12981TIP3    H260359   6.205   6.018   2.633 -0.1872  0.8026 -0.2855
12982TIP3   OH260360   1.140   2.368   1.505 -0.0199  0.1508 -0.2248
12982TIP3    H160361   1.113   2.436   1.443 -0.3008 -2.2110 -2.8555
12982TIP3    H260362   1.074   2.299   1.497  1.0512 -1.1263  1.2260
12983TIP3   OH260363   5.333   3.239  14.340 -0.1366 -0.2997 -0.3743
12983TIP3    H160364   5.369   3.151  14.355  0.8146  0.2384  0.6653
12983TIP3    H260365   5.273   3.253  14.413 -1.3417 -0.5927 -1.2766
12984TIP3   OH260366   5.063   3.267  13.420 -0.2637 -0.4236 -0.5937
12984TIP3    H160367   5.158   3.270  13.419 -0.1845 -1.7011 -2.3897
12984TIP3    H260368   5.038   3.309  13.502  1.8566 -0.5441  0.1697
12985TIP3   OH260369   1.662   5.896  16.864 -0.0731 -0.7321  0.1931
12985TIP3    H160370   1.640   5.835  16.793  0.1722 -1.8237  1.0328
12985TIP3    H260371   1.756   5.912  16.854  0.1728 -1.6872  0.8597
12986TIP3   OH260372   4.747   6.414  14.114 -0.0398  0.3339  0.8190
12986TIP3    H160373   4.779   6.401  14.024  1.5829 -0.5475  1.4784
12986TIP3    H260374   4.746   6.509  14.125  1.1892  0.4260  0.3347
12987TIP3   OH260375   6.688   6.041   4.173 -0.2498 -0.4396  0.5707
12987TIP3    H160376   6.707   6.068   4.263 -3.5850 -0.9509  1.5778
12987TIP3    H260377   6.645   5.956   4.183  0.3355 -1.0513 -1.6513
12988TIP3   OH260378   2.871   0.282   2.191  0.2653  0.3156  0.1814
12988TIP3    H160379   2.943   0.265   2.252  0.6946 -0.6982 -0.5931
12988TIP3    H260380   2.813   0.341   2.239  0.3815 -0.7852  1.7427
12989TIP3   OH260381   4.137   6.110   2.227 -0.5934  0.0956 -0.1406
12989TIP3    H160382   4.203   6.152   2.173  0.4488 -1.1418  0.1166
12989TIP3    H260383   4.176   6.026   2.252 -2.9079 -1.4560 -1.3832
12990TIP3   OH260384   4.331   6.528  14.295  0.1883  0.4982  0.2030
12990TIP3    H160385   4.375   6.578  14.363  0.1705  2.1412 -0.9372
12990TIP3    H260386   4.241   6.520  14.325  0.4688  0.0841  0.9570
12991TIP3   OH260387   2.995   4.915  13.712  0.4268 -0.7156 -0.3113
12991TIP3    H160388   3.031   4.996  13.675  0.2383 -0.6489 -0.3507
12991TIP3    H260389   2.980   4.936  13.804  1.2706 -1.0077 -0.0937
12992TIP3   OH260390   1.348   6.698  16.163 -0.0522 -0.1449 -0.0651
12992TIP3    H160391   1.333   6.635  16.092 -1.3520 -0.3615  0.3771
12992TIP3    H260392   1.442   6.715  16.160 -0.0658 -0.1946 -1.7874
12993TIP3   OH260393   3.410   1.708   0.444  0.2593 -0.2541 -0.7718
12993TIP3    H160394   3.470   1.774   0.410  0.6274 -0.3162 -0.2410
12993TIP3    H260395   3.466   1.635   0.469  0.0764  0.0784  0.6703
12994TIP3   OH260396   5.048   3.074   4.473 -0.0573  0.3346 -0.9063
12994TIP3    H160397   4.969   3.127   4.478 -0.9161 -1.0034  0.8333
12994TIP3    H260398   5.036   3.020   4.395 -0.8825  0.1178 -0.6301
12995TIP3   OH260399   3.561   3.197   3.773 -0.6870  0.1321 -0.2715
12995TIP3    H160400   3.574   3.105   3.794 -3.1602 -0.0573  0.7252
12995TIP3    H260401   3.598   3.244   3.847  3.4343  0.2494 -2.1249
12996TIP3   OH260402   3.226   3.609   3.153 -0.3780  0.1115  0.3399
12996TIP3    H160403   3.237   3.520   3.185  3.0269 -0.6602 -2.3046
12996TIP3    H260404   3.136   3.612   3.120 -0.0513 -3.0398 -1.1963
12997TIP3   OH260405   6.134   0.648   2.810  0.0973  0.1012 -0.3308
12997TIP3    H160406   6.182   0.676   2.732  0.3719  0.4903 -0.0232
12997TIP3    H260407   6.140   0.553   2.809  0.5023  0.1292 -0.5295
12998TIP3   OH260408   4.749   5.298   3.271 -0.7844  0.1422  0.1334
12998TIP3    H160409   4.774   5.362   3.204 -0.0862  1.1163  1.2748
12998TIP3    H260410   4.675   5.251   3.233 -0.6521  0.9274 -1.1583
12999TIP3   OH260411   4.926   5.142  17.320  0.3888 -0.0191 -0.3059
12999TIP3    H160412   4.875   5.105  17.393 -0.9260  0.6100 -0.8701
12999TIP3    H260413   4.941   5.067  17.262 -0.5884 -0.0796 -0.5064
13000TIP3   OH260414   6.049   4.386  14.388 -0.5097 -0.2783 -0.0698
13000TIP3    H160415   6.112   4.313  14.387 -1.6565 -1.2929 -0.2630
13000TIP3    H260416   6.047   4.416  14.297 -2.3645 -2.1086 -0.6949
13001TIP3   OH260417   6.312   5.098  15.263  0.2479 -0.5340  0.5098
13001TIP3    H160418   6.342   5.176  15.217 -0.6183  0.0733  0.9565
13001TIP3    H260419   6.343   5.025  15.209  2.0737  0.0652  0.6994
13002TIP3   OH260420   1.605   2.362   0.719  0.3162 -0.1232  0.7354
13002TIP3    H160421   1.697   2.356   0.744 -0.1526 -1.7279  2.2659
13002TIP3    H260422   1.566   2.281   0.750 -1.4461  0.0817 -0.7394
13003TIP3   OH260423   2.497   1.948   0.724  0.3134 -0.1167 -0.1371
13003TIP3    H160424   2.439   1.877   0.694  0.4229  0.2115 -1.1649
13003TIP3    H260425   2.545   1.974   0.645 -0.6936  2.0181 -0.1072
13004TIP3   OH260426   6.470   4.439   0.277  0.5839 -0.7260  0.2322
13004TIP3    H160427   6.507   4.382   0.210  1.8679 -0.2464  0.4956
13004TIP3    H260428   6.504   4.404   0.359  1.9346  0.7690  0.3552
13005TIP3   OH260429   4.461   0.971  15.172  0.6023  0.0484 -0.1636
13005TIP3    H160430   4.518   0.943  15.243  0.8988 -0.7377 -0.6966
13005TIP3    H260431   4.448   1.064  15.187 -0.2380 -0.3103  1.5427
13006TIP3   OH260432   1.193   0.541  14.430 -0.1480  0.2652 -0.1730
13006TIP3    H160433   1.266   0.481  14.417 -0.1310  0.5630 -1.5738
13006TIP3    H260434   1.192   0.595  14.351 -0.2776  1.9971  0.9756
13007TIP3   OH260435   4.156   0.466  14.100 -0.1339  0.4930  0.2810
13007TIP3    H160436   4.151   0.375  14.070  1.1359  0.1617  1.0143
13007TIP3    H260437   4.206   0.511  14.032  0.9684  0.1881  0.8674
13008TIP3   OH260438   5.149   0.290   5.905  0.0075 -0.2686 -0.2354
13008TIP3    H160439   5.129   0.384   5.903  0.2011 -0.1905  0.6862
13008TIP3    H260440   5.208   0.276   5.831  2.3391  0.9310  1.2542
13009TIP3   OH260441   5.344   0.266  11.476 -0.0777 -0.1413  0.2907
13009TIP3    H160442   5.366   0.287  11.385  1.2705 -0.5256  0.5121
13009TIP3    H260443   5.318   0.350  11.514  4.0773  1.1136  0.8349
13010TIP3   OH260444   5.266   0.379   1.122 -0.0301  0.0695  0.1582
13010TIP3    H160445   5.299   0.399   1.034  0.1154 -0.6203  0.0480
13010TIP3    H260446   5.282   0.285   1.132  2.5186  0.5921  1.9795
13011TIP3   OH260447   1.779   5.903  15.421  0.9280 -0.5797 -0.4421
13011TIP3    H160448   1.734   5.871  15.343  0.5525  0.7231 -0.7893
13011TIP3    H260449   1.721   5.880  15.494 -0.0973  0.6707 -0.8410
13012TIP3   OH260450   4.273   1.134   5.360 -0.1818 -0.0946 -0.2785
13012TIP3    H160451   4.287   1.047   5.323 -0.1924  0.1581 -0.8915
13012TIP3    H260452   4.351   1.152   5.411  0.0058 -0.2946 -0.4962
13013TIP3   OH260453   3.909   5.873  17.269  0.0829  0.4320 -0.6007
13013TIP3    H160454   3.985   5.904  17.219 -0.5166  0.9507 -1.2229
13013TIP3    H260455   3.843   5.856  17.202 -0.0758 -0.8457 -0.1365
13014TIP3   OH260456   0.819   4.510  13.160  0.2023 -0.1250 -0.1639
13014TIP3    H160457   0.772   4.535  13.081 -0.1326 -0.7640 -0.1769
13014TIP3    H260458   0.750   4.489  13.223  0.4195 -2.5064 -0.6365
13015TIP3   OH260459   0.497   4.447  15.569  0.0395  1.0135 -0.3653
13015TIP3    H160460   0.541   4.368  15.600  1.0756  2.3103  1.6539
13015TIP3    H260461   0.417   4.415  15.527 -1.1012 -1.0219  2.9826
13016TIP3   OH260462   3.493   6.114   2.588  0.2333 -0.3063  0.1398
13016TIP3    H160463   3.562   6.178   2.575 -1.6092  1.7359 -0.1747
13016TIP3    H260464   3.524   6.060   2.661  2.8252 -0.5418 -1.0417
13017TIP3   OH260465   6.630   4.354  14.905  0.2539  0.2399  0.1380
13017TIP3    H160466   6.580   4.279  14.939 -1.2954  0.5500 -1.2839
13017TIP3    H260467   6.599   4.429  14.956 -0.4390  0.3582 -0.4354
13018TIP3   OH260468   1.504   0.172   5.617  0.9361  0.2766  0.2939
13018TIP3    H160469   1.498   0.240   5.550 -0.2815  0.5284  0.6307
13018TIP3    H260470   1.414   0.142   5.629  1.0690  0.4532  2.0346
13019TIP3   OH260471   6.710   2.117  15.738  0.2331 -0.5075  0.3733
13019TIP3    H160472   6.717   2.106  15.832  1.3227  0.6439  0.4417
13019TIP3    H260473   6.712   2.027  15.703  1.0650 -0.8872  1.3608
13020TIP3   OH260474   5.881   5.730  13.060  0.4860  0.1773  0.1115
13020TIP3    H160475   5.839   5.651  13.094 -0.4108  0.1710 -0.9306
13020TIP3    H260476   5.860   5.798  13.123 -0.5294  0.0209 -0.0435
13021TIP3   OH260477   1.348   2.197   2.351 -0.3126 -0.2682 -0.1007
13021TIP3    H160478   1.306   2.116   2.320  0.2647  0.1995 -2.2605
13021TIP3    H260479   1.290   2.266   2.322 -0.4165  0.1699  1.0854
13022TIP3   OH260480   2.365   1.273  13.829 -0.0630  0.0651  0.0158
13022TIP3    H160481   2.276   1.238  13.816  0.5534 -1.4413 -0.3475
13022TIP3    H260482   2.386   1.250  13.920  0.0834  0.1261 -0.0040
13023TIP3   OH260483   5.013   0.218   2.091  0.0140  0.0068  0.1938
13023TIP3    H160484   5.077   0.184   2.028  0.7968 -0.1115  1.0286
13023TIP3    H260485   4.936   0.238   2.039  0.2359 -1.1844 -0.6355
13024TIP3   OH260486   4.141   5.621  16.784  0.5405 -0.1138 -0.1761
13024TIP3    H160487   4.151   5.603  16.877 -0.0071 -1.0033 -0.2814
13024TIP3    H260488   4.228   5.652  16.757  0.2298  1.8920  0.9776
13025TIP3   OH260489   3.175   2.191   2.580  0.2903  0.3593  0.1437
13025TIP3    H160490   3.198   2.204   2.672 -1.8807 -0.3956  0.8611
13025TIP3    H260491   3.160   2.097   2.573  0.3528  0.4255 -0.9780
13026TIP3   OH260492   5.125   1.668  11.732 -0.1317  0.1560 -0.6901
13026TIP3    H160493   5.174   1.722  11.793 -0.9300  0.1542 -0.0353
13026TIP3    H260494   5.190   1.607  11.696  0.4120  0.3917 -0.1138
13027TIP3   OH260495   3.006   6.673   2.154 -0.2118 -0.0793  0.5384
13027TIP3    H160496   3.004   6.690   2.060  0.9461  0.4671  0.5913
13027TIP3    H260497   3.004   6.577   2.161  2.4572 -0.2621 -0.2040
13028TIP3   OH260498   4.514   1.737  13.545 -0.0622 -0.1084 -0.0900
13028TIP3    H160499   4.446   1.682  13.584 -1.4148  1.5326 -0.0290
13028TIP3    H260500   4.549   1.788  13.618 -0.2440  0.5526 -0.4526
13029TIP3   OH260501   3.052   1.612   2.984  0.1422 -0.6568  0.3583
13029TIP3    H160502   3.108   1.674   3.029  0.4773 -0.0230 -0.8709
13029TIP3    H260503   3.058   1.532   3.036  1.8565 -0.4788  0.5048
13030TIP3   OH260504   4.815   3.956  16.032 -0.3498 -0.1703 -0.3035
13030TIP3    H160505   4.833   4.050  16.029  1.8785 -0.5509 -0.2703
13030TIP3    H260506   4.724   3.948  16.004 -0.6382  2.0034 -0.1398
13031TIP3   OH260507   3.243   0.083  13.113 -0.4857 -0.0368  0.4197
13031TIP3    H160508   3.278   0.088  13.024 -1.1127  0.7296  0.2014
13031TIP3    H260509   3.162   0.034  13.104 -0.7999  0.4619  0.4786
13032TIP3   OH260510   2.270   0.621  12.167 -0.5050 -0.6465 -0.6726
13032TIP3    H160511   2.349   0.672  12.183 -0.8563 -0.1288 -0.5830
13032TIP3    H260512   2.212   0.643  12.240 -0.3643 -1.7737 -0.1849
13033TIP3   OH260513   5.056   6.083  14.858  0.6767 -0.1115  0.0768
13033TIP3    H160514   5.048   6.150  14.926 -1.4224  1.1875 -1.3049
13033TIP3    H260515   5.096   6.130  14.784 -0.3313 -0.4855 -0.7301
13034TIP3   OH260516   5.758   2.143  13.171  0.2711 -0.4140  0.7201
13034TIP3    H160517   5.665   2.152  13.151  0.5947 -0.0560 -0.6904
13034TIP3    H260518   5.792   2.232  13.174  1.1235 -0.5892 -1.6659
13035TIP3   OH260519   2.671   4.201   4.630  0.3749  0.3666 -0.0597
13035TIP3    H160520   2.722   4.152   4.565 -0.5798 -2.7802  1.3423
13035TIP3    H260521   2.681   4.151   4.711 -2.3327  1.4100  1.0446
13036TIP3   OH260522   0.488   4.570  13.762  0.1442  0.7037  0.3064
13036TIP3    H160523   0.549   4.642  13.745 -0.4369  1.2553  0.5251
13036TIP3    H260524   0.403   4.612  13.774 -0.7566 -0.1887 -2.1538
13037TIP3   OH260525   0.071   4.271  15.954  0.5788 -0.7164  0.3200
13037TIP3    H160526   0.050   4.226  16.036 -0.4203 -0.6756  0.0917
13037TIP3    H260527   0.114   4.352  15.982  1.5620 -1.3702  0.7536
13038TIP3   OH260528   3.424   0.226   4.723  0.0096  0.0116 -0.1367
13038TIP3    H160529   3.332   0.246   4.739 -0.4126 -1.3466 -0.7510
13038TIP3    H260530   3.436   0.245   4.630 -0.4376 -2.4835 -0.7832
13039TIP3   OH260531   0.536   4.056  12.629  0.4468  0.3899 -0.7827
13039TIP3    H160532   0.497   3.992  12.687  1.8696  0.0382 -0.1569
13039TIP3    H260533   0.469   4.124  12.618 -0.2875 -0.1524  0.2682
13040TIP3   OH260534   0.015   4.752  10.611 -0.3433 -0.0677  0.3872
13040TIP3    H160535  -0.024   4.664  10.608 -1.1375  0.3010 -0.7078
13040TIP3    H260536   0.083   4.749  10.544  0.7997 -0.3550  1.5213
13041TIP3   OH260537   5.423   3.310   4.788 -0.3399  0.1045  0.3074
13041TIP3    H160538   5.451   3.390   4.742 -0.2174  0.6479  1.3005
13041TIP3    H260539   5.444   3.327   4.880  0.5032 -1.4382  0.4263
13042TIP3   OH260540   1.315   3.252  14.340  0.3018  0.5419  0.1799
13042TIP3    H160541   1.374   3.185  14.375 -0.2355 -0.9314 -1.5191
13042TIP3    H260542   1.231   3.234  14.382 -0.2978 -1.1084 -1.5676
13043TIP3   OH260543   4.405   5.736  16.695 -0.0577 -0.0982  0.1526
13043TIP3    H160544   4.402   5.741  16.600  0.1138  0.1753  0.1605
13043TIP3    H260545   4.433   5.823  16.723 -0.1531 -0.1633  0.4553
13044TIP3   OH260546   4.234   3.211   5.294  0.0413 -0.0944 -0.0890
13044TIP3    H160547   4.271   3.296   5.318 -1.5347  0.8211 -0.7598
13044TIP3    H260548   4.245   3.156   5.372  1.9811  0.3780  0.0183
13045TIP3   OH260549   3.632   0.137   5.568  1.0290  0.2394  0.2173
13045TIP3    H160550   3.702   0.182   5.519 -0.2111  2.4159  0.3386
13045TIP3    H260551   3.566   0.204   5.582  0.0245 -1.1085  2.3463
13046TIP3   OH260552   3.401   1.377   0.669 -0.9843 -0.4025  0.8053
13046TIP3    H160553   3.308   1.380   0.647 -1.2640  0.4340  2.0014
13046TIP3    H260554   3.404   1.368   0.764  0.1291  0.7938  0.9340
13047TIP3   OH260555   0.206   2.619   6.361 -0.5104 -0.3343 -0.2031
13047TIP3    H160556   0.228   2.556   6.430  1.3740 -1.0660 -1.4053
13047TIP3    H260557   0.218   2.704   6.403  0.0928 -0.7674  0.5306
13048TIP3   OH260558   6.062   0.161  15.280 -0.4636 -0.5582 -0.2823
13048TIP3    H160559   6.059   0.227  15.349 -1.3215 -0.5498 -0.3200
13048TIP3    H260560   6.074   0.078  15.326 -1.0123 -0.5508 -0.1153
13049TIP3   OH260561   1.535   1.912  16.186  0.3093  0.5472  0.6639
13049TIP3    H160562   1.587   1.855  16.129  3.8149  2.7548  1.3607
13049TIP3    H260563   1.592   1.931  16.260 -1.3150  3.5480  1.3004
13050TIP3   OH260564   2.893   2.003   2.691  0.6346  0.9380 -0.0027
13050TIP3    H160565   2.957   1.933   2.684 -0.4050 -0.2762  1.8905
13050TIP3    H260566   2.913   2.046   2.774 -1.6114 -0.1804  1.2063
13051TIP3   OH260567   6.641   6.753   2.905 -0.2560  0.1090  0.0521
13051TIP3    H160568   6.616   6.777   2.816 -0.6635 -2.8990 -0.7666
13051TIP3    H260569   6.723   6.799   2.921 -1.1116  2.1813 -1.1079
13052TIP3   OH260570   5.489   0.617  17.142  0.2109  0.7219  0.0906
13052TIP3    H160571   5.505   0.524  17.123  0.4049  1.0839 -1.7530
13052TIP3    H260572   5.575   0.652  17.163  0.1484  0.5090  0.7217
13053TIP3   OH260573   3.997   0.879   5.820 -0.1796 -0.1890 -0.1626
13053TIP3    H160574   3.978   0.923   5.903  2.2696 -0.3046  0.5247
13053TIP3    H260575   3.956   0.935   5.754 -1.7743  0.1625  1.0568
13054TIP3   OH260576   5.466   2.858   6.333  0.2736 -0.9214  0.1340
13054TIP3    H160577   5.445   2.933   6.389  1.2177 -0.4252 -0.1442
13054TIP3    H260578   5.381   2.824   6.305 -0.2111  1.1305 -1.1271
13055TIP3   OH260579   4.544   5.064   1.810  0.1104 -0.2107 -0.6250
13055TIP3    H160580   4.453   5.035   1.819  0.8124 -2.5017 -0.3668
13055TIP3    H260581   4.540   5.159   1.823 -2.0349 -0.4494  0.9343
13056TIP3   OH260582   2.070   1.554  13.135  0.2060 -0.2803  0.5707
13056TIP3    H160583   2.125   1.479  13.158  1.1840  0.2264 -0.0567
13056TIP3    H260584   2.020   1.525  13.059  0.3328 -0.4103  0.5354
13057TIP3   OH260585   2.042   1.234  12.055 -0.2846 -0.4283  0.2364
13057TIP3    H160586   2.041   1.146  12.018  2.4442  0.8612 -3.5703
13057TIP3    H260587   1.951   1.264  12.048 -1.1890 -2.6776  1.2327
13058TIP3   OH260588   3.524   4.357   1.492 -0.2478 -0.0180 -0.4895
13058TIP3    H160589   3.441   4.387   1.530 -0.0536  0.3443 -0.3542
13058TIP3    H260590   3.510   4.264   1.476 -0.2740 -0.2140  0.6174
13059TIP3   OH260591   2.756   0.045  12.235 -0.0203  0.1476 -0.0519
13059TIP3    H160592   2.798   0.122  12.198  0.8749 -1.6223 -3.0588
13059TIP3    H260593   2.666   0.049  12.204 -0.0505  0.1166  0.0304
13060TIP3   OH260594   0.131   2.083  15.317  0.3398  0.3728 -0.5139
13060TIP3    H160595   0.204   2.132  15.354  0.2222 -0.0977  0.4038
13060TIP3    H260596   0.125   2.005  15.373 -0.6721  0.2629 -0.7565
13061TIP3   OH260597   4.906   6.283   2.027  0.3140 -0.3463 -0.2352
13061TIP3    H160598   4.921   6.312   1.937  1.3478  0.9114  0.3127
13061TIP3    H260599   4.936   6.356   2.082 -1.4743 -0.5448  1.1302
13062TIP3   OH260600   6.731   0.216   4.261  0.3014  0.2133  0.0523
13062TIP3    H160601   6.729   0.144   4.325 -0.9497 -1.0351 -1.3224
13062TIP3    H260602   6.807   0.197   4.206  1.4185  1.3258  1.1471
13063TIP3   OH260603   6.643   0.194  15.039  0.2420 -0.5879  0.2342
13063TIP3    H160604   6.661   0.174  15.130 -2.1001 -1.6990  0.5088
13063TIP3    H260605   6.548   0.208  15.035  0.2178 -0.9752 -2.0778
13064TIP3   OH260606   4.601   5.728  14.003 -0.3767  0.4601 -0.0594
13064TIP3    H160607   4.515   5.722  13.960  0.3828 -0.9311 -1.5173
13064TIP3    H260608   4.590   5.680  14.085 -0.4876 -1.6316 -1.2194
13065TIP3   OH260609   1.104   1.989  15.697  0.2530 -0.2682 -0.3496
13065TIP3    H160610   1.075   2.069  15.653 -0.8493 -0.0377  0.7583
13065TIP3    H260611   1.149   2.020  15.776 -1.5800 -0.7331  0.9344
13066TIP3   OH260612   2.673   0.962   0.002  0.3639 -0.0765  0.2804
13066TIP3    H160613   2.737   0.924   0.063  0.1371 -1.1293 -0.1302
13066TIP3    H260614   2.591   0.917   0.021  0.2563 -0.3025 -0.6987
13067TIP3   OH260615   2.863   4.992  13.079  0.4414 -0.5466 -0.1706
13067TIP3    H160616   2.844   5.038  12.997  1.8552  0.1085 -0.1740
13067TIP3    H260617   2.778   4.963  13.111 -0.4681  1.6585 -0.4299
13068TIP3   OH260618   6.417   4.907   1.655 -0.2683 -1.2986 -0.2241
13068TIP3    H160619   6.406   4.839   1.721  1.0361 -1.1327  0.1948
13068TIP3    H260620   6.365   4.981   1.686  1.4896 -0.6796  1.4338
13069TIP3   OH260621   0.085   0.499   2.276  0.6057 -0.6613  0.4434
13069TIP3    H160622   0.170   0.531   2.247  0.2783 -0.5466 -0.4109
13069TIP3    H260623   0.054   0.566   2.337  0.2655  0.2842 -0.7447
13070TIP3   OH260624   6.626   0.127  14.377  0.1153 -0.4004  0.3253
13070TIP3    H160625   6.647   0.204  14.430  0.4701  0.4203 -0.9823
13070TIP3    H260626   6.704   0.072  14.381  0.6766  0.3300 -0.5036
13071TIP3   OH260627   0.847   4.421  12.287 -0.8069 -0.1306  0.0319
13071TIP3    H160628   0.869   4.441  12.196 -2.5918 -0.5113 -0.5118
13071TIP3    H260629   0.798   4.497  12.318 -1.0961 -0.4397  0.3456
13072TIP3   OH260630   3.552   5.451  12.162 -0.0648  0.2434  0.1499
13072TIP3    H160631   3.629   5.432  12.109 -0.8572  2.2319 -1.8497
13072TIP3    H260632   3.507   5.367  12.170  1.0057 -0.4414 -0.8175
13073TIP3   OH260633   6.699   6.082   6.639  0.8938  1.1387  0.3331
13073TIP3    H160634   6.701   6.094   6.544  0.2844  1.2408  0.3294
13073TIP3    H260635   6.791   6.078   6.664  1.0637  0.2843 -0.3697
13074TIP3   OH260636   5.578   5.655   3.772  0.7755  0.0911  0.5243
13074TIP3    H160637   5.563   5.562   3.787 -0.2992  0.0717 -0.5197
13074TIP3    H260638   5.667   5.671   3.805  1.4065 -1.5410 -0.2957
13075TIP3   OH260639   0.429   1.516   2.869  0.5899 -0.8537 -0.6024
13075TIP3    H160640   0.488   1.448   2.837 -0.6187 -1.1070 -2.4722
13075TIP3    H260641   0.373   1.472   2.932  0.7730 -1.2406 -0.7094
13076TIP3   OH260642   5.494   0.908   0.125  0.3557  0.0821 -0.7489
13076TIP3    H160643   5.433   0.898   0.198 -1.2380 -0.2137 -2.0429
13076TIP3    H260644   5.477   0.832   0.069  2.2779 -0.2548 -0.9340
13077TIP3   OH260645   4.929   0.076  17.177  0.4669  0.7928 -0.6203
13077TIP3    H160646   4.905   0.036  17.260 -1.2578  3.1839  0.1373
13077TIP3    H260647   5.025   0.075  17.177  0.6293 -3.3311 -0.8133
13078TIP3   OH260648   4.218   5.573  15.817 -0.4527  0.5212  0.2673
13078TIP3    H160649   4.124   5.593  15.824 -0.6114  0.1716 -0.7020
13078TIP3    H260650   4.236   5.518  15.894 -1.5272 -1.1396 -0.5979
13079TIP3   OH260651   0.468   4.270   5.193 -0.2723 -0.0372  0.0132
13079TIP3    H160652   0.426   4.239   5.112 -0.9341  0.1487  0.2797
13079TIP3    H260653   0.551   4.308   5.164 -1.0027  1.0510 -0.7282
13080TIP3   OH260654   1.423   5.952   5.323 -0.2785 -0.0862 -0.0823
13080TIP3    H160655   1.384   5.964   5.236 -2.5094  2.5157  1.1175
13080TIP3    H260656   1.494   6.016   5.327  0.2302 -0.6396 -0.1884
13081TIP3   OH260657   5.600   0.005  15.661 -0.1794 -0.3906  0.1273
13081TIP3    H160658   5.518   0.009  15.709 -0.9556  1.6165 -1.2015
13081TIP3    H260659   5.611  -0.088  15.639 -1.0524 -0.9732  1.9765
13082TIP3   OH260660   2.042   3.794  10.965 -0.0402  0.1222  0.2541
13082TIP3    H160661   2.078   3.757  11.046  0.1710  0.1077  0.1544
13082TIP3    H260662   2.067   3.886  10.967  0.7283 -0.0684 -0.2142
13083TIP3   OH260663   6.586   4.381   1.715  0.1804  0.0277  0.2800
13083TIP3    H160664   6.500   4.411   1.686  0.8307  2.5957  0.7620
13083TIP3    H260665   6.643   4.396   1.639  0.6634  0.6930  0.7701
13084TIP3   OH260666   5.345   2.158   1.542 -0.6291  0.1356 -0.4579
13084TIP3    H160667   5.423   2.103   1.554 -0.8269  0.0445  0.4839
13084TIP3    H260668   5.368   2.216   1.469  0.3216  0.0988 -0.2064
13085TIP3   OH260669   5.173   5.411   5.562  0.3134  0.6039 -0.1150
13085TIP3    H160670   5.203   5.344   5.501 -1.9173 -0.4864 -0.1444
13085TIP3    H260671   5.253   5.449   5.598  1.6734 -0.0864 -2.2202
13086TIP3   OH260672   2.079   2.176   1.656  0.1971 -0.0207  0.1236
13086TIP3    H160673   2.127   2.258   1.668  0.6149 -0.2112 -0.2210
13086TIP3    H260674   1.989   2.204   1.638 -0.1993  0.2982  2.3641
13087TIP3   OH260675   6.026   3.692   2.722 -0.2193 -0.1961 -0.0581
13087TIP3    H160676   5.954   3.750   2.747 -0.6155 -1.0844  0.9359
13087TIP3    H260677   6.101   3.751   2.710 -1.0042  0.6986 -0.7339
13088TIP3   OH260678   0.411   5.879   0.641  0.4801  0.2397  0.0907
13088TIP3    H160679   0.462   5.835   0.709 -3.2353 -2.1846  1.6077
13088TIP3    H260680   0.385   5.962   0.681  0.6314  0.0717  0.5443
13089TIP3   OH260681   2.395   2.548  12.973 -0.5075 -0.0605  0.2601
13089TIP3    H160682   2.416   2.459  12.945  1.3361  0.1419  0.8112
13089TIP3    H260683   2.365   2.592  12.894  1.4694 -0.3715 -0.7439
13090TIP3   OH260684   4.674   5.630   2.164  0.2026  0.2412  0.1660
13090TIP3    H160685   4.639   5.545   2.139  0.4212  0.1984  0.0051
13090TIP3    H260686   4.676   5.680   2.082  2.8502 -0.5625 -0.3817
13091TIP3   OH260687   1.619   3.918  12.024  0.0746  0.2157 -0.1899
13091TIP3    H160688   1.614   3.824  12.010  0.7280  0.5131 -3.1221
13091TIP3    H260689   1.608   3.956  11.936  0.1858  2.8618  0.8370
13092TIP3   OH260690   0.585   5.717   3.608  0.3554 -0.3357 -0.1028
13092TIP3    H160691   0.610   5.631   3.641  0.6160 -0.8622 -1.6168
13092TIP3    H260692   0.532   5.755   3.679  1.9611 -0.8568  1.4590
13093TIP3   OH260693   5.442   1.733   4.301 -0.4082 -0.2823 -0.4091
13093TIP3    H160694   5.393   1.767   4.377 -1.0420 -0.2212 -0.8383
13093TIP3    H260695   5.381   1.673   4.259 -0.4666  0.5184 -1.5022
13094TIP3   OH260696   4.483   3.582   2.982 -0.4683  0.5503  0.5357
13094TIP3    H160697   4.409   3.643   2.977  0.5185  1.6460 -1.9787
13094TIP3    H260698   4.473   3.525   2.906 -0.4110 -1.3994  1.9000
13095TIP3   OH260699   0.906   5.895   0.417 -0.4066 -0.1241 -0.0876
13095TIP3    H160700   0.815   5.913   0.440 -0.1927  0.3797  0.3877
13095TIP3    H260701   0.947   5.872   0.500 -0.4498 -1.9191 -0.5360
13096TIP3   OH260702   5.653   2.632   0.571  0.3256 -0.1557  0.6192
13096TIP3    H160703   5.599   2.556   0.552  0.8614 -0.8496  1.7569
13096TIP3    H260704   5.738   2.595   0.595  0.5692  0.7976  1.2795
13097TIP3   OH260705   6.023   1.257   3.359 -0.1278 -0.1027  0.2305
13097TIP3    H160706   5.989   1.226   3.275 -2.6685  1.0463  0.7418
13097TIP3    H260707   6.049   1.177   3.405  0.2854 -0.8351 -1.1928
13098TIP3   OH260708   0.465   2.614   1.265 -0.0192  0.2742 -0.3602
13098TIP3    H160709   0.452   2.536   1.212  1.4278 -1.1322  1.2669
13098TIP3    H260710   0.495   2.582   1.350  2.2996  2.6470 -0.1359
13099TIP3   OH260711   4.659   6.046  14.609  0.2822  0.2046 -0.0308
13099TIP3    H160712   4.606   6.120  14.637  2.5357  1.7116  0.4393
13099TIP3    H260713   4.643   6.039  14.515 -0.4764  0.8006  0.0444
13100TIP3   OH260714   2.919   4.149  16.848  0.8033 -0.1359  0.3168
13100TIP3    H160715   2.903   4.088  16.920  0.3917  0.3155  0.6180
13100TIP3    H260716   3.013   4.169  16.855  0.5127  0.9113  1.5619
13101TIP3   OH260717   0.713   4.091   5.231  0.2817  0.5263  0.3922
13101TIP3    H160718   0.626   4.131   5.234  0.6863  1.4837 -0.0144
13101TIP3    H260719   0.736   4.093   5.138  0.4493 -0.3677  0.4130
13102TIP3   OH260720   0.373   0.698   2.721 -0.5614  0.5925  0.0232
13102TIP3    H160721   0.371   0.647   2.802  2.6130 -0.9899 -0.7331
13102TIP3    H260722   0.358   0.633   2.652  0.1151  1.2868 -0.8007
13103TIP3   OH260723   4.826   5.915   1.438  0.2629 -0.3905 -0.5736
13103TIP3    H160724   4.917   5.913   1.407  0.3735 -1.7691 -0.2173
13103TIP3    H260725   4.832   5.945   1.528  0.6201 -2.4682  0.1473
13104TIP3   OH260726   3.599   6.191   5.453 -0.1642  0.0117 -0.1850
13104TIP3    H160727   3.689   6.158   5.456  0.2169  1.0934  2.8341
13104TIP3    H260728   3.608   6.282   5.424 -0.2550  0.1629  0.2567
13105TIP3   OH260729   6.341   5.282   5.673  0.1601 -0.1041 -0.2504
13105TIP3    H160730   6.308   5.245   5.590  0.3128  0.1940 -0.4450
13105TIP3    H260731   6.431   5.307   5.654  0.5621 -1.0792  0.3349
13106TIP3   OH260732   3.481   5.918  15.983  0.2075  0.5801 -0.6201
13106TIP3    H160733   3.483   6.012  15.968  1.5617  0.9576  1.5014
13106TIP3    H260734   3.392   5.892  15.961 -0.6540  2.6356  0.1978
13107TIP3   OH260735   6.400   6.750   4.621  0.4825 -0.5860  0.2718
13107TIP3    H160736   6.490   6.756   4.652  0.4237 -0.4413  0.4130
13107TIP3    H260737   6.349   6.729   4.699  0.3377 -0.2489  0.2688
13108TIP3   OH260738   2.752   1.154   3.262 -0.0562  0.0764  0.1661
13108TIP3    H160739   2.844   1.140   3.285  0.3990  4.5031  1.9614
13108TIP3    H260740   2.754   1.216   3.189 -1.7160 -1.9496 -1.7415
13109TIP3   OH260741   2.747   4.178   4.897  0.0257  0.3672 -0.1429
13109TIP3    H160742   2.736   4.273   4.891 -1.6205  0.1060 -2.7139
13109TIP3    H260743   2.824   4.159   4.844  0.4614  0.2620  0.5180
13110TIP3   OH260744   5.461   1.947  11.339 -0.1142  0.5559  0.3962
13110TIP3    H160745   5.405   1.883  11.383 -0.5947  0.8592  0.2293
13110TIP3    H260746   5.422   1.958  11.253  0.1397  0.8578  0.3192
13111TIP3   OH260747   3.252   3.888  15.705 -0.0401 -0.1541 -0.5010
13111TIP3    H160748   3.326   3.843  15.746  0.1454  0.6190  0.0489
13111TIP3    H260749   3.285   3.977  15.688 -1.0168  0.3956  0.3307
13112TIP3   OH260750   0.187   2.599  14.103 -0.3424 -0.1726 -0.5664
13112TIP3    H160751   0.244   2.650  14.162 -0.4087  0.0366 -0.6817
13112TIP3    H260752   0.226   2.608  14.017 -0.9829  0.6317 -0.7875
13113TIP3   OH260753   4.330   5.129  14.968  0.6728 -0.3852 -0.1413
13113TIP3    H160754   4.361   5.209  14.924  1.3947 -0.7677 -0.3540
13113TIP3    H260755   4.332   5.150  15.061  3.7777 -1.0611  0.0671
13114TIP3   OH260756   2.741   2.232  11.128 -0.2068  0.7079  0.2404
13114TIP3    H160757   2.708   2.184  11.052 -0.9035  0.2859  0.7861
13114TIP3    H260758   2.805   2.293  11.093  1.6513 -1.4475 -0.3798
13115TIP3   OH260759   0.022   2.929   4.302  0.2134 -0.1733  0.3539
13115TIP3    H160760   0.029   2.834   4.308 -2.0631 -0.5024 -0.9307
13115TIP3    H260761   0.058   2.951   4.216 -0.6014 -0.0815  0.0262
13116TIP3   OH260762   2.135   0.863   1.662  0.0930  0.4012  0.4969
13116TIP3    H160763   2.091   0.785   1.696  1.4241 -0.9368 -0.6574
13116TIP3    H260764   2.086   0.936   1.697 -0.8816 -0.9470  2.0966
13117TIP3   OH260765   1.942   4.575   2.677 -0.0090 -0.1936 -0.3582
13117TIP3    H160766   1.919   4.488   2.708  1.1618 -0.4530 -0.1653
13117TIP3    H260767   1.986   4.617   2.751 -1.9398  1.1596  0.0953
13118TIP3   OH260768   1.229   2.906  14.327  0.1556  0.1550  0.0541
13118TIP3    H160769   1.140   2.884  14.355  0.0493 -2.2512 -1.8321
13118TIP3    H260770   1.285   2.874  14.397 -0.4006  0.9622  0.8876
13119TIP3   OH260771   5.211   3.972  12.577  0.3132 -0.0042  0.5251
13119TIP3    H160772   5.288   3.926  12.544 -0.0986 -1.6935  1.7601
13119TIP3    H260773   5.139   3.940  12.523 -0.0093 -1.0447  1.5299
13120TIP3   OH260774   6.426   5.945   1.142 -0.3059  0.2858  0.0278
13120TIP3    H160775   6.435   6.033   1.178 -3.3986  0.8430 -0.3274
13120TIP3    H260776   6.505   5.933   1.089  0.8144  2.3070  1.1184
13121TIP3   OH260777   6.145   4.797  14.378 -0.1379 -0.3402 -0.0821
13121TIP3    H160778   6.203   4.837  14.442 -2.7041  0.9111  1.6451
13121TIP3    H260779   6.077   4.755  14.430 -0.9197 -1.5901 -1.9826
13122TIP3   OH260780   6.709   5.251  15.361  0.1338 -0.5610 -0.0996
13122TIP3    H160781   6.628   5.262  15.410 -1.5093  1.7168 -3.0034
13122TIP3    H260782   6.707   5.160  15.332 -0.8703 -0.8049  0.6789
13123TIP3   OH260783   2.853   5.230   4.427  0.0595 -0.6868 -0.9407
13123TIP3    H160784   2.913   5.162   4.395  0.9801  0.1194 -1.0035
13123TIP3    H260785   2.807   5.259   4.348 -1.4464 -2.2485 -0.6837
13124TIP3   OH260786   4.257   4.209  12.000  0.0010  0.3710  0.1122
13124TIP3    H160787   4.179   4.254  11.968 -0.0715  0.3121  0.2044
13124TIP3    H260788   4.229   4.166  12.081 -0.6478 -2.0047 -1.2682
13125TIP3   OH260789   4.194   2.368  11.253  0.2131 -0.1772  0.3810
13125TIP3    H160790   4.135   2.348  11.180  0.3790 -0.0296  0.2054
13125TIP3    H260791   4.244   2.287  11.267 -0.9303 -0.7393  1.3863
13126TIP3   OH260792   5.132   2.617   0.241 -0.2556  0.5376  0.6431
13126TIP3    H160793   5.160   2.539   0.194  1.1566  1.0441  0.5981
13126TIP3    H260794   5.047   2.593   0.279  0.9121 -1.6410  2.0712
13127TIP3   OH260795   5.894   6.032   0.981  0.1352  0.9648 -0.2922
13127TIP3    H160796   5.861   5.942   0.984 -1.0262  1.4023  1.0476
13127TIP3    H260797   5.986   6.025   1.007 -0.0959  0.2177  0.3486
13128TIP3   OH260798   0.562   3.746   6.821 -0.1737  0.1640  0.1025
13128TIP3    H160799   0.498   3.757   6.751  0.4086 -0.7304 -0.5899
13128TIP3    H260800   0.641   3.788   6.787  0.1784 -0.4806  0.1215
13129TIP3   OH260801   5.953   4.709  14.567  0.2397  0.4719  0.4994
13129TIP3    H160802   5.874   4.660  14.549  0.7216  0.5461 -2.2618
13129TIP3    H260803   5.929   4.770  14.637 -2.2826  0.7677 -0.5308
13130TIP3   OH260804   2.885   0.420   4.774 -0.3696 -0.1721 -0.1271
13130TIP3    H160805   2.947   0.414   4.847 -0.2861 -0.1338 -0.1940
13130TIP3    H260806   2.856   0.511   4.775 -2.0227 -0.6589  1.2068
13131TIP3   OH260807   4.615   2.911  11.733 -0.5915  0.2098 -0.2066
13131TIP3    H160808   4.535   2.962  11.722 -0.1155  0.7192 -1.4282
13131TIP3    H260809   4.680   2.973  11.767 -0.1840  0.2867 -1.1002
13132TIP3   OH260810   0.470   0.547  12.597  0.0434  0.8055 -0.0271
13132TIP3    H160811   0.483   0.634  12.633  0.7238  1.3653 -1.5484
13132TIP3    H260812   0.383   0.551  12.557 -0.0848  0.6605  0.2346
13133TIP3   OH260813   6.203   2.396  15.949  0.0641  0.4997 -0.5345
13133TIP3    H160814   6.146   2.368  15.876 -0.8195  1.1153 -0.0951
13133TIP3    H260815   6.291   2.391  15.913 -0.2968 -0.0123 -1.3913
13134TIP3   OH260816   2.168   6.257  11.481  0.3353 -0.0458  0.2631
13134TIP3    H160817   2.231   6.188  11.500 -0.2545  0.0670  3.0941
13134TIP3    H260818   2.171   6.314  11.557 -1.8345  1.0027 -0.3484
13135TIP3   OH260819   2.583   2.275  15.558 -0.0899  0.6484  0.2725
13135TIP3    H160820   2.572   2.209  15.626  2.3221  0.1885  0.3248
13135TIP3    H260821   2.592   2.224  15.477 -0.8449  1.0777 -0.0883
13136TIP3   OH260822   1.717   1.743   2.765 -0.4294 -0.6291 -0.6145
13136TIP3    H160823   1.681   1.661   2.799 -1.8269 -0.9381 -2.6612
13136TIP3    H260824   1.695   1.808   2.831 -0.9343 -1.5757  0.1831
13137TIP3   OH260825   4.733   3.778   4.309 -0.6475 -0.7082 -0.4955
13137TIP3    H160826   4.793   3.796   4.236  1.0098 -0.4069  0.9007
13137TIP3    H260827   4.646   3.787   4.270  0.1034  2.4491 -1.7917
13138TIP3   OH260828   0.401   4.510   1.942  0.4113 -0.1136 -0.1173
13138TIP3    H160829   0.355   4.593   1.952  1.1051  0.2623  0.0118
13138TIP3    H260830   0.494   4.534   1.938  0.7711 -1.0177  1.7579
13139TIP3   OH260831   1.073   1.478   1.928  0.6661  0.1418 -0.1706
13139TIP3    H160832   1.005   1.421   1.963  1.3090  0.1195  1.0960
13139TIP3    H260833   1.114   1.426   1.859  0.1060 -0.2533 -0.2121
13140TIP3   OH260834   6.545   0.339   4.115  0.1386 -0.1908  0.1067
13140TIP3    H160835   6.534   0.430   4.144 -0.1900  0.4522 -1.8857
13140TIP3    H260836   6.602   0.300   4.182 -2.6537  0.3678  3.0546
13141TIP3   OH260837   1.395   3.303   4.616  0.9960  0.2432 -0.0410
13141TIP3    H160838   1.456   3.229   4.624 -0.4909 -0.9990  0.3282
13141TIP3    H260839   1.319   3.277   4.667  0.5564  2.2203  0.3896
13142TIP3   OH260840   3.871   4.749  16.550  0.2394 -0.5295 -0.0893
13142TIP3    H160841   3.893   4.832  16.509  0.6506 -0.5496  0.0914
13142TIP3    H260842   3.781   4.732  16.521  0.2426 -0.1528 -0.3352
13143TIP3   OH260843   5.526   5.778  12.286  0.2135 -0.0882  0.0647
13143TIP3    H160844   5.547   5.824  12.367 -0.0295  1.6037 -0.7779
13143TIP3    H260845   5.574   5.696  12.291  0.9873  0.4214  1.4789
13144TIP3   OH260846   0.595   1.546   4.792  0.3498  0.4216 -0.3923
13144TIP3    H160847   0.610   1.510   4.705 -0.1156  1.5977 -0.9778
13144TIP3    H260848   0.619   1.639   4.785  0.3797  0.5253  0.7539
13145TIP3   OH260849   6.434   2.706   0.303 -0.1205  0.1493 -0.2917
13145TIP3    H160850   6.365   2.699   0.237  0.2837  1.6181 -0.9270
13145TIP3    H260851   6.394   2.675   0.384 -0.8364 -1.0706 -1.0858
13146TIP3   OH260852   4.122   3.781  14.666  0.1029 -0.2578  0.2474
13146TIP3    H160853   4.206   3.744  14.637  0.6150  1.9105 -1.2757
13146TIP3    H260854   4.058   3.744  14.605  0.1116 -1.0250  0.6920
13147TIP3   OH260855   5.821   2.911  11.501  0.3829 -0.2485 -0.5437
13147TIP3    H160856   5.855   2.929  11.414  0.5155 -0.1229 -0.4679
13147TIP3    H260857   5.735   2.873  11.487 -0.2030  1.0872 -0.6938
13148TIP3   OH260858   4.846   4.805  16.698  0.4650 -0.5003  0.1546
13148TIP3    H160859   4.849   4.854  16.780  0.8008 -0.2745  0.0073
13148TIP3    H260860   4.882   4.719  16.720 -3.4012 -2.0418  1.3214
13149TIP3   OH260861   4.733   4.976   2.338 -0.3390  0.0784 -0.5362
13149TIP3    H160862   4.785   5.016   2.269 -0.9974  0.2847 -0.9246
13149TIP3    H260863   4.797   4.947   2.403  0.2341  0.5715 -0.8717
13150TIP3   OH260864   1.567   3.951  11.742  0.0984  0.8585 -0.0294
13150TIP3    H160865   1.495   3.960  11.679  0.7990  0.5353 -0.9083
13150TIP3    H260866   1.636   4.008  11.707  0.7170  0.2137  0.1167
13151TIP3   OH260867   2.865   4.653  13.074 -0.2733 -0.2364  0.2876
13151TIP3    H160868   2.809   4.617  13.143  0.2082 -2.1738 -0.2578
13151TIP3    H260869   2.807   4.710  13.023 -1.4517 -1.1959  0.4944
13152TIP3   OH260870   0.611   5.415   5.313  0.0247  0.3201 -0.5366
13152TIP3    H160871   0.542   5.372   5.363  0.4210  1.3011  0.9287
13152TIP3    H260872   0.615   5.504   5.349  0.5673  0.9559 -2.1057
13153TIP3   OH260873   2.997   4.712  10.944 -0.0820  0.5066 -0.3894
13153TIP3    H160874   2.957   4.687  10.860  1.8811  0.7583 -1.4633
13153TIP3    H260875   3.079   4.662  10.947  1.0797  2.3501  0.1784
13154TIP3   OH260876   2.389   2.296   6.710 -0.3450  0.1649 -0.2618
13154TIP3    H160877   2.457   2.337   6.764 -0.4656  0.7277 -0.5287
13154TIP3    H260878   2.332   2.368   6.684 -0.1516 -0.0413 -1.3355
13155TIP3   OH260879   0.098   2.082  11.344  0.6213 -0.2861  0.6527
13155TIP3    H160880   0.029   2.024  11.312 -1.6948  2.9440 -0.6989
13155TIP3    H260881   0.056   2.167  11.356  3.7795  1.2198  2.5626
13156TIP3   OH260882   0.284   2.899  14.784 -0.7895  0.0574 -0.1822
13156TIP3    H160883   0.378   2.898  14.802 -0.6977  0.1214 -0.6530
13156TIP3    H260884   0.273   2.837  14.712 -1.1009  0.0944 -0.1681
13157TIP3   OH260885   2.183   0.974  12.944 -0.1231  0.2257  0.7096
13157TIP3    H160886   2.104   0.933  12.977 -0.8005  1.1580  0.2804
13157TIP3    H260887   2.221   0.909  12.885 -0.2825 -0.4196  1.2996
13158TIP3   OH260888   4.268   5.150   1.323  0.5214 -0.0419 -0.4287
13158TIP3    H160889   4.353   5.167   1.281  0.6573 -0.2246 -0.2321
13158TIP3    H260890   4.204   5.195   1.268  0.7485  0.1031 -0.5741
13159TIP3   OH260891   4.928   0.979  11.866 -0.3177  0.1040  0.3970
13159TIP3    H160892   5.020   0.957  11.882 -0.7365 -1.0560  1.3721
13159TIP3    H260893   4.880   0.899  11.889 -1.4361 -0.0485 -2.0788
13160TIP3   OH260894   1.007   6.295   5.095 -0.4075 -0.0185  0.0694
13160TIP3    H160895   1.010   6.232   5.168  0.6342  0.5808  0.5638
13160TIP3    H260896   0.919   6.284   5.058 -0.0304 -2.2510 -0.2949
13161TIP3   OH260897   4.820   6.752   2.562  0.1237 -0.4122  0.5234
13161TIP3    H160898   4.778   6.822   2.612  0.1328  0.4900 -0.6630
13161TIP3    H260899   4.774   6.752   2.478  0.9399 -0.9881  0.0585
13162TIP3   OH260900   0.873   4.856  16.572 -0.3635 -0.3699  0.7381
13162TIP3    H160901   0.909   4.924  16.515 -0.4013 -1.0319 -0.1020
13162TIP3    H260902   0.900   4.881  16.660 -0.8817  1.0374  0.5116
13163TIP3   OH260903   3.714   4.461  16.328  0.4075 -0.0901  0.0504
13163TIP3    H160904   3.741   4.544  16.287  1.2207  0.1571  1.0255
13163TIP3    H260905   3.742   4.471  16.419  0.0740 -1.2557  0.2834
13164TIP3   OH260906   2.424   0.504  16.614  0.3812  0.8085  0.2972
13164TIP3    H160907   2.504   0.460  16.640  0.7612  1.1100 -0.3179
13164TIP3    H260908   2.449   0.596  16.604  0.0821  0.8334 -0.3518
13165TIP3   OH260909   0.034   6.216  17.296  0.0612 -0.0498  0.1222
13165TIP3    H160910  -0.046   6.263  17.271 -0.1440 -0.9368 -0.9377
13165TIP3    H260911   0.018   6.126  17.270  0.5394 -0.7047  1.9495
13166TIP3   OH260912   0.175   3.526   3.524 -0.0285  0.1147 -0.1639
13166TIP3    H160913   0.167   3.442   3.479 -0.6137 -0.6851  1.3618
13166TIP3    H260914   0.258   3.520   3.572 -0.1848  0.3019  0.1360
13167TIP3   OH260915   0.135   4.582  14.694  0.2948 -0.3131  0.5334
13167TIP3    H160916   0.060   4.606  14.639  0.3023  0.0453  0.6749
13167TIP3    H260917   0.142   4.654  14.757  1.1078 -0.0551  0.1638
13168TIP3   OH260918   2.820   2.744   0.447  0.1555 -0.0629  0.4482
13168TIP3    H160919   2.815   2.770   0.539  0.4344 -0.6055  0.6191
13168TIP3    H260920   2.913   2.730   0.431  0.2147  0.9032 -0.1710
13169TIP3   OH260921   5.047   3.564  12.594  0.3765 -0.1731 -0.4200
13169TIP3    H160922   5.018   3.647  12.558  2.0677  0.2731 -0.8492
13169TIP3    H260923   5.000   3.555  12.677  0.3941  1.3596 -0.2236
13170TIP3   OH260924   0.903   5.934  14.534  0.1604  0.7799  0.4126
13170TIP3    H160925   0.965   5.864  14.510 -0.2980  0.8686 -1.1040
13170TIP3    H260926   0.953   5.989  14.595  1.4430  0.6213 -0.4477
13171TIP3   OH260927   1.630   3.703  15.853 -0.4652 -0.8880  0.4273
13171TIP3    H160928   1.651   3.610  15.863 -0.5643 -0.8438  1.0577
13171TIP3    H260929   1.682   3.730  15.777  1.7221 -0.8115  1.8396
13172TIP3   OH260930   1.181   2.924  12.644 -0.5017 -0.0237  0.6923
13172TIP3    H160931   1.147   2.911  12.733 -0.1831 -2.6276  0.5123
13172TIP3    H260932   1.275   2.911  12.653 -0.6025 -1.5796 -0.1812
13173TIP3   OH260933   5.678   3.852  11.980  0.0039  0.3248 -0.4375
13173TIP3    H160934   5.642   3.930  12.022  0.2896  0.9711 -1.3594
13173TIP3    H260935   5.736   3.814  12.046 -0.6538  0.5093  0.2568
13174TIP3   OH260936   1.697   6.506  14.896 -0.1562 -0.9395 -0.2266
13174TIP3    H160937   1.770   6.562  14.872  0.1534 -0.9732  0.6016
13174TIP3    H260938   1.620   6.563  14.891 -0.0556 -0.8640 -0.9470
13175TIP3   OH260939   5.649   1.529   3.599  0.1017 -0.4663 -0.7764
13175TIP3    H160940   5.670   1.622   3.586 -1.3705  0.2261  1.1282
13175TIP3    H260941   5.719   1.482   3.556  1.7415  1.5635 -0.5003
13176TIP3   OH260942   5.684   0.724  12.948  0.6183  0.1831 -0.6005
13176TIP3    H160943   5.710   0.703  12.859  0.5697 -0.4008 -0.4829
13176TIP3    H260944   5.718   0.651  13.000 -1.9656 -1.0789 -0.5377
13177TIP3   OH260945   5.515   2.229   5.456 -0.3610  0.8050  1.0244
13177TIP3    H160946   5.541   2.319   5.434  0.6922  0.1622 -0.5834
13177TIP3    H260947   5.432   2.216   5.411  0.9211  0.0868 -1.3810
13178TIP3   OH260948   0.376   5.123  13.327 -0.2547 -0.3112 -0.7602
13178TIP3    H160949   0.388   5.217  13.313  1.5028 -0.3820  0.0160
13178TIP3    H260950   0.453   5.082  13.287 -1.3204 -1.4913 -1.6703
13179TIP3   OH260951   0.459   2.496  13.143 -0.2978  0.4470  0.6005
13179TIP3    H160952   0.369   2.502  13.177 -0.4428  0.3028  0.2450
13179TIP3    H260953   0.455   2.539  13.057 -0.3341 -0.7383 -0.0043
13180TIP3   OH260954   6.653   6.222   2.591  0.1723 -0.0113 -0.3936
13180TIP3    H160955   6.602   6.299   2.615  2.5076  0.9313  2.1383
13180TIP3    H260956   6.681   6.239   2.501 -0.9110  1.2044 -0.5293
13181TIP3   OH260957   3.144   6.430  16.818  0.1640  0.1158  0.3123
13181TIP3    H160958   3.229   6.396  16.790  1.6767  1.1323  3.2282
13181TIP3    H260959   3.079   6.374  16.775  2.2618 -0.6861 -2.0279
13182TIP3   OH260960   2.787   4.767  17.151 -0.1880  0.2209  0.0361
13182TIP3    H160961   2.701   4.745  17.187 -0.1107  1.9235  1.3924
13182TIP3    H260962   2.768   4.831  17.081 -0.3174 -2.8712 -3.0291
13183TIP3   OH260963   5.812   4.118   3.094  0.2407 -0.3377 -0.2514
13183TIP3    H160964   5.906   4.132   3.101  0.7721 -3.4930  0.0915
13183TIP3    H260965   5.785   4.175   3.021  2.4060  0.5147 -0.4645
13184TIP3   OH260966   5.450   2.758  12.745 -0.4190  0.1290  0.1932
13184TIP3    H160967   5.447   2.809  12.665 -0.3031  1.2561  0.8944
13184TIP3    H260968   5.531   2.708  12.739 -0.4061  0.2136 -0.3766
13185TIP3   OH260969   2.847   5.980   3.748  0.2163 -0.3138  0.0434
13185TIP3    H160970   2.902   6.022   3.682  0.6368 -1.5771 -0.4472
13185TIP3    H260971   2.840   5.889   3.719  1.1856 -1.1459  2.2044
13186TIP3   OH260972   1.971   3.148   2.097  0.0206  1.1244 -0.1419
13186TIP3    H160973   2.001   3.140   2.006  1.5588  3.6630  0.0390
13186TIP3    H260974   1.912   3.224   2.096 -0.9227  0.4327  0.7966
13187TIP3   OH260975   1.563   4.245  14.392  0.2642  0.4700  0.5597
13187TIP3    H160976   1.492   4.275  14.335  0.5627 -0.2073 -0.1759
13187TIP3    H260977   1.635   4.227  14.332  0.8192  0.4460  1.2333
13188TIP3   OH260978   2.632   0.312  12.885  0.3237  0.0195  0.6448
13188TIP3    H160979   2.685   0.376  12.932  0.4839 -0.9030  1.7721
13188TIP3    H260980   2.541   0.338  12.900  0.3851 -0.0998  1.2233
13189TIP3   OH260981   0.008   4.377  11.147 -0.3418  0.4561 -0.4718
13189TIP3    H160982   0.052   4.301  11.111 -0.7477  0.2538 -0.5426
13189TIP3    H260983   0.078   4.442  11.158  0.1198 -0.1458  0.2108
13190TIP3   OH260984   6.093   0.002   4.157 -0.0325  0.1607 -0.0399
13190TIP3    H160985   6.180  -0.019   4.123  0.3191  0.4215  0.6770
13190TIP3    H260986   6.097   0.095   4.180 -0.2188 -0.0299  0.8058
13191TIP3   OH260987   3.465   4.714   4.977  0.0524 -0.4176 -0.8998
13191TIP3    H160988   3.506   4.801   4.973  1.0477 -0.8988 -1.7849
13191TIP3    H260989   3.520   4.664   5.037 -1.4458  0.0039  0.8726
13192TIP3   OH260990   5.140   5.068   0.786  0.0477 -0.0708 -0.0066
13192TIP3    H160991   5.071   5.124   0.821  0.9196  0.3356  1.1499
13192TIP3    H260992   5.171   5.018   0.862  1.3819  0.1464 -0.3753
13193TIP3   OH260993   1.150   4.139  14.116  0.1685 -0.2976  0.9254
13193TIP3    H160994   1.139   4.229  14.086  1.6688  0.0393  1.2927
13193TIP3    H260995   1.157   4.146  14.211 -0.2240 -0.8620  0.9998
13194TIP3   OH260996   2.416   0.762   3.250  0.3124  0.1162 -0.3116
13194TIP3    H160997   2.507   0.749   3.222  0.1264 -2.8121  0.1941
13194TIP3    H260998   2.409   0.857   3.263  2.8584  0.6058 -1.7293
13195TIP3   OH260999   5.151   6.433  16.329 -0.3517 -0.1734 -0.4235
13195TIP3    H161000   5.221   6.378  16.363 -2.0629 -1.2426  1.5664
13195TIP3    H261001   5.074   6.376  16.327 -1.5601  1.4017 -0.9517
13196TIP3   OH261002   3.967   6.700  11.467  0.1064 -0.1168 -0.0755
13196TIP3    H161003   3.970   6.656  11.382  0.2664 -0.0136 -0.1257
13196TIP3    H261004   4.027   6.774  11.457 -0.3472  0.2535 -0.0753
13197TIP3   OH261005   1.227   3.226  15.338  0.2386 -0.0767  0.1707
13197TIP3    H161006   1.154   3.225  15.276  1.1173 -0.9345 -0.8917
13197TIP3    H261007   1.256   3.135  15.343  1.5335  0.3165  0.1891
13198TIP3   OH261008   4.345   3.156   1.053 -0.1265  0.5199  0.0839
13198TIP3    H161009   4.290   3.209   1.110  1.0144  1.0889  0.7074
13198TIP3    H261010   4.298   3.152   0.970 -1.7795 -0.2323  1.0016
13199TIP3   OH261011   3.238   2.292   2.865 -0.3129  0.6859  0.7371
13199TIP3    H161012   3.276   2.364   2.916 -1.2650  0.3153  2.0193
13199TIP3    H261013   3.300   2.220   2.876  1.1771  1.5548 -1.3984
13200TIP3   OH261014   5.944   6.293  13.256  0.4555  0.0700 -0.3232
13200TIP3    H161015   5.978   6.374  13.293 -0.0498 -0.1940  0.7643
13200TIP3    H261016   5.897   6.320  13.177  1.0440  0.7177 -0.4643
13201TIP3   OH261017   6.180   6.546   2.702  0.2237  0.4855  0.4762
13201TIP3    H161018   6.172   6.590   2.787  1.1662 -0.3450  1.0119
13201TIP3    H261019   6.163   6.615   2.638  0.8504  1.4417  1.3090
13202TIP3   OH261020   3.890   6.234   5.895  0.1705 -0.2221  0.3896
13202TIP3    H161021   3.892   6.149   5.850  2.6891  0.8981 -1.8976
13202TIP3    H261022   3.848   6.293   5.833  1.2672  0.8139  0.5959
13203TIP3   OH261023   0.605   3.236  16.522  0.0841 -0.6729  0.8085
13203TIP3    H161024   0.631   3.143  16.524  1.1487 -0.5355 -1.8724
13203TIP3    H261025   0.626   3.268  16.609  0.2017 -2.8193  1.6482
13204TIP3   OH261026   1.175   2.630  13.122  0.2552 -0.4904 -0.4685
13204TIP3    H161027   1.208   2.566  13.185 -0.8578 -1.7365 -1.1010
13204TIP3    H261028   1.158   2.709  13.175  0.2756 -1.1805  0.6034
13205TIP3   OH261029   0.565   4.863   3.038  0.3175 -0.4506  0.0843
13205TIP3    H161030   0.637   4.922   3.062  1.1570 -1.1463 -0.6540
13205TIP3    H261031   0.567   4.795   3.106 -0.0077 -0.1822  0.3696
13206TIP3   OH261032   6.670   2.608   5.275  0.4772 -0.2300  0.5705
13206TIP3    H161033   6.673   2.534   5.215  1.7868 -0.3561  0.7589
13206TIP3    H261034   6.647   2.683   5.219  1.0630 -0.4542  0.0083
13207TIP3   OH261035   4.690   0.910   5.740 -0.0439  0.5466 -0.4717
13207TIP3    H161036   4.659   0.828   5.700 -0.5810  0.4748  0.0909
13207TIP3    H261037   4.647   0.979   5.690  0.5170  0.5041 -1.0385
13208TIP3   OH261038   4.317   2.657   5.903  0.2491  0.1682 -0.6669
13208TIP3    H161039   4.359   2.576   5.874  2.9993  0.2922  2.3526
13208TIP3    H261040   4.254   2.628   5.970  2.1295  0.4367  1.3416
13209TIP3   OH261041   0.486   6.149   1.783 -0.1976  0.6604  0.3813
13209TIP3    H161042   0.399   6.142   1.744 -0.2569  0.0975  0.6137
13209TIP3    H261043   0.489   6.079   1.848  0.1246  1.2026  0.9592
13210TIP3   OH261044   0.083   0.004  14.510  0.3214  0.3787  0.2105
13210TIP3    H161045   0.076  -0.034  14.598  0.8841 -1.7637 -0.6237
13210TIP3    H261046   0.164  -0.033  14.474 -0.6970 -0.0201 -1.7926
13211TIP3   OH261047   3.819   1.631   0.766 -0.8975  0.2688 -0.2225
13211TIP3    H161048   3.736   1.590   0.741 -1.0728  1.3522 -1.5064
13211TIP3    H261049   3.880   1.604   0.697 -0.0467 -0.8371  0.9124
13212TIP3   OH261050   2.072   3.598  16.144  0.3631 -0.5064 -0.1617
13212TIP3    H161051   1.989   3.550  16.146  0.8276 -1.3816  2.4676
13212TIP3    H261052   2.138   3.531  16.165  1.4030  0.6798  0.4702
13213TIP3   OH261053   2.164   4.505  15.570 -0.2147  0.0093 -0.3172
13213TIP3    H161054   2.169   4.429  15.628  2.4536 -0.7244 -1.3117
13213TIP3    H261055   2.142   4.469  15.485  0.2342  0.4458 -0.6278
13214TIP3   OH261056   3.546   0.664   2.769  0.5128  0.1547  0.4737
13214TIP3    H161057   3.609   0.719   2.723 -0.7152  1.4054  0.2150
13214TIP3    H261058   3.543   0.583   2.717  1.2070  0.4396 -0.0284
13215TIP3   OH261059   2.356   3.045  11.894  0.1950 -0.5278 -0.2492
13215TIP3    H161060   2.349   3.100  11.816 -1.1761  1.3665  1.0967
13215TIP3    H261061   2.268   3.007  11.904  0.6776 -1.6790 -0.2391
13216TIP3   OH261062   6.188   6.638   1.170  0.3170 -0.1806 -0.2678
13216TIP3    H161063   6.110   6.669   1.215  0.6695  1.1163 -0.4918
13216TIP3    H261064   6.157   6.566   1.115 -0.9074  0.8652 -1.0094
13217TIP3   OH261065   5.334   2.678   3.906  0.5371  0.1018 -0.0811
13217TIP3    H161066   5.284   2.596   3.906 -0.0626  0.4591  0.0802
13217TIP3    H261067   5.410   2.660   3.961 -0.9119  0.4243  2.1484
13218TIP3   OH261068   6.583   2.765   4.147 -0.1006  0.1001  0.0050
13218TIP3    H161069   6.518   2.711   4.103  0.0346  0.8756 -1.1681
13218TIP3    H261070   6.542   2.790   4.230 -1.8385  1.6376 -1.2462
13219TIP3   OH261071   2.034   6.105   1.934 -0.1883 -0.4787 -0.0270
13219TIP3    H161072   1.948   6.065   1.948 -0.7463  0.7032  0.0839
13219TIP3    H261073   2.035   6.125   1.840 -0.9901  1.5408  0.3508
13220TIP3   OH261074   0.939   1.168   0.788  0.4321  0.3282  0.1600
13220TIP3    H161075   0.987   1.165   0.871  1.6608 -1.2247 -0.5695
13220TIP3    H261076   1.007   1.167   0.720 -0.4799  2.8847 -0.9324
13221TIP3   OH261077   0.930   4.057  12.760  0.5008 -0.0649  0.0279
13221TIP3    H161078   0.915   3.964  12.740  0.8842 -0.0734 -0.2192
13221TIP3    H261079   0.986   4.088  12.689 -0.9041  0.7566 -0.7769
13222TIP3   OH261080   3.109   6.133   1.142  0.3324 -0.0783  0.2535
13222TIP3    H161081   3.120   6.042   1.170  2.3856 -0.3501 -1.2228
13222TIP3    H261082   3.125   6.131   1.047  3.2313  2.1717  0.5686
13223TIP3   OH261083   2.212   3.097   5.325 -0.1618  0.7447  0.5474
13223TIP3    H161084   2.170   3.124   5.243 -0.6404  0.6653  0.7614
13223TIP3    H261085   2.166   3.146   5.393 -1.4622 -1.0018  1.0140
13224TIP3   OH261086   5.677   3.186   4.933 -0.3917  0.2600 -0.5384
13224TIP3    H161087   5.662   3.277   4.959  0.0079  0.5164 -1.1858
13224TIP3    H261088   5.762   3.188   4.890  0.5299 -0.7564  1.1095
13225TIP3   OH261089   5.802   0.243   5.890 -0.5468 -0.0667 -0.6117
13225TIP3    H161090   5.883   0.204   5.923 -0.4385 -0.5603 -1.4038
13225TIP3    H261091   5.762   0.285   5.965 -0.9970 -2.2883  0.4665
13226TIP3   OH261092   2.480   2.124  13.561 -0.2900  0.3573 -0.2323
13226TIP3    H161093   2.573   2.124  13.583 -0.6232 -2.6382  1.7841
13226TIP3    H261094   2.439   2.175  13.631 -0.3210  0.2897 -0.2012
13227TIP3   OH261095   1.797   5.492   5.798 -0.0859 -0.4383 -0.2298
13227TIP3    H161096   1.828   5.403   5.811 -0.2598 -0.4451  0.1638
13227TIP3    H261097   1.877   5.545   5.793  0.0220 -0.6356 -0.6529
13228TIP3   OH261098   5.834   5.192   4.854 -0.4642 -0.0601  0.4132
13228TIP3    H161099   5.929   5.179   4.847 -0.2215  1.4383  0.4113
13228TIP3    H261100   5.808   5.143   4.931  0.3217 -0.4920  0.4135
13229TIP3   OH261101   4.553   6.439   0.070  0.9006 -0.5597  0.6482
13229TIP3    H161102   4.507   6.392   0.000  0.8240 -1.2283  1.1351
13229TIP3    H261103   4.483   6.468   0.129  0.7119  2.2226 -0.8129
13230TIP3   OH261104   5.382   0.467  13.949  0.7039 -0.3825 -0.3193
13230TIP3    H161105   5.430   0.549  13.938 -1.0105  0.7172  0.0393
13230TIP3    H261106   5.344   0.473  14.036  2.1128 -2.4693  0.5315
13231TIP3   OH261107   4.807   3.531  13.304 -0.1160 -0.5824  0.2853
13231TIP3    H161108   4.820   3.469  13.376  0.4343 -1.9978 -0.9686
13231TIP3    H261109   4.725   3.503  13.263  0.4227 -0.8783 -0.6339
13232TIP3   OH261110   4.510   1.122  17.373  0.5115  0.2841  0.5085
13232TIP3    H161111   4.502   1.139  17.279 -2.2638 -0.0294  0.6044
13232TIP3    H261112   4.500   1.027  17.382 -1.8337  0.5349  1.2363
13233TIP3   OH261113   2.563   3.303   1.770 -0.1192 -0.2450  0.0166
13233TIP3    H161114   2.592   3.211   1.770  1.2210  0.1360  1.5945
13233TIP3    H261115   2.619   3.346   1.835 -1.2798  1.5298 -0.0935
13234TIP3   OH261116   6.423   2.902  14.759 -0.3828  0.2872 -0.0428
13234TIP3    H161117   6.430   2.982  14.707 -0.3051 -0.0240 -0.5207
13234TIP3    H261118   6.334   2.872  14.745 -0.7772  0.8937  1.0488
13235TIP3   OH261119   0.589   2.535   2.608  0.2685 -0.0994 -0.3617
13235TIP3    H161120   0.501   2.533   2.646 -1.4608 -1.3334 -3.8933
13235TIP3    H261121   0.623   2.447   2.621  2.6997  1.2305  4.0719
13236TIP3   OH261122   4.233   3.864  10.700 -0.3360 -0.9715  0.0955
13236TIP3    H161123   4.314   3.883  10.748  0.5720 -1.4582 -1.1588
13236TIP3    H261124   4.175   3.937  10.720  0.6879 -0.2282  0.4543
13237TIP3   OH261125   2.459   1.235  12.476  0.0916  0.2120 -0.1303
13237TIP3    H161126   2.438   1.204  12.564  0.4072  1.0294  0.2412
13237TIP3    H261127   2.519   1.169  12.441  0.5039  0.2253  0.5290
13238TIP3   OH261128   5.507   2.285   2.717 -0.1219  0.0230  0.3246
13238TIP3    H161129   5.504   2.318   2.806 -0.1626  1.2875 -0.1252
13238TIP3    H261130   5.600   2.266   2.701 -0.0703  0.1133  0.5190
13239TIP3   OH261131   2.743   4.986  16.047  0.1597  0.0256  0.4485
13239TIP3    H161132   2.807   5.056  16.055 -0.7431  1.1159 -1.2803
13239TIP3    H261133   2.730   4.976  15.953 -1.8834 -0.4452  0.7347
13240TIP3   OH261134   3.096   4.756   0.095 -0.1646 -0.3239 -0.0185
13240TIP3    H161135   3.096   4.696   0.170 -1.4353 -0.1302  0.1559
13240TIP3    H261136   3.080   4.700   0.019  0.8571 -0.4849 -0.1276
13241TIP3   OH261137   2.570   3.436  15.014 -0.2795  0.4591  0.0323
13241TIP3    H161138   2.571   3.409  15.106  1.1712 -0.2855 -0.1796
13241TIP3    H261139   2.533   3.524  15.016  0.1957  0.6542  1.3942
13242TIP3   OH261140   3.231   1.796  11.787 -0.9197  0.1200  0.0652
13242TIP3    H161141   3.268   1.819  11.873 -2.3161  0.8681  0.5070
13242TIP3    H261142   3.254   1.704  11.775  1.0273  0.5185  0.3040
13243TIP3   OH261143   1.137   0.026   3.039 -0.0493  0.7938  0.2448
13243TIP3    H161144   1.151  -0.021   3.122  0.0554 -1.8076 -1.1448
13243TIP3    H261145   1.042   0.037   3.034 -0.0382  1.1924  0.8194
13244TIP3   OH261146   5.773   1.339  12.712 -0.2002  0.2382 -0.3860
13244TIP3    H161147   5.756   1.428  12.741 -2.5659 -0.0475 -0.6427
13244TIP3    H261148   5.755   1.341  12.618 -0.0190 -0.4523 -0.4404
13245TIP3   OH261149   5.635   3.378   6.335 -0.1422 -0.8080  0.1018
13245TIP3    H161150   5.633   3.470   6.360  1.9501 -0.3675 -1.0950
13245TIP3    H261151   5.572   3.371   6.264  0.9096  0.1304 -0.9603
13246TIP3   OH261152   1.815   0.409  14.617  0.7838  0.3113 -0.3433
13246TIP3    H161153   1.783   0.452  14.696 -0.3681  0.9077 -1.0946
13246TIP3    H261154   1.776   0.460  14.545  1.7232 -0.2635 -1.2959
13247TIP3   OH261155   1.966   5.559  15.554  0.3389 -0.4754 -0.2047
13247TIP3    H161156   1.887   5.579  15.503  1.3244 -2.2977 -2.6302
13247TIP3    H261157   2.021   5.636  15.544 -1.1430  0.9308  1.7285
13248TIP3   OH261158   1.649   6.152  12.958 -0.6285 -0.0013  0.3111
13248TIP3    H161159   1.621   6.169  12.868  2.0893  0.3696 -0.5363
13248TIP3    H261160   1.616   6.228  13.007 -1.0320  0.4490 -0.6208
13249TIP3   OH261161   4.793   3.604   1.440 -0.2777  0.0059 -0.5532
13249TIP3    H161162   4.876   3.560   1.459  0.1912  1.1789  0.2102
13249TIP3    H261163   4.762   3.561   1.360  0.3740 -1.3877 -0.0949
13250TIP3   OH261164   1.234   3.906   3.350 -0.0707  0.0162 -0.3242
13250TIP3    H161165   1.312   3.918   3.295  1.1909  0.0676  1.3866
13250TIP3    H261166   1.259   3.839   3.412 -0.8630  1.0698  1.1984
13251TIP3   OH261167   3.169   4.623   2.142  0.3824  0.0175 -0.1734
13251TIP3    H161168   3.140   4.628   2.234  0.1186  1.7739 -0.3161
13251TIP3    H261169   3.099   4.665   2.093  0.9854 -0.0099 -1.0812
13252TIP3   OH261170   3.118   4.038   5.127  0.2282 -0.7001  0.4480
13252TIP3    H161171   3.132   3.999   5.214  0.5808 -0.5106  0.4777
13252TIP3    H261172   3.039   4.091   5.137  0.1283 -0.8757  0.5893
13253TIP3   OH261173   6.159   2.215  13.591  0.1336 -0.0249  0.7671
13253TIP3    H161174   6.084   2.268  13.565 -0.3454 -1.4744 -0.9950
13253TIP3    H261175   6.231   2.278  13.600 -0.6938  1.0587 -0.0224
13254TIP3   OH261176   2.933   6.461  13.463  0.3588 -0.4777 -0.0868
13254TIP3    H161177   3.024   6.461  13.494  0.6436  2.0950 -0.6633
13254TIP3    H261178   2.940   6.450  13.368  0.0065 -0.8246 -0.0766
13255TIP3   OH261179   5.354   2.545   5.482 -0.1115  0.4634  0.8619
13255TIP3    H161180   5.409   2.512   5.411  0.9417  4.1275 -0.2518
13255TIP3    H261181   5.267   2.554   5.443  0.3323  1.9036  0.1286
13256TIP3   OH261182   5.630   1.521   5.592  0.7335 -0.4031  0.3890
13256TIP3    H161183   5.680   1.447   5.627  1.1418 -0.3137 -0.0027
13256TIP3    H261184   5.689   1.596   5.597  0.8955 -0.4365 -0.7057
13257TIP3   OH261185   3.232   5.692  17.241  0.5483 -0.1774  0.7966
13257TIP3    H161186   3.232   5.777  17.284  3.2127 -0.5224  1.7125
13257TIP3    H261187   3.262   5.709  17.152  1.9028 -0.1930  1.2252
13258TIP3   OH261188   2.570   6.585  16.980 -0.0910 -0.6425 -0.0495
13258TIP3    H161189   2.651   6.540  16.959 -0.3285 -1.9106  1.5777
13258TIP3    H261190   2.505   6.516  16.988 -1.4661  0.3766 -1.6788
13259TIP3   OH261191   6.427   1.731   2.789  0.2408  0.0723 -0.1339
13259TIP3    H161192   6.479   1.692   2.719 -0.4960 -0.4633 -0.4019
13259TIP3    H261193   6.365   1.788   2.743 -2.1189 -2.3763 -0.2283
13260TIP3   OH261194   4.721   6.732  11.986 -0.4542  0.7621 -0.0095
13260TIP3    H161195   4.655   6.663  11.991  0.3735  0.0324  1.5444
13260TIP3    H261196   4.674   6.812  12.012 -1.3720  0.8033 -1.6509
13261TIP3   OH261197   1.267   2.205  17.164 -0.2186 -0.4122  0.0230
13261TIP3    H161198   1.261   2.300  17.148  0.1087 -0.5119 -0.7230
13261TIP3    H261199   1.298   2.169  17.082  0.3546 -1.0914  0.5243
13262TIP3   OH261200   3.733   4.390   2.560 -0.1362 -0.2134  1.0069
13262TIP3    H161201   3.770   4.346   2.637 -0.0432  1.0321  1.6991
13262TIP3    H261202   3.786   4.469   2.550 -0.2285 -0.3019 -0.2827
13263TIP3   OH261203   2.029   3.262  14.056 -0.1901 -0.9913 -0.1672
13263TIP3    H161204   1.998   3.183  14.101 -2.6128 -0.6789 -1.1190
13263TIP3    H261205   2.032   3.329  14.124 -1.6471 -1.0596 -0.0031
13264TIP3   OH261206   2.689   1.708  15.447  0.9273 -0.2931 -0.2474
13264TIP3    H161207   2.737   1.787  15.425 -0.7924  0.5607 -1.1245
13264TIP3    H261208   2.729   1.640  15.394  1.3183  0.3444 -0.7819
13265TIP3   OH261209   1.581   2.445  11.830 -0.2856 -0.0831 -0.1775
13265TIP3    H161210   1.559   2.410  11.744 -0.0615 -0.8723  0.0752
13265TIP3    H261211   1.500   2.485  11.861 -0.1846  0.8131 -1.0299
13266TIP3   OH261212   1.526   6.681  13.735  0.0280 -0.6002 -0.4272
13266TIP3    H161213   1.587   6.614  13.768 -0.1041 -0.4539  0.1283
13266TIP3    H261214   1.560   6.763  13.770  0.1090 -0.3837 -0.9971
13267TIP3   OH261215   3.499   2.486  17.249 -0.3161 -0.0196  0.6167
13267TIP3    H161216   3.584   2.444  17.236 -0.6317 -0.2157 -1.1053
13267TIP3    H261217   3.519   2.571  17.288  0.7421  0.1670 -0.2835
13268TIP3   OH261218   1.156   6.477  12.711 -0.3054 -0.0091 -0.5405
13268TIP3    H161219   1.246   6.504  12.729  0.5609 -1.6248 -2.1171
13268TIP3    H261220   1.160   6.436  12.625 -2.3387 -1.1279 -0.1664
13269TIP3   OH261221   6.583   2.162  13.608  0.1336  0.4195  0.0798
13269TIP3    H161222   6.538   2.088  13.650 -1.1526  0.5500 -1.0275
13269TIP3    H261223   6.668   2.126  13.583 -0.1777 -0.4632  0.2483
13270TIP3   OH261224   2.906   3.624   2.531 -0.3338  0.0477 -0.0775
13270TIP3    H161225   2.853   3.570   2.590 -4.0857  2.5643 -0.7864
13270TIP3    H261226   2.906   3.577   2.448 -0.4494 -0.5475  0.2538
13271TIP3   OH261227   2.157   6.241  12.507 -0.4082 -0.1733 -0.0586
13271TIP3    H161228   2.121   6.166  12.461  1.8438 -0.3817 -1.6566
13271TIP3    H261229   2.122   6.317  12.461 -0.7019 -0.2948 -0.0398
13272TIP3   OH261230   4.080   3.839  11.973  0.1451 -0.5684  0.1096
13272TIP3    H161231   3.989   3.814  11.966  0.4986 -1.6014 -0.9841
13272TIP3    H261232   4.101   3.879  11.888  0.2451  1.3526  0.9713
13273TIP3   OH261233   6.226   4.426   4.589  0.6338  0.4160  0.3972
13273TIP3    H161234   6.173   4.368   4.644 -0.9201  0.4556 -0.9697
13273TIP3    H261235   6.316   4.415   4.621 -0.2435  0.8002  3.2023
13274TIP3   OH261236   1.007   0.885   5.798 -0.0617 -0.5351 -0.4484
13274TIP3    H161237   1.034   0.920   5.883  1.1478 -0.1459 -0.9733
13274TIP3    H261238   1.075   0.821   5.776  1.1783  1.3081 -2.3465
13275TIP3   OH261239   4.129   3.716   6.003 -0.3691  0.6533 -0.2268
13275TIP3    H161240   4.049   3.769   6.004 -0.6958  0.1714 -0.7593
13275TIP3    H261241   4.127   3.671   5.919 -0.9900 -1.5741  0.9237
13276TIP3   OH261242   1.885   2.848  10.881 -0.6815 -0.0334  0.4765
13276TIP3    H161243   1.924   2.923  10.837 -1.1102 -1.3183 -2.3023
13276TIP3    H261244   1.937   2.836  10.960  0.5047  2.0680  0.0793
13277TIP3   OH261245   6.490   5.914   2.835  0.1440  0.6098 -0.4894
13277TIP3    H161246   6.469   5.994   2.884  0.4437  0.8138 -0.6960
13277TIP3    H261247   6.569   5.935   2.786  0.7638 -0.1125  0.1672
13278TIP3   OH261248   4.172   2.806   4.426  0.2480  0.3745 -0.4318
13278TIP3    H161249   4.135   2.876   4.372 -1.9490 -0.1282  0.2841
13278TIP3    H261250   4.178   2.845   4.514 -1.5015 -0.4276  0.0861
13279TIP3   OH261251   0.579   0.873   2.638  0.0320 -0.6103  0.2948
13279TIP3    H161252   0.509   0.815   2.668 -0.7015 -0.4611 -1.0391
13279TIP3    H261253   0.589   0.852   2.545  2.5684 -1.4364  0.6790
13280TIP3   OH261254   4.176   3.935   0.811  0.3795 -0.8581  0.1416
13280TIP3    H161255   4.185   3.900   0.900  0.1015  0.0946  0.5548
13280TIP3    H261256   4.195   4.028   0.820  2.2381 -1.0582 -1.1299
13281TIP3   OH261257   0.970   2.698   3.449 -0.4623  0.0698  0.1826
13281TIP3    H161258   0.907   2.712   3.379  1.7582  0.4284 -1.8714
13281TIP3    H261259   0.953   2.770   3.511 -2.6911 -0.4622  0.2578
13282TIP3   OH261260   0.599   2.599  13.370 -0.7696 -0.0633  0.3694
13282TIP3    H161261   0.600   2.686  13.330 -0.4003 -0.9525 -1.6686
13282TIP3    H261262   0.541   2.547  13.314  0.4792 -1.5995  0.4139
13283TIP3   OH261263   6.054   1.895  13.987 -0.2539  0.2448 -0.2774
13283TIP3    H161264   6.136   1.942  14.005 -1.9316  2.1499  3.6045
13283TIP3    H261265   6.027   1.927  13.901  1.6745  1.7756 -0.3976
13284TIP3   OH261266   4.040   3.051  11.582  0.6030  0.0415  0.4473
13284TIP3    H161267   3.967   3.059  11.521  1.5676 -0.8436 -0.8896
13284TIP3    H261268   4.015   2.979  11.641  0.5004 -0.4494 -0.1824
13285TIP3   OH261269   2.996   2.034   3.899 -0.4168  0.2085  0.0007
13285TIP3    H161270   2.909   2.031   3.861 -0.4127  0.1295 -0.0028
13285TIP3    H261271   2.985   2.081   3.981 -0.3901  0.5579 -0.1920
13286TIP3   OH261272   2.511   5.351   3.743  0.1624 -0.0223 -0.4604
13286TIP3    H161273   2.528   5.283   3.678  0.5757  0.4787 -0.8876
13286TIP3    H261274   2.597   5.374   3.777  0.0228  0.2686 -0.3032
13287TIP3   OH261275   2.629   5.135   5.450  0.2288  0.8319 -0.2056
13287TIP3    H161276   2.541   5.098   5.440  0.8243 -0.6849 -0.0360
13287TIP3    H261277   2.679   5.097   5.378  0.8449  1.4186 -0.0927
13288TIP3   OH261278   0.295   3.983  15.682  0.2577  0.3647  0.3108
13288TIP3    H161279   0.357   4.052  15.706 -0.3223  0.4439  1.6662
13288TIP3    H261280   0.210   4.027  15.678  0.1624  0.1121 -0.8135
13289TIP3   OH261281   1.330   1.310   0.681 -0.0574 -0.7949 -0.2246
13289TIP3    H161282   1.379   1.373   0.628  2.1029  0.4080  2.8421
13289TIP3    H261283   1.255   1.359   0.714  0.1100 -0.6533 -0.0454
13290TIP3   OH261284   6.587   2.938  13.032 -0.4093  0.2338 -0.6601
13290TIP3    H161285   6.534   2.864  13.061 -0.8889  0.9534  0.3299
13290TIP3    H261286   6.524   3.009  13.017  0.1334  0.7136 -0.7165
13291TIP3   OH261287   6.432   4.170  16.324  0.1328 -0.0395 -0.2611
13291TIP3    H161288   6.487   4.220  16.385  0.8825 -2.4320  1.1664
13291TIP3    H261289   6.383   4.110  16.380 -1.6488 -0.1044 -1.7900
13292TIP3   OH261290   4.783   1.379  16.868  0.0616 -0.3118 -0.0370
13292TIP3    H161291   4.831   1.297  16.858  0.1501 -0.3322  0.5548
13292TIP3    H261292   4.745   1.395  16.781  1.4178 -0.1142 -0.6074
13293TIP3   OH261293   4.810   5.264  12.529 -0.2241  0.0516 -0.3434
13293TIP3    H161294   4.720   5.276  12.497 -0.0298  1.2606 -0.4877
13293TIP3    H261295   4.819   5.170  12.539 -1.8978 -0.0403  0.7852
13294TIP3   OH261296   1.854   0.219  11.862 -0.2029  0.9094 -0.3495
13294TIP3    H161297   1.936   0.221  11.812  0.0623 -0.3850 -0.0030
13294TIP3    H261298   1.872   0.271  11.940  0.7646 -0.4902  0.3936
13295TIP3   OH261299   3.768   1.465  15.730 -0.1659  0.3240 -0.5660
13295TIP3    H161300   3.789   1.509  15.648 -1.4933  1.0531 -0.5462
13295TIP3    H261301   3.716   1.529  15.778  0.3432 -0.2021  0.7310
13296TIP3   OH261302   0.514   5.089  16.664 -0.1412  0.1164 -0.2166
13296TIP3    H161303   0.460   5.117  16.738 -0.4978 -1.7174  0.2637
13296TIP3    H261304   0.582   5.156  16.657 -2.8914  3.0474 -1.4378
13297TIP3   OH261305   2.680   2.618   2.435 -0.5920  0.2711 -0.3753
13297TIP3    H161306   2.753   2.650   2.487 -1.8772  1.7574  0.5833
13297TIP3    H261307   2.712   2.621   2.345  1.1334 -0.8715  0.1456
13298TIP3   OH261308   3.501   4.453  13.052  0.7555  0.4661 -0.6347
13298TIP3    H161309   3.582   4.404  13.067  0.4115  0.0849  0.0361
13298TIP3    H261310   3.528   4.530  13.001  1.8470  1.3286  1.1431
13299TIP3   OH261311   5.321   0.770  11.110 -0.3327 -0.2818  0.7725
13299TIP3    H161312   5.335   0.816  11.193 -0.5522 -0.8477  1.1290
13299TIP3    H261313   5.387   0.700  11.111 -0.0462 -0.0229  0.2672
13300TIP3   OH261314   4.683   6.645   5.049  0.7292  0.0140  0.2937
13300TIP3    H161315   4.675   6.706   4.976  1.0374  0.4342  0.6069
13300TIP3    H261316   4.595   6.611   5.062  0.9103 -1.1437 -1.1814
13301TIP3   OH261317   6.630   4.740  16.567 -0.5414 -0.1849 -0.3587
13301TIP3    H161318   6.615   4.786  16.650  0.7445  0.4082 -0.4339
13301TIP3    H261319   6.576   4.788  16.504  0.3306  0.8904 -0.3192
13302TIP3   OH261320   2.176   5.224   3.085  0.4824  0.3044 -0.8313
13302TIP3    H161321   2.220   5.168   3.149 -0.2551  0.4442 -0.1887
13302TIP3    H261322   2.246   5.253   3.027  1.0287 -0.4996 -0.5926
13303TIP3   OH261323   6.662   2.355   2.731  0.1733 -0.6074 -0.5552
13303TIP3    H161324   6.657   2.437   2.682  1.6624 -0.0819  0.1219
13303TIP3    H261325   6.575   2.315   2.719 -0.8234  1.3691 -0.3609
13304TIP3   OH261326   1.625   0.117  14.676  0.3699  0.4847 -0.2210
13304TIP3    H161327   1.635   0.129  14.581 -1.8630 -3.2219 -1.1082
13304TIP3    H261328   1.699   0.062  14.701  0.3966  0.6160 -0.0109
13305TIP3   OH261329   1.851   1.694   6.286  0.0163 -0.0312  0.2700
13305TIP3    H161330   1.784   1.763   6.278  1.5291  1.3895 -0.7431
13305TIP3    H261331   1.911   1.711   6.214  0.8599 -1.9976  0.4520
13306TIP3   OH261332   2.382   0.296   3.213 -0.1142  0.0447 -0.4253
13306TIP3    H161333   2.463   0.250   3.240  0.4175  0.9232 -0.4948
13306TIP3    H261334   2.413   0.379   3.177 -1.1146  0.8319  0.4845
13307TIP3   OH261335   3.824   5.364  17.130  0.4640  0.2709  0.5008
13307TIP3    H161336   3.791   5.421  17.060  1.3227  0.2761  0.0877
13307TIP3    H261337   3.748   5.313  17.157 -0.2708  1.4595  0.7290
13308TIP3   OH261338   1.927   3.469   5.147 -0.2475  0.0153  0.0702
13308TIP3    H161339   1.833   3.487   5.150 -0.4817 -1.2568  1.5072
13308TIP3    H261340   1.968   3.544   5.189 -0.6653  0.3080 -0.0449
13309TIP3   OH261341   0.822   4.922   3.509  0.1752  0.2956  0.3517
13309TIP3    H161342   0.884   4.861   3.551 -0.3707 -1.3163 -1.0781
13309TIP3    H261343   0.851   5.008   3.538  1.6442 -0.5529  1.6050
13310TIP3   OH261344   4.947   4.850  14.514 -0.4019 -0.1697  0.0489
13310TIP3    H161345   5.022   4.799  14.485 -0.2337  1.1096 -1.9619
13310TIP3    H261346   4.900   4.792  14.574  0.5900 -2.0903 -0.9422
13311TIP3   OH261347   2.299   1.060   3.027 -0.0917 -0.4926  0.0866
13311TIP3    H161348   2.320   0.983   3.081 -0.0325 -1.0277 -0.6822
13311TIP3    H261349   2.229   1.104   3.074  0.2108 -0.7393  0.7933
13312TIP3   OH261350   0.039   3.244   0.290 -0.2218  0.0779 -0.4504
13312TIP3    H161351  -0.042   3.290   0.313 -0.6188 -0.8741  0.1189
13312TIP3    H261352   0.108   3.291   0.336 -0.0115  2.5349 -2.9588
13313TIP3   OH261353   5.661   3.357   7.027 -0.4967 -0.7458  0.4670
13313TIP3    H161354   5.618   3.275   7.003  0.6311 -0.7051 -1.9861
13313TIP3    H261355   5.748   3.330   7.058  0.0961 -0.4895 -0.9105
13314TIP3   OH261356   2.475   4.275  13.128  0.0963 -0.3705  0.3614
13314TIP3    H161357   2.505   4.366  13.118  0.5709 -0.4319  1.1614
13314TIP3    H261358   2.463   4.265  13.223  1.6016 -1.6387  0.4416
13315TIP3   OH261359   6.162   1.652   0.834 -0.0321 -0.1934 -0.2019
13315TIP3    H161360   6.188   1.600   0.758  1.3553  1.6848 -1.0919
13315TIP3    H261361   6.067   1.662   0.825 -0.0070 -0.6984 -1.2044
13316TIP3   OH261362   4.573   5.283   0.242  0.3000 -0.2842  0.0551
13316TIP3    H161363   4.659   5.270   0.201  1.2971  2.8059  0.8755
13316TIP3    H261364   4.544   5.195   0.266  1.9779 -1.7202 -2.5988
13317TIP3   OH261365   3.029   2.156  16.482  0.1373  0.1036  0.2092
13317TIP3    H161366   3.030   2.246  16.448 -1.0155  0.3930  0.8720
13317TIP3    H261367   2.946   2.120  16.449  0.8112 -0.8808 -0.4380
13318TIP3   OH261368   1.658   5.309  11.443  0.0649 -0.0502  0.1902
13318TIP3    H161369   1.625   5.280  11.528  0.7025 -0.5237  0.2888
13318TIP3    H261370   1.581   5.336  11.395 -0.1584  1.9137  1.5389
13319TIP3   OH261371   5.347   1.134  13.481  0.6221 -0.6261 -0.2153
13319TIP3    H161372   5.277   1.090  13.529 -0.3566  1.7513  0.6869
13319TIP3    H261373   5.350   1.089  13.397 -1.6344 -1.1382 -0.0866
13320TIP3   OH261374   6.163   3.570  17.120  0.7887 -0.0766  0.2327
13320TIP3    H161375   6.189   3.582  17.029 -0.6433  1.1209 -0.0534
13320TIP3    H261376   6.214   3.634  17.169  0.3877  0.3973  0.0416
13321TIP3   OH261377   5.708   5.366  13.016 -0.4500 -0.3457 -0.2656
13321TIP3    H161378   5.773   5.359  13.086 -0.4481 -0.0246 -0.2298
13321TIP3    H261379   5.756   5.346  12.936 -0.3996 -0.4958 -0.1967
13322TIP3   OH261380   5.504   6.510   2.047  0.4122  0.2785 -0.2347
13322TIP3    H161381   5.422   6.474   2.082 -0.9060  0.5421 -2.8583
13322TIP3    H261382   5.570   6.483   2.112 -1.3839 -1.7811  0.9160
13323TIP3   OH261383   4.490   2.882  11.280 -0.2940 -0.6765  0.0445
13323TIP3    H161384   4.410   2.933  11.293 -2.1242 -3.5889  1.1800
13323TIP3    H261385   4.531   2.879  11.366 -0.8531 -2.0339  0.2862
13324TIP3   OH261386   5.150   6.717  16.031 -0.3916  0.0433  0.1779
13324TIP3    H161387   5.224   6.675  16.074  0.2902 -0.5446 -1.4974
13324TIP3    H261388   5.141   6.671  15.948 -1.4794  1.3184 -0.4486
13325TIP3   OH261389   4.339   6.723  14.493  0.1299 -0.2650 -0.1128
13325TIP3    H161390   4.395   6.798  14.473  0.0741 -0.2661 -0.2739
13325TIP3    H261391   4.251   6.760  14.501  0.2767 -0.1245  1.0222
13326TIP3   OH261392   3.479   4.419  16.721 -0.1851  0.4143  0.1925
13326TIP3    H161393   3.492   4.513  16.707  0.7431  0.0925 -1.4406
13326TIP3    H261394   3.564   4.388  16.752 -0.6329  0.1736  1.2183
13327TIP3   OH261395   1.965   4.214   6.062  0.3944  0.2441  0.6423
13327TIP3    H161396   1.937   4.303   6.041  0.1837 -0.0281 -0.2667
13327TIP3    H261397   1.884   4.163   6.063  0.3937  0.2312  2.1319
13328TIP3   OH261398   2.535   2.059  15.724  0.3031  0.3707  0.2552
13328TIP3    H161399   2.462   2.005  15.695 -0.0902  0.1525  1.5651
13328TIP3    H261400   2.613   2.008  15.703  0.0742  0.5012 -0.9444
13329TIP3   OH261401   1.805   4.911  11.409  0.3942  0.0019  0.0453
13329TIP3    H161402   1.759   4.901  11.492 -0.0818  0.0436 -0.2092
13329TIP3    H261403   1.875   4.845  11.412 -0.5746 -1.0595 -0.1726
13330TIP3   OH261404   4.005   2.784  11.661  0.2347  0.0540  0.0239
13330TIP3    H161405   4.076   2.726  11.689 -1.2698 -1.6926  0.4911
13330TIP3    H261406   3.928   2.752  11.710 -0.9381  1.6505 -0.6889
13331TIP3   OH261407   5.345   3.892  13.602 -0.4378 -0.0869  0.8410
13331TIP3    H161408   5.273   3.877  13.663 -1.6447 -1.2320 -0.7761
13331TIP3    H261409   5.321   3.971  13.554 -0.2601 -0.0565  0.7989
13332TIP3   OH261410   3.048   3.242   3.857  0.8806  0.1832 -0.0470
13332TIP3    H161411   3.064   3.311   3.792 -0.0300  0.0086 -0.4784
13332TIP3    H261412   2.969   3.199   3.826  0.6940 -0.2043  0.9436
13333TIP3   OH261413   1.123   3.902  16.681  0.1030  0.0192 -0.6746
13333TIP3    H161414   1.045   3.937  16.639 -0.4206 -0.8843 -0.4883
13333TIP3    H261415   1.097   3.815  16.711  0.7873  0.2347  0.5833
13334TIP3   OH261416   5.129   3.550  14.063 -0.0833  0.2260 -0.4969
13334TIP3    H161417   5.187   3.558  14.138  1.8295  3.1682 -2.0760
13334TIP3    H261418   5.186   3.563  13.987 -2.5853  2.3493 -2.2044
13335TIP3   OH261419   3.954   4.295  14.197  0.1612  0.2289  0.4176
13335TIP3    H161420   3.918   4.378  14.165 -1.1509 -0.2062  0.7300
13335TIP3    H261421   3.908   4.228  14.148  1.3445 -0.3281  0.0486
13336TIP3   OH261422   4.194   0.582  13.221 -0.1148 -0.0573 -0.6325
13336TIP3    H161423   4.206   0.549  13.310  0.4639  0.9807 -0.3133
13336TIP3    H261424   4.105   0.617  13.220  0.9290  2.9026  0.5704
13337TIP3   OH261425   4.493   2.360   3.169  0.1219  0.2216 -0.2870
13337TIP3    H161426   4.501   2.408   3.251 -0.4328  1.5528 -0.9720
13337TIP3    H261427   4.543   2.412   3.106 -0.9668  0.2335 -1.1746
13338TIP3   OH261428   0.299   3.563   1.760  0.0622 -0.1372  1.1728
13338TIP3    H161429   0.251   3.642   1.785 -2.4863 -0.9009 -0.8402
13338TIP3    H261430   0.302   3.510   1.841 -0.3125  1.0067  1.9570
13339TIP3   OH261431   5.601   6.661   5.347 -0.0386 -0.2536 -0.5408
13339TIP3    H161432   5.594   6.741   5.399 -1.9343 -1.0162  0.4893
13339TIP3    H261433   5.542   6.675   5.273  1.5527  0.2411 -1.8004
13340TIP3   OH261434   4.977   1.678   3.952  0.3791  0.1217 -0.2106
13340TIP3    H161435   5.006   1.661   3.862  0.8860  0.4242 -0.1099
13340TIP3    H261436   4.882   1.685   3.945  0.4915  1.3580 -0.9533
13341TIP3   OH261437   1.110   2.107  16.867 -0.3436  0.4050 -0.1396
13341TIP3    H161438   1.104   2.197  16.898  0.1432  0.1870  0.6111
13341TIP3    H261439   1.142   2.114  16.777  1.6131  0.9165  0.5492
13342TIP3   OH261440   4.989   5.016  16.851  0.3537  0.2573  0.4985
13342TIP3    H161441   4.894   5.023  16.863  0.2211 -1.8884  1.2381
13342TIP3    H261442   5.025   5.092  16.896 -0.9707  0.3086  1.5290
13343TIP3   OH261443   0.964   1.616   4.023  0.7070 -0.0722 -0.6073
13343TIP3    H161444   0.955   1.708   3.998  1.6701  0.6711  1.5399
13343TIP3    H261445   1.003   1.619   4.111  1.4388 -2.5503 -0.7838
13344TIP3   OH261446   1.514   1.516  14.086 -0.1954  0.4038  0.0327
13344TIP3    H161447   1.591   1.559  14.123 -0.5552 -1.2005  2.9178
13344TIP3    H261448   1.442   1.546  14.140 -0.5844 -2.9464  1.6124
13345TIP3   OH261449   6.716   0.327  11.651 -0.0437  0.2119  0.1669
13345TIP3    H161450   6.755   0.243  11.675 -1.4103 -0.1473  1.2644
13345TIP3    H261451   6.703   0.321  11.556 -0.5850 -1.0421  0.2882
13346TIP3   OH261452   5.672   2.528  10.031 -0.2199  0.2998  0.2762
13346TIP3    H161453   5.592   2.509   9.982 -1.4731  0.4741  2.1416
13346TIP3    H261454   5.649   2.603  10.086  1.3157  0.5138  0.6682
13347TIP3   OH261455   4.372   0.445  16.412  0.6839  0.2465  0.0406
13347TIP3    H161456   4.448   0.480  16.365  1.3903  0.4051  1.2484
13347TIP3    H261457   4.376   0.351  16.396  1.8106  0.1037  0.9782
13348TIP3   OH261458   4.527   1.190  11.264  0.0023  0.2320  0.5123
13348TIP3    H161459   4.567   1.254  11.205 -0.2918 -0.9589 -1.0301
13348TIP3    H261460   4.600   1.141  11.300  0.2324  1.3847  1.7142
13349TIP3   OH261461   2.492   0.996   2.836  0.3469  0.0186  0.2091
13349TIP3    H161462   2.515   0.915   2.881 -1.2086 -1.8584 -2.1190
13349TIP3    H261463   2.410   1.025   2.877 -0.0888 -0.6465 -0.1850
13350TIP3   OH261464   5.804   1.644  16.842 -0.0296 -0.1375 -0.3053
13350TIP3    H161465   5.802   1.652  16.937  0.4687  1.4194 -0.3943
13350TIP3    H261466   5.825   1.552  16.826 -0.7712 -0.5668  1.0683
13351TIP3   OH261467   4.838   0.184   0.343  0.8864  0.1083 -0.4532
13351TIP3    H161468   4.783   0.259   0.366 -1.3083 -0.8908 -2.0277
13351TIP3    H261469   4.900   0.218   0.279 -0.3040  0.5828 -1.4044
13352TIP3   OH261470   0.768   6.367  12.002 -0.2131  0.3810 -0.8417
13352TIP3    H161471   0.726   6.318  12.073  1.5915 -1.6756 -1.0925
13352TIP3    H261472   0.726   6.453  12.005 -0.5327  0.2536  2.4258
13353TIP3   OH261473   5.931   4.756   3.808 -0.7243  0.4481  0.7423
13353TIP3    H161474   5.966   4.800   3.731 -1.0019 -1.1456 -0.3328
13353TIP3    H261475   5.961   4.810   3.882  3.6551 -0.4743 -0.0674
13354TIP3   OH261476   3.622   3.987  15.192 -0.0576 -0.2931  0.0067
13354TIP3    H161477   3.664   4.072  15.203 -0.8507 -0.0561  1.3682
13354TIP3    H261478   3.557   3.982  15.262  0.7998 -2.5122  0.7703
13355TIP3   OH261479   3.671   3.752   1.722 -0.0454 -0.4354 -0.0741
13355TIP3    H161480   3.663   3.814   1.795  1.1883  1.6309 -1.5763
13355TIP3    H261481   3.758   3.713   1.733  1.4907  2.1479 -1.9597
13356TIP3   OH261482   3.105   3.998  12.605 -0.7439  0.2554  0.0873
13356TIP3    H161483   3.124   4.019  12.696  0.5389 -0.3795 -0.0147
13356TIP3    H261484   3.183   4.027  12.557 -1.5554  0.9278 -0.8759
13357TIP3   OH261485   1.304   4.227   5.030  0.1406 -0.5954 -0.6521
13357TIP3    H161486   1.223   4.197   4.987  0.1502  0.4689 -1.4702
13357TIP3    H261487   1.285   4.318   5.054  0.3712 -0.9768  1.0761
13358TIP3   OH261488   1.884   3.064  16.066  0.5448  0.1691 -0.5025
13358TIP3    H161489   1.875   3.042  15.973  1.4596  0.3218 -0.6421
13358TIP3    H261490   1.810   3.120  16.085 -0.6251 -1.2598 -0.6969
13359TIP3   OH261491   0.503   4.502  17.020  0.2286 -0.0898 -0.9875
13359TIP3    H161492   0.448   4.533  16.948 -0.4887  0.0518 -0.3907
13359TIP3    H261493   0.523   4.411  16.998 -0.8543 -0.3654 -0.8477
13360TIP3   OH261494   1.010   5.740   0.191 -0.6290  0.3719  0.1771
13360TIP3    H161495   0.954   5.663   0.203 -0.4162  0.2805  0.6187
13360TIP3    H261496   0.980   5.801   0.259  0.2484  0.0626  0.8537
13361TIP3   OH261497   4.580   1.977   4.211 -0.4537 -0.2243  0.5143
13361TIP3    H161498   4.544   2.014   4.131 -0.3160 -0.8234  0.1716
13361TIP3    H261499   4.641   2.044   4.243 -1.4787  0.5729  0.8315
13362TIP3   OH261500   1.998   6.646  16.136  0.2761 -0.1068 -0.3435
13362TIP3    H161501   1.935   6.574  16.143  1.0123 -0.9656 -2.0205
13362TIP3    H261502   1.966   6.699  16.063 -0.4878  1.5538  1.1329
13363TIP3   OH261503   3.753   1.556   0.250 -0.1916 -0.1153 -0.1344
13363TIP3    H161504   3.814   1.555   0.177 -0.8501 -1.5479 -0.7067
13363TIP3    H261505   3.666   1.558   0.208 -0.5866  2.0456  0.6512
13364TIP3   OH261506   0.728   4.765   5.449  0.5704 -0.2652 -0.0269
13364TIP3    H161507   0.779   4.760   5.368 -1.0874  1.9595 -1.3102
13364TIP3    H261508   0.644   4.726   5.426 -0.0907  0.8523  0.4463
13365TIP3   OH261509   5.637   5.400   2.667  0.3625  0.6776 -0.0941
13365TIP3    H161510   5.729   5.404   2.694  0.6367 -0.4339 -0.7980
13365TIP3    H261511   5.630   5.320   2.616 -0.9679  0.8408 -0.2157
13366TIP3   OH261512   5.691   4.310  16.959  0.0963  0.6680 -0.1458
13366TIP3    H161513   5.720   4.365  16.885  3.6577  1.4747  1.6259
13366TIP3    H261514   5.706   4.221  16.929  0.8398  0.9586 -0.6784
13367TIP3   OH261515   1.214   4.355   1.182  0.1275 -0.4863  0.0425
13367TIP3    H161516   1.258   4.434   1.213  1.4128 -0.4919 -1.6092
13367TIP3    H261517   1.260   4.283   1.225  2.5017 -0.5443 -2.3358
13368TIP3   OH261518   4.085   6.134   2.618 -0.1800  0.1160 -0.3926
13368TIP3    H161519   4.086   6.198   2.689 -1.3538 -0.3483  0.0628
13368TIP3    H261520   4.169   6.147   2.574  0.5736  0.4344  1.0510
13369TIP3   OH261521   2.347   4.961  13.956 -0.0113  0.4144  0.2415
13369TIP3    H161522   2.315   4.886  13.906  1.9751  0.3023 -0.9381
13369TIP3    H261523   2.283   4.970  14.028 -0.6036 -2.0439  0.1291
13370TIP3   OH261524   6.361   5.728   2.269 -0.3965  0.0473 -0.4564
13370TIP3    H161525   6.417   5.650   2.269 -0.6959 -0.1804  0.5265
13370TIP3    H261526   6.272   5.694   2.279 -0.4481  0.5461  0.9715
13371TIP3   OH261527   0.461   3.519  13.414 -0.5262 -1.0063 -0.2837
13371TIP3    H161528   0.390   3.560  13.364 -0.8347  0.6638  1.4471
13371TIP3    H261529   0.523   3.590  13.431 -0.7670 -1.3325  2.2653
13372TIP3   OH261530   1.324   6.208   3.878 -0.5021  0.1915  0.8553
13372TIP3    H161531   1.235   6.182   3.856 -0.4969  0.1568  0.8740
13372TIP3    H261532   1.379   6.163   3.814 -0.3777 -1.0183  1.7718
13373TIP3   OH261533   1.620   5.071   4.918 -0.2622 -0.0590  0.1059
13373TIP3    H161534   1.568   5.105   4.846 -1.2454 -0.1133  0.7759
13373TIP3    H261535   1.623   5.142   4.982 -2.5827 -1.2340  1.6481
13374TIP3   OH261536   2.051   2.826  13.825  0.1565 -0.2527  0.0835
13374TIP3    H161537   1.965   2.816  13.865  0.5521  0.8698  1.3147
13374TIP3    H261538   2.034   2.841  13.732 -0.9662 -0.2313  0.2856
13375TIP3   OH261539   5.168   5.032   4.275  0.0453 -0.0683 -0.4293
13375TIP3    H161540   5.091   5.089   4.279  0.8986  1.0768  0.0539
13375TIP3    H261541   5.139   4.958   4.222 -1.5312  0.1131  0.1093
13376TIP3   OH261542   0.071   2.390  12.252 -0.0079 -0.2565  0.1689
13376TIP3    H161543   0.026   2.474  12.261  1.0533  0.3469  0.0558
13376TIP3    H261544   0.038   2.354  12.170  0.6545  0.7926 -0.5976
13377TIP3   OH261545   1.556   4.873   2.574 -0.1371  0.1641 -0.1059
13377TIP3    H161546   1.492   4.815   2.616 -0.8930  0.1382 -1.2297
13377TIP3    H261547   1.628   4.815   2.549  0.0320  0.0725  0.5895
13378TIP3   OH261548   5.408   1.437   3.651 -0.2333  0.3286 -0.2772
13378TIP3    H161549   5.422   1.343   3.662  0.2888  0.3704 -0.5285
13378TIP3    H261550   5.496   1.473   3.642 -0.4800  0.5531 -2.4528
13379TIP3   OH261551   0.995   4.556  11.468 -0.4563  0.3006  0.6104
13379TIP3    H161552   1.035   4.617  11.406 -0.3213 -0.5721 -0.1842
13379TIP3    H261553   0.902   4.574  11.464 -0.4746  0.0905 -0.0460
13380TIP3   OH261554   0.987   1.063  15.174  0.3642 -0.4333  0.1860
13380TIP3    H161555   1.029   1.078  15.090  0.5977  1.6776  0.6197
13380TIP3    H261556   1.055   1.021  15.228  0.5885 -0.7054 -0.2998
13381TIP3   OH261557   3.337   5.902  14.777  0.2669 -0.2481 -0.4680
13381TIP3    H161558   3.432   5.906  14.765  0.4861 -2.0271  0.3124
13381TIP3    H261559   3.304   5.873  14.692 -0.0232  3.5998 -1.8684
13382TIP3   OH261560   1.133   1.581  11.438  0.7055 -0.1948 -0.3112
13382TIP3    H161561   1.135   1.656  11.497 -1.8879  0.9157 -1.5061
13382TIP3    H261562   1.134   1.618  11.350  1.1612 -1.6671 -0.9626
13383TIP3   OH261563   5.812   3.447   1.944  0.5122  0.0465 -0.3538
13383TIP3    H161564   5.873   3.450   2.017  0.0919 -1.2581  0.0852
13383TIP3    H261565   5.781   3.356   1.943  0.4329  0.0644 -2.0913
13384TIP3   OH261566   2.528   1.342   0.469  0.0072  0.7242 -0.1382
13384TIP3    H161567   2.585   1.270   0.496 -0.7744 -0.1986 -0.8496
13384TIP3    H261568   2.459   1.300   0.418 -0.3055  2.0248 -0.8467
13385TIP3   OH261569   1.067   6.242   4.184 -0.3597  0.2284  0.0539
13385TIP3    H161570   1.074   6.306   4.113  0.4140 -0.5006 -0.5531
13385TIP3    H261571   1.138   6.264   4.243  1.5728 -1.5594 -1.4433
13386TIP3   OH261572   0.521   1.045   4.533 -0.5223 -0.3667 -0.1290
13386TIP3    H161573   0.556   0.957   4.518 -0.6874 -0.4649  0.0501
13386TIP3    H261574   0.575   1.102   4.479  0.0961 -0.4836  0.3477
13387TIP3   OH261575   2.609   3.074  14.625 -0.0542  0.7602 -0.0456
13387TIP3    H161576   2.553   3.140  14.584 -0.9090 -0.0205 -0.1676
13387TIP3    H261577   2.696   3.089  14.587 -0.1615  1.9980  0.1649
13388TIP3   OH261578   6.233   3.848   2.701  0.1736 -0.0018 -0.2817
13388TIP3    H161579   6.198   3.888   2.621  0.2135  1.0518  0.2128
13388TIP3    H261580   6.313   3.898   2.720  1.4760 -1.7737 -0.8789
13389TIP3   OH261581   6.552   3.456   2.507  0.0614  0.0201 -0.3518
13389TIP3    H161582   6.633   3.419   2.543 -0.5140 -0.3337  0.6302
13389TIP3    H261583   6.509   3.497   2.582 -1.1858 -0.7530 -0.6181
13390TIP3   OH261584   2.474   2.585   2.237 -0.3805 -0.4779 -0.1403
13390TIP3    H161585   2.532   2.588   2.313 -1.1022  1.4321  0.3877
13390TIP3    H261586   2.386   2.599   2.273 -1.1206 -2.3824 -1.0365
13391TIP3   OH261587   1.014   3.275   1.995 -0.3734 -0.4128 -0.1848
13391TIP3    H161588   0.955   3.260   2.070 -0.0410  0.7980  0.3501
13391TIP3    H261589   1.062   3.193   1.985 -0.3323 -0.5549  1.0319
13392TIP3   OH261590   1.869   0.867   2.422  0.0223 -0.1219 -0.3985
13392TIP3    H161591   1.853   0.889   2.514 -0.7832  0.4883 -0.6645
13392TIP3    H261592   1.810   0.925   2.373 -0.6928 -1.5030 -1.2376
13393TIP3   OH261593   6.039   3.367   4.785 -0.0029 -0.2028  0.0914
13393TIP3    H161594   5.978   3.293   4.787 -0.0734 -0.1575 -0.3950
13393TIP3    H261595   6.031   3.403   4.697  0.9353 -0.3579 -0.0601
13394TIP3   OH261596   5.266   2.099   4.195 -0.6455 -0.8012  0.3386
13394TIP3    H161597   5.203   2.068   4.260 -2.4065  2.5278  0.4646
13394TIP3    H261598   5.224   2.177   4.158  2.0945 -0.2590 -1.8791
13395TIP3   OH261599   5.861   0.245   3.361 -0.2375  0.4452 -0.3259
13395TIP3    H161600   5.869   0.151   3.377 -0.3010  0.1617 -1.7654
13395TIP3    H261601   5.819   0.251   3.275 -1.4752  1.8047  0.3371
13396TIP3   OH261602   5.721   3.227  16.851 -0.5412 -0.0844 -0.1353
13396TIP3    H161603   5.763   3.256  16.932  0.2301 -0.6304 -0.3345
13396TIP3    H261604   5.651   3.168  16.879  0.2747 -0.9474  0.0987
13397TIP3   OH261605   2.416   0.442   4.909  0.0207  0.2872  0.0010
13397TIP3    H161606   2.485   0.441   4.976  0.4025 -1.9668 -0.3421
13397TIP3    H261607   2.355   0.374   4.937 -0.7026  0.4803 -1.0728
13398TIP3   OH261608   1.566   3.095  16.421  0.0790 -0.5036  0.0872
13398TIP3    H161609   1.634   3.052  16.369  0.3441  0.8752 -0.7572
13398TIP3    H261610   1.530   3.025  16.476  1.4621 -1.4782 -0.1955
13399TIP3   OH261611   5.278   0.143  12.055 -0.3015  0.0498 -0.9471
13399TIP3    H161612   5.358   0.099  12.084  0.4334  2.1948  0.5459
13399TIP3    H261613   5.211   0.074  12.056  1.1382 -1.4143 -0.5525
13400TIP3   OH261614   0.205   5.592  14.061 -0.1276  0.0585  0.2288
13400TIP3    H161615   0.249   5.668  14.023  0.5439  0.5412  1.8642
13400TIP3    H261616   0.174   5.623  14.147 -0.6536 -1.2510  0.5307
13401TIP3   OH261617   4.315   4.867   0.841  0.0648  0.3667  0.6265
13401TIP3    H161618   4.302   4.805   0.769 -0.1653  0.7811  0.3078
13401TIP3    H261619   4.234   4.862   0.891 -0.3362  1.1089  0.0593
13402TIP3   OH261620   3.260   1.834  13.390 -0.2124 -0.2365  0.1015
13402TIP3    H161621   3.285   1.906  13.332 -1.3150 -0.4159 -0.6305
13402TIP3    H261622   3.248   1.876  13.476  0.4551  0.2084 -0.0163
13403TIP3   OH261623   1.132   5.309  11.722  0.4715  0.0692 -0.3004
13403TIP3    H161624   1.136   5.214  11.736  0.3583  0.1428  0.2736
13403TIP3    H261625   1.188   5.324  11.647  2.0210 -0.2379  0.7413
13404TIP3   OH261626   6.049   5.577  16.783 -0.0691 -0.0510 -0.1359
13404TIP3    H161627   6.106   5.620  16.847 -0.1780  1.1211 -0.8017
13404TIP3    H261628   6.021   5.496  16.826  1.1881 -0.0999  0.6393
13405TIP3   OH261629   5.645   4.164   4.467  0.1326 -0.0903 -0.1476
13405TIP3    H161630   5.626   4.190   4.558  3.5861  0.3201  0.6078
13405TIP3    H261631   5.603   4.231   4.413 -2.0091 -0.3479  1.1152
13406TIP3   OH261632   3.135   5.026   5.185 -0.1022 -0.0766 -0.4188
13406TIP3    H161633   3.151   4.941   5.145  0.2027  0.1882 -0.8638
13406TIP3    H261634   3.069   5.068   5.130  0.9437  0.6355 -1.1567
13407TIP3   OH261635   4.576   0.636  12.065  0.3511  0.6766 -0.5063
13407TIP3    H161636   4.670   0.619  12.057  0.4108  0.4198  0.5594
13407TIP3    H261637   4.560   0.709  12.006  0.9792 -0.0690 -1.6461
13408TIP3   OH261638   6.189   2.728   0.154  0.5412  0.3659  0.1416
13408TIP3    H161639   6.154   2.642   0.177  3.5553 -0.5287  1.9277
13408TIP3    H261640   6.122   2.790   0.183 -2.4349 -1.2688 -2.5956
13409TIP3   OH261641   0.625   3.563  14.877  0.2168 -0.3565  0.7934
13409TIP3    H161642   0.545   3.588  14.831  1.4425  0.8010 -0.8783
13409TIP3    H261643   0.669   3.501  14.818  0.8348 -0.5084  1.3938
13410TIP3   OH261644   2.917   2.915  17.034  0.3685  0.8582  0.5628
13410TIP3    H161645   3.000   2.951  17.063  2.4720 -1.8910 -1.4701
13410TIP3    H261646   2.890   2.855  17.104  1.9252 -0.7141 -0.1014
13411TIP3   OH261647   0.459   2.842   5.469 -0.1313  0.2230  0.1334
13411TIP3    H161648   0.504   2.758   5.465 -0.8751 -0.2229  0.8305
13411TIP3    H261649   0.372   2.821   5.503 -0.2984  1.2877  0.3988
13412TIP3   OH261650   4.089   2.199  14.772  0.0125 -0.1113  0.2421
13412TIP3    H161651   4.057   2.126  14.825  3.4527 -1.6568  0.4844
13412TIP3    H261652   4.088   2.166  14.682  1.1268 -0.3117  0.2915
13413TIP3   OH261653   1.259   1.917   0.907  0.0262  0.1490  0.4369
13413TIP3    H161654   1.287   1.832   0.872 -0.4954 -0.9509  2.5297
13413TIP3    H261655   1.164   1.920   0.890  0.3320  1.3004 -1.4593
13414TIP3   OH261656   4.395   4.260  11.026 -0.3558  0.4397  0.6218
13414TIP3    H161657   4.307   4.290  11.005  0.5195  1.4871 -1.9497
13414TIP3    H261658   4.452   4.329  10.993  1.6570 -2.5164 -2.8445
13415TIP3   OH261659   2.322   0.288   2.686  0.3313 -0.3908  0.0839
13415TIP3    H161660   2.283   0.338   2.615  0.2526  0.1016  0.4707
13415TIP3    H261661   2.363   0.353   2.742 -1.4058 -0.5407  1.6206
13416TIP3   OH261662   4.147   6.604  11.211  0.3671 -0.6875 -0.1249
13416TIP3    H161663   4.149   6.511  11.233  0.2477 -0.2830  1.7632
13416TIP3    H261664   4.222   6.617  11.153  0.9693 -1.7798  0.3873
13417TIP3   OH261665   6.195   1.659  15.927 -0.0368 -0.1509  0.3187
13417TIP3    H161666   6.164   1.722  15.993  0.2673  0.6250 -0.2639
13417TIP3    H261667   6.157   1.689  15.845  3.4223  1.8842 -0.7694
13418TIP3   OH261668   5.335   5.906  15.430 -1.0714 -0.1331 -0.0137
13418TIP3    H161669   5.349   5.820  15.392  1.3818  0.9695 -1.9006
13418TIP3    H261670   5.422   5.946  15.432 -2.2745  2.8227 -0.6173
13419TIP3   OH261671   6.269   3.887   2.175  0.4073 -0.5570  0.3502
13419TIP3    H161672   6.321   3.923   2.104 -0.0243  0.2536  0.4287
13419TIP3    H261673   6.202   3.954   2.191  0.3311 -0.8563  1.3230
13420TIP3   OH261674   0.557   1.409   5.254  0.1527  0.8514 -0.0334
13420TIP3    H161675   0.486   1.358   5.295  1.5485 -0.6592  0.6076
13420TIP3    H261676   0.616   1.343   5.218  0.6755  2.1130 -1.5807
13421TIP3   OH261677   4.103   6.024  12.505  0.0901  0.2087 -0.3307
13421TIP3    H161678   4.013   6.005  12.532  0.1717 -0.7427 -0.6743
13421TIP3    H261679   4.104   6.118  12.489 -0.1246  0.7325  2.2764
13422TIP3   OH261680   2.322   4.174   3.241  0.7731 -0.2541  0.1061
13422TIP3    H161681   2.261   4.140   3.306  0.2948 -0.3147 -0.3629
13422TIP3    H261682   2.276   4.164   3.158  0.8900  0.9139 -0.1152
13423TIP3   OH261683   0.293   6.365   3.686 -0.3081 -0.2677 -0.4580
13423TIP3    H161684   0.262   6.289   3.736 -3.0085  1.3464  0.5462
13423TIP3    H261685   0.316   6.430   3.752 -0.9578  0.8246 -1.2653
13424TIP3   OH261686   3.421   0.564   1.297  0.4035 -0.7025  0.1337
13424TIP3    H161687   3.367   0.498   1.340  0.6825 -0.0106  1.6250
13424TIP3    H261688   3.363   0.609   1.236 -0.5466 -0.4030  1.2365
13425TIP3   OH261689   4.547   4.658   1.194  0.2351 -0.2442 -0.5320
13425TIP3    H161690   4.574   4.606   1.119  0.2846  1.4123 -1.7268
13425TIP3    H261691   4.497   4.731   1.156 -1.5331 -0.4481  1.2137
13426TIP3   OH261692   4.697   4.703   0.846  0.3642 -0.0809 -0.5428
13426TIP3    H161693   4.715   4.753   0.767  2.4953 -0.2350 -0.2264
13426TIP3    H261694   4.664   4.767   0.909 -1.6206 -0.0043 -1.5685
13427TIP3   OH261695   0.181   2.932  14.009 -0.6739 -0.0082  1.1235
13427TIP3    H161696   0.117   3.004  14.003 -0.5756  0.0267  0.3568
13427TIP3    H261697   0.192   2.904  13.918  0.7288  0.2764  1.1957
13428TIP3   OH261698   0.961   0.782   3.897 -0.2413  0.2258 -0.3004
13428TIP3    H161699   0.866   0.785   3.881 -0.0141 -0.8721 -2.1582
13428TIP3    H261700   0.994   0.862   3.855 -0.1284 -0.4899 -1.6159
13429TIP3   OH261701   2.242   3.286   4.117  0.6218 -0.4678  0.0464
13429TIP3    H161702   2.261   3.193   4.107  2.6305 -0.2330  1.2025
13429TIP3    H261703   2.277   3.326   4.038 -2.0478 -0.8490 -1.4277
13430TIP3   OH261704   2.183   1.083   5.231 -0.0878 -0.5756  0.1689
13430TIP3    H161705   2.132   1.163   5.218 -2.6980 -1.7155  2.3648
13430TIP3    H261706   2.234   1.099   5.310 -1.0316 -1.2070  0.9306
13431TIP3   OH261707   6.551   6.563   1.439 -1.0445  0.1465  0.1243
13431TIP3    H161708   6.568   6.571   1.345 -0.2123 -0.1712  0.2451
13431TIP3    H261709   6.507   6.645   1.463 -1.2246  0.2452 -0.5267
13432TIP3   OH261710   3.047   3.991   4.172 -0.0898  0.0016  0.0065
13432TIP3    H161711   3.068   4.054   4.242 -0.5060  0.3428 -0.1733
13432TIP3    H261712   3.127   3.940   4.162 -0.2891 -0.6134  1.3149
13433TIP3   OH261713   5.891   2.848   6.411 -0.1576 -0.0872 -0.1444
13433TIP3    H161714   5.972   2.880   6.452 -0.6295  0.3284  0.4745
13433TIP3    H261715   5.912   2.758   6.384  1.2513  0.7604 -2.0803
13434TIP3   OH261716   3.968   6.630  16.663  0.2505  0.6149 -0.0030
13434TIP3    H161717   3.923   6.593  16.587 -0.6289  1.6572 -0.0151
13434TIP3    H261718   3.949   6.723  16.659  0.5123  0.7444  1.2928
13435TIP3   OH261719   3.485   5.302   1.503 -0.4350  0.1788  0.2160
13435TIP3    H161720   3.407   5.274   1.454 -0.5875 -1.7743  1.4648
13435TIP3    H261721   3.558   5.268   1.452 -0.5602 -0.9636  0.7560
13436TIP3   OH261722   2.742   3.668   6.629 -0.9948  0.1578 -0.2359
13436TIP3    H161723   2.683   3.744   6.635 -1.8069 -0.4087 -0.8293
13436TIP3    H261724   2.821   3.702   6.587 -0.2440  1.2805  1.9237
13437TIP3   OH261725   6.522   6.679   6.148  0.3544  0.0870 -0.2141
13437TIP3    H161726   6.540   6.611   6.083 -2.1028 -0.4197 -0.4552
13437TIP3    H261727   6.586   6.748   6.129  1.6995 -1.3678 -1.1524
13438TIP3   OH261728   4.710   0.205  11.628 -0.8302  0.1360  0.4692
13438TIP3    H161729   4.621   0.201  11.662 -0.0796  1.7787  2.8523
13438TIP3    H261730   4.757   0.137  11.676 -0.0618  1.6041  1.9118
13439TIP3   OH261731   0.905   4.395  16.522 -0.1136 -0.9332  0.1323
13439TIP3    H161732   0.817   4.430  16.533 -0.2734 -1.1263 -0.5003
13439TIP3    H261733   0.962   4.460  16.564 -0.3712  0.2832 -1.3217
13440TIP3   OH261734   3.466   1.748   2.653 -0.1073 -0.3542 -0.5333
13440TIP3    H161735   3.380   1.790   2.641 -0.6909 -0.8242  1.4913
13440TIP3    H261736   3.524   1.796   2.595 -1.0444  2.3397  0.5467
13441TIP3   OH261737   4.992   6.075  12.509  0.3609  0.3256  0.6010
13441TIP3    H161738   4.993   6.079  12.605 -1.1472  2.0708  0.6001
13441TIP3    H261739   4.924   6.137  12.483  1.0661  0.2524 -1.6400
13442TIP3   OH261740   4.729   3.343  13.467  0.3803  0.2110  0.1774
13442TIP3    H161741   4.648   3.294  13.450  0.8547 -0.8911  0.9859
13442TIP3    H261742   4.784   3.281  13.515  1.0616  1.4898  1.0847
13443TIP3   OH261743   2.879   4.230  14.178  0.0241  0.0113 -0.4488
13443TIP3    H161744   2.793   4.252  14.215 -0.2805 -0.6100 -0.7668
13443TIP3    H261745   2.903   4.306  14.125 -0.3268  0.1915 -0.3527
13444TIP3   OH261746   2.725   4.804  13.687  0.6538 -0.0544 -0.0772
13444TIP3    H161747   2.800   4.859  13.711  1.2825 -1.2499  0.8369
13444TIP3    H261748   2.683   4.850  13.615  2.6844  0.3202 -1.1007
13445TIP3   OH261749   5.394   1.855  16.249  0.7607 -0.3024  0.2229
13445TIP3    H161750   5.464   1.813  16.199 -0.0726  0.1020 -1.3492
13445TIP3    H261751   5.325   1.872  16.185  0.2370  1.6131  1.1994
13446TIP3   OH261752   4.565   3.932  14.378 -0.3003  0.2027  0.3111
13446TIP3    H161753   4.620   3.978  14.441 -0.7655  3.1121 -1.2180
13446TIP3    H261754   4.614   3.853  14.356  0.3630 -0.3566  3.4013
13447TIP3   OH261755   3.376   3.943   0.888  0.1317  0.5080  0.4649
13447TIP3    H161756   3.341   4.022   0.848  1.0114  1.0304  0.6861
13447TIP3    H261757   3.303   3.881   0.888 -0.3129  1.0091 -0.5416
13448TIP3   OH261758   2.863   4.084  12.133  0.1190  0.5665 -0.1148
13448TIP3    H161759   2.771   4.098  12.157 -0.4779 -2.1430 -0.4835
13448TIP3    H261760   2.892   4.013  12.190  2.2015  1.7515  0.3826
13449TIP3   OH261761   4.837   6.405  12.241 -0.7480 -0.1839  0.7713
13449TIP3    H161762   4.766   6.369  12.294  0.9913 -2.3725  1.7359
13449TIP3    H261763   4.917   6.380  12.287  0.7246  0.9910 -1.0112
13450TIP3   OH261764   1.084   2.698   1.852 -0.5206  0.0701  0.0940
13450TIP3    H161765   1.154   2.656   1.803 -0.2204 -1.0012  1.3717
13450TIP3    H261766   1.085   2.789   1.822 -0.0947 -0.4434 -1.5390
13451TIP3   OH261767   2.890   3.479  12.549  0.0203 -0.1401 -0.1600
13451TIP3    H161768   2.892   3.564  12.505  2.3464 -0.5588 -1.0133
13451TIP3    H261769   2.836   3.424  12.491 -0.6583  0.4685 -0.1241
13452TIP3   OH261770   5.278   3.774   5.551 -0.1977  0.1695  0.4231
13452TIP3    H161771   5.360   3.727   5.560  0.0701  0.6580  0.5529
13452TIP3    H261772   5.303   3.866   5.541 -0.5959  0.0720 -2.2883
13453TIP3   OH261773   5.642   0.432  12.049 -0.6680  0.5913  1.2630
13453TIP3    H161774   5.597   0.355  12.014  0.2118 -0.0042  1.4235
13453TIP3    H261775   5.603   0.444  12.136 -1.4745  0.9028  0.8639
13454TIP3   OH261776   4.100   0.368   5.886  0.2741  0.0550  0.4680
13454TIP3    H161777   4.054   0.453   5.891 -1.6074 -0.9439  4.0223
13454TIP3    H261778   4.191   0.389   5.907 -0.3023  1.2140  2.0661
13455TIP3   OH261779   4.271   2.364  14.625 -0.2486  0.3549 -0.1711
13455TIP3    H161780   4.333   2.291  14.624 -1.2416 -0.5348  0.8120
13455TIP3    H261781   4.216   2.348  14.701 -0.8162  1.8766 -0.2249
13456TIP3   OH261782   3.328   3.567  13.644  0.2031  0.0328 -0.1390
13456TIP3    H161783   3.323   3.660  13.669  1.8169  0.2340 -0.5111
13456TIP3    H261784   3.275   3.561  13.565 -0.1873  0.5605  0.0709
13457TIP3   OH261785   0.994   1.615  17.261  0.1211  0.1671  0.0045
13457TIP3    H161786   0.996   1.553  17.334  0.2645  1.3322  1.0141
13457TIP3    H261787   0.932   1.577  17.199 -3.2284  1.0834  2.4918
13458TIP3   OH261788   2.638   3.504   4.850 -0.1467  0.1305 -0.0043
13458TIP3    H161789   2.725   3.536   4.874  0.5730 -1.8505  0.2111
13458TIP3    H261790   2.603   3.571   4.790  0.5838  2.0601  1.5921
13459TIP3   OH261791   6.129   5.888  13.340 -0.0138 -0.3214  0.2903
13459TIP3    H161792   6.197   5.954  13.350 -1.3176  1.0363  0.5603
13459TIP3    H261793   6.124   5.873  13.246  1.2592 -1.1327  0.3258
13460TIP3   OH261794   4.560   1.783   1.867  0.0680 -0.3889 -0.0156
13460TIP3    H161795   4.567   1.804   1.774  4.6887  0.5635  0.2734
13460TIP3    H261796   4.540   1.867   1.909  1.1368 -0.1113 -0.0194
13461TIP3   OH261797   0.705   1.237   5.067 -0.7356 -0.1443  0.4059
13461TIP3    H161798   0.756   1.297   5.012 -0.0082 -0.8369  0.3105
13461TIP3    H261799   0.673   1.170   5.006 -2.7373  0.8561  0.2491
13462TIP3   OH261800   2.616   0.989  17.114  0.1488 -0.5022  0.2229
13462TIP3    H161801   2.597   0.900  17.083 -0.6518 -0.2051 -0.1729
13462TIP3    H261802   2.651   0.976  17.202  0.2308 -1.2203  0.0961
13463TIP3   OH261803   5.655   4.998   5.614  0.8536  0.0504 -0.5821
13463TIP3    H161804   5.732   4.978   5.668  1.4166  1.5423 -0.8023
13463TIP3    H261805   5.643   5.092   5.623 -1.0194 -0.1713 -0.4947
13464TIP3   OH261806   0.958   2.182  15.916 -0.1471  0.7700  0.0030
13464TIP3    H161807   1.013   2.190  15.994 -0.4524  1.3406  0.1627
13464TIP3    H261808   1.003   2.233  15.849  0.4456 -0.2369 -0.3876
13465TIP3   OH261809   2.448   2.371   0.967  0.1227 -0.8314  0.0597
13465TIP3    H161810   2.480   2.292   0.923  0.6480 -0.3473 -0.4350
13465TIP3    H261811   2.462   2.353   1.060  0.6980 -1.1300 -0.0789
13466TIP3   OH261812   2.502   4.882  17.023 -0.1178  0.6088 -0.2703
13466TIP3    H161813   2.482   4.959  16.970 -1.0609  0.8989  0.4785
13466TIP3    H261814   2.526   4.814  16.959 -3.0594  0.3825 -1.2547
13467TIP3   OH261815   3.766   4.659   1.708  0.5902  0.3342 -0.2692
13467TIP3    H161816   3.769   4.579   1.655  0.1359  1.2868 -1.7840
13467TIP3    H261817   3.695   4.643   1.770  3.0810 -2.0602  2.3046
13468TIP3   OH261818   4.230   1.023   0.769 -0.1006 -0.0954 -0.6382
13468TIP3    H161819   4.200   0.978   0.848  2.6916 -0.7955  0.1213
13468TIP3    H261820   4.196   0.971   0.697 -1.1327 -0.5023  0.1197
13469TIP3   OH261821   2.512   2.373   4.456  1.1079  0.1547  0.5494
13469TIP3    H161822   2.507   2.451   4.401  0.8949  0.9625  1.6785
13469TIP3    H261823   2.583   2.392   4.518  1.4418 -0.7934  0.4780
13470TIP3   OH261824   1.136   0.495  11.884  0.9008 -0.3234  0.1095
13470TIP3    H161825   1.126   0.589  11.869 -0.4367 -0.1569  1.7362
13470TIP3    H261826   1.198   0.489  11.957  2.3093 -0.8179 -1.0795
13471TIP3   OH261827   1.665   0.152  13.350 -0.4086  0.2533 -0.1892
13471TIP3    H161828   1.738   0.118  13.297  0.6282  1.1085  0.6438
13471TIP3    H261829   1.706   0.216  13.408 -1.7014  0.1165  0.9019
13472TIP3   OH261830   0.416   2.394   5.601  0.4221  0.5788  0.1514
13472TIP3    H161831   0.393   2.429   5.514  0.3917 -1.1745 -0.5908
13472TIP3    H261832   0.476   2.322   5.583  0.6797  0.3936  1.6271
13473TIP3   OH261833   5.035   3.495   1.403  0.2827 -0.9113 -0.2025
13473TIP3    H161834   5.039   3.405   1.437 -1.4525 -1.0290 -0.2418
13473TIP3    H261835   5.121   3.531   1.422  1.1601 -2.7027 -0.5179
13474TIP3   OH261836   1.183   3.551  13.252  0.0996  0.2831 -0.5245
13474TIP3    H161837   1.198   3.488  13.181 -2.2850  0.9737 -1.7655
13474TIP3    H261838   1.119   3.507  13.309  1.7361 -0.1251  1.0839
13475TIP3   OH261839   5.790   5.080  15.627 -0.4555  0.0976 -0.0645
13475TIP3    H161840   5.846   5.004  15.612 -1.2319 -0.9180  1.7625
13475TIP3    H261841   5.702   5.049  15.604 -0.5075  1.1305 -1.2993
13476TIP3   OH261842   1.340   5.895  14.784  0.0152 -0.2414  0.4482
13476TIP3    H161843   1.425   5.938  14.785  0.8176 -1.7195 -0.1763
13476TIP3    H261844   1.279   5.962  14.754  1.0599  0.6844  0.3214
13477TIP3   OH261845   3.599   3.101   1.691  0.2862 -0.1525 -0.7019
13477TIP3    H161846   3.636   3.012   1.693  0.4562 -0.0955 -1.1859
13477TIP3    H261847   3.666   3.153   1.647  0.3063  0.2749 -0.1643
13478TIP3   OH261848   0.582   2.408  16.957  0.7489  0.5284  0.5509
13478TIP3    H161849   0.542   2.323  16.974  1.7245 -0.2671 -0.9573
13478TIP3    H261850   0.663   2.388  16.910  1.2120  2.2738  0.5319
13479TIP3   OH261851   4.771   3.168   2.890 -0.1081  0.4418 -0.2239
13479TIP3    H161852   4.691   3.159   2.839 -0.7662  0.5597  0.7579
13479TIP3    H261853   4.790   3.262   2.890 -0.5113  0.5273  0.3353
13480TIP3   OH261854   0.307   5.116   1.790  0.0384  0.1538 -0.1252
13480TIP3    H161855   0.216   5.140   1.806  0.6632  2.0217  0.9268
13480TIP3    H261856   0.317   5.124   1.695 -0.6176  1.1141 -0.1309
13481TIP3   OH261857   2.012   6.017   0.948 -0.0558 -0.1929  0.5014
13481TIP3    H161858   1.918   6.026   0.929 -0.5648 -0.8309  2.4749
13481TIP3    H261859   2.015   5.986   1.038  2.0887  0.0481  0.5547
13482TIP3   OH261860   6.596   5.590  13.415  0.5426  0.3945  0.1335
13482TIP3    H161861   6.642   5.634  13.343  2.6575  0.9356  1.7120
13482TIP3    H261862   6.665   5.571  13.479 -1.0674 -1.1511  1.4997
13483TIP3   OH261863   6.453   1.169  12.076  0.1737  0.2058 -0.6179
13483TIP3    H161864   6.451   1.087  12.124 -0.1099 -0.2052 -1.3173
13483TIP3    H261865   6.366   1.207  12.091  0.1390  0.1498 -0.6747
13484TIP3   OH261866   4.397   5.489  16.256 -0.2684  0.1449  0.5499
13484TIP3    H161867   4.467   5.471  16.319 -0.0400  1.0711  0.5723
13484TIP3    H261868   4.336   5.416  16.267  0.1428 -0.1004  1.3028
13485TIP3   OH261869   0.871   4.371   0.222 -0.1700 -0.7452 -0.2149
13485TIP3    H161870   0.958   4.346   0.252  0.1245  0.2146 -0.2355
13485TIP3    H261871   0.823   4.289   0.217  0.3505 -1.1532  1.0336
13486TIP3   OH261872   5.967   1.367   1.873 -0.1352 -0.0171  0.1347
13486TIP3    H161873   6.028   1.324   1.933 -0.7260 -0.2113  0.6171
13486TIP3    H261874   5.930   1.439   1.925  0.3268  0.6392 -0.4377
13487TIP3   OH261875   2.271   4.474   5.210 -0.0023  0.1618  0.5681
13487TIP3    H161876   2.251   4.393   5.257  0.9851 -1.4278 -1.6260
13487TIP3    H261877   2.218   4.470   5.131  0.4055  1.4506  0.2065
13488TIP3   OH261878   4.259   3.740   2.989  0.8303  0.9129  0.0230
13488TIP3    H161879   4.254   3.709   3.080  1.4500  1.5102  0.2654
13488TIP3    H261880   4.232   3.664   2.937 -0.9669  0.9924  0.7647
13489TIP3   OH261881   0.085   1.842   0.202  0.3423  0.6578 -0.8203
13489TIP3    H161882   0.123   1.926   0.179  3.7100 -0.5950 -0.4668
13489TIP3    H261883   0.108   1.784   0.130 -0.9149 -0.2549 -0.5383
13490TIP3   OH261884   1.777   5.528  13.881 -0.2416  0.0450  0.3862
13490TIP3    H161885   1.756   5.534  13.974  0.4706  2.3160  0.4648
13490TIP3    H261886   1.868   5.500  13.879  0.7323  2.8437  0.5801
13491TIP3   OH261887   4.002   1.323  16.304  0.4517 -0.1032 -0.4264
13491TIP3    H161888   3.931   1.349  16.245  0.7600  1.3367 -0.2098
13491TIP3    H261889   4.047   1.252  16.258 -1.6352 -1.7105 -0.1724
13492TIP3   OH261890   1.391   0.050   0.043 -0.6720 -0.0809  1.0351
13492TIP3    H161891   1.350   0.064   0.129 -0.6609 -1.5177  1.2948
13492TIP3    H261892   1.444  -0.028   0.054 -2.9652 -2.0798 -1.0248
13493TIP3   OH261893   4.287   4.201   5.852  0.1264  0.3439 -0.0719
13493TIP3    H161894   4.378   4.198   5.824  0.1990  0.1148  0.1818
13493TIP3    H261895   4.239   4.152   5.785  0.2353  0.1883 -0.0363
13494TIP3   OH261896   0.037   4.555  13.308  0.1672  0.0455 -0.2381
13494TIP3    H161897   0.056   4.469  13.346  1.6312  0.2398 -0.4780
13494TIP3    H261898   0.103   4.566  13.240 -1.2348  0.5182 -1.5765
13495TIP3   OH261899   0.264   2.378   6.082  0.2149  0.3205 -0.1668
13495TIP3    H161900   0.298   2.430   6.010 -1.7536  1.8650 -0.0672
13495TIP3    H261901   0.320   2.400   6.157  1.1554  0.0581 -0.7717
13496TIP3   OH261902   3.614   5.075  13.835 -0.0791 -0.0978 -0.1596
13496TIP3    H161903   3.617   5.114  13.748  0.2057 -0.7455 -0.4508
13496TIP3    H261904   3.694   5.022  13.841 -0.5969 -0.8841  0.0906
13497TIP3   OH261905   3.061   4.781   3.996 -1.0244 -0.1073  0.5045
13497TIP3    H161906   2.970   4.754   4.006 -0.2562 -2.6693  1.1213
13497TIP3    H261907   3.111   4.716   4.044  1.2793  0.1343 -1.3912
13498TIP3   OH261908   1.016   6.112   0.308 -0.2485  0.0833  0.1706
13498TIP3    H161909   0.989   6.101   0.217  1.5853  0.5084 -0.4671
13498TIP3    H261910   0.992   6.030   0.351 -0.5775 -0.3568 -0.8435
13499TIP3   OH261911   0.361   5.225  11.502  0.4853 -0.1436 -0.4461
13499TIP3    H161912   0.327   5.307  11.467 -0.2546 -0.5232 -0.6352
13499TIP3    H261913   0.287   5.186  11.549  0.3993 -1.3596 -1.5289
13500TIP3   OH261914   0.441   0.562  17.100 -0.1521  0.1330  0.0858
13500TIP3    H161915   0.528   0.601  17.111  2.1526 -4.5764  1.1054
13500TIP3    H261916   0.444   0.521  17.014 -0.2414 -2.2275  1.1271
13501TIP3   OH261917   0.266   3.220  12.683  0.2273 -0.0656 -0.5543
13501TIP3    H161918   0.325   3.237  12.610  0.2819 -1.7372 -0.9422
13501TIP3    H261919   0.231   3.306  12.707  0.8965  0.6197 -1.9452
13502TIP3   OH261920   6.481   3.280   3.453  0.0087 -0.0776 -0.1174
13502TIP3    H161921   6.469   3.357   3.509 -1.9721 -1.0267  0.8499
13502TIP3    H261922   6.555   3.234   3.492  2.2670  2.0278 -1.6232
13503TIP3   OH261923   4.301   1.263   1.496  0.1121  0.3071  0.4953
13503TIP3    H161924   4.346   1.213   1.564 -1.3661 -0.8789  0.6551
13503TIP3    H261925   4.247   1.327   1.543 -0.1691  0.1341  0.4140
13504TIP3   OH261926   4.529   0.816   2.298 -1.1514 -0.4429  0.1727
13504TIP3    H161927   4.501   0.859   2.379  0.4776  1.1896 -0.0543
13504TIP3    H261928   4.485   0.864   2.228 -1.8720 -1.2890  0.0290
13505TIP3   OH261929   5.213   5.747  15.620  0.1754  0.0667  0.1562
13505TIP3    H161930   5.266   5.733  15.698  1.0205  0.2418 -0.3788
13505TIP3    H261931   5.268   5.799  15.562 -0.2253 -0.5136 -0.7772
13506TIP3   OH261932   6.187   2.292  17.300 -0.1856 -0.1288  0.1244
13506TIP3    H161933   6.258   2.353  17.278  0.3800 -1.0653 -0.7569
13506TIP3    H261934   6.112   2.323  17.251 -0.1239  0.3307  0.3231
13507TIP3   OH261935   0.224   4.297   2.626 -0.6652 -0.1538 -0.2794
13507TIP3    H161936   0.306   4.307   2.674 -0.3850 -1.0221 -0.5666
13507TIP3    H261937   0.208   4.203   2.624 -1.1232 -0.0707 -1.1357
13508TIP3   OH261938   0.504   4.937   5.412 -0.2102  0.4194  0.4880
13508TIP3    H161939   0.591   4.910   5.440  0.3225 -0.4797 -1.8323
13508TIP3    H261940   0.506   5.033   5.416  2.2482  0.6701 -2.9885
13509TIP3   OH261941   2.927   3.012  15.122 -0.3338  0.1611 -0.5609
13509TIP3    H161942   2.862   2.995  15.190 -0.3647 -0.4578 -0.7432
13509TIP3    H261943   3.001   2.955  15.144  0.9280  2.1160  0.6674
13510TIP3   OH261944   6.515   4.874  12.323 -0.2841  0.4202 -0.2923
13510TIP3    H161945   6.463   4.922  12.258 -1.4439 -0.6550 -0.1827
13510TIP3    H261946   6.584   4.832  12.272 -0.5877  0.4008 -0.6899
13511TIP3   OH261947   2.414   1.912  13.855 -0.3582  0.5387  0.0039
13511TIP3    H161948   2.363   1.905  13.936 -0.6664  0.0468 -0.2356
13511TIP3    H261949   2.433   2.006  13.848 -1.8271  0.8453 -0.2743
13512TIP3   OH261950   1.743   0.526   5.220  0.2064  0.4181  0.2880
13512TIP3    H161951   1.650   0.509   5.204  0.0658 -0.6608  2.0056
13512TIP3    H261952   1.787   0.446   5.193  0.7986  1.2744 -1.4470
13513TIP3   OH261953   5.323   4.922  11.357 -0.7293  0.1420  0.4721
13513TIP3    H161954   5.375   5.003  11.356 -0.1173 -0.2484 -0.1830
13513TIP3    H261955   5.258   4.937  11.425 -1.3042  1.6048 -0.3564
13514TIP3   OH261956   0.021   2.327  14.691  0.2514 -0.0125  0.0031
13514TIP3    H161957  -0.006   2.379  14.615 -2.4228 -0.8445  0.2481
13514TIP3    H261958   0.005   2.236  14.664  0.9163 -0.4264  0.9660
13515TIP3   OH261959   4.436   3.469  16.098 -0.6036 -0.1941  0.5134
13515TIP3    H161960   4.408   3.532  16.032 -1.4909 -0.1018  0.9558
13515TIP3    H261961   4.355   3.447  16.145  0.1317  0.3966  2.1251
13516TIP3   OH261962   1.702   4.693  11.191 -0.0901 -0.1949 -0.5187
13516TIP3    H161963   1.628   4.633  11.193 -1.0662  0.9841 -0.0267
13516TIP3    H261964   1.682   4.758  11.259  1.1393  0.4473 -0.7388
13517TIP3   OH261965   4.491   4.214  15.305  0.3981  0.1448  0.0364
13517TIP3    H161966   4.453   4.199  15.391 -0.3114  0.5215 -0.2053
13517TIP3    H261967   4.581   4.243  15.323  0.5666 -0.7014  0.6111
13518TIP3   OH261968   6.495   5.385   3.851  0.2371 -1.0132  0.4885
13518TIP3    H161969   6.455   5.402   3.765  1.3426 -0.6172  0.0407
13518TIP3    H261970   6.513   5.291   3.851  2.1259 -0.6945 -0.5771
13519TIP3   OH261971   2.728   2.592  15.338  0.1388  0.1620  0.1035
13519TIP3    H161972   2.804   2.645  15.312 -0.4094  1.0529  0.2832
13519TIP3    H261973   2.761   2.536  15.409  0.6126  0.5971  0.2324
13520TIP3   OH261974   4.966   4.325  10.777  0.3201 -0.3977  0.5114
13520TIP3    H161975   5.024   4.397  10.751 -0.2459 -0.4466 -0.9878
13520TIP3    H261976   5.025   4.250  10.787  0.6244 -0.2832 -0.3130
13521TIP3   OH261977   2.473   6.664  12.918 -0.7796 -0.4698 -0.2453
13521TIP3    H161978   2.557   6.685  12.960 -0.7632 -1.4731  0.2518
13521TIP3    H261979   2.470   6.721  12.841  0.4436 -0.5493 -0.3732
13522TIP3   OH261980   4.448   0.550   3.244 -0.2002 -0.5603 -0.3121
13522TIP3    H161981   4.520   0.586   3.296 -0.0164 -0.5343 -0.5768
13522TIP3    H261982   4.372   0.552   3.302  0.0908 -0.9092  0.0857
13523TIP3   OH261983   5.051   2.252   2.484  0.8515 -0.0159  0.0739
13523TIP3    H161984   5.142   2.272   2.505  0.6510  2.6535 -1.2299
13523TIP3    H261985   5.005   2.254   2.568  1.4837  1.8584  0.4185
13524TIP3   OH261986   3.672   4.294  15.882  0.5045  0.0136 -0.3279
13524TIP3    H161987   3.736   4.310  15.952  0.0368  0.3371  0.0297
13524TIP3    H261988   3.593   4.339  15.911  0.3985  0.4103 -1.2210
13525TIP3   OH261989   5.664   6.043   4.268 -0.1526  0.3669 -0.5758
13525TIP3    H161990   5.633   5.994   4.192 -1.6501  0.6628 -0.1810
13525TIP3    H261991   5.740   5.994   4.298 -0.1291 -0.3107 -1.6618
13526TIP3   OH261992   1.566   4.791  15.566  0.3876 -0.4885 -0.0342
13526TIP3    H161993   1.660   4.786  15.580  0.7606  0.5062 -1.9008
13526TIP3    H261994   1.556   4.814  15.473 -1.7003 -0.9761  0.0137
13527TIP3   OH261995   1.823   3.021   1.504 -0.8346 -0.1629  0.3295
13527TIP3    H161996   1.879   3.090   1.539  0.1212  0.5302 -2.2936
13527TIP3    H261997   1.868   2.992   1.424 -3.5839 -0.4004 -1.2651
13528TIP3   OH261998   2.453   6.471  16.402 -0.0818  0.2092  0.7691
13528TIP3    H161999   2.459   6.560  16.438  1.6462 -1.2739  4.8383
13528TIP3    H262000   2.528   6.464  16.343 -1.2970  1.8845 -1.1048
13529TIP3   OH262001   3.428   5.453   4.938 -0.3407  0.3087  0.0216
13529TIP3    H162002   3.498   5.507   4.973 -0.3192  0.2023  0.1463
13529TIP3    H262003   3.466   5.409   4.862  0.3056 -1.1366  1.1221
13530TIP3   OH262004   2.115   6.430  17.111  0.6106  0.0248 -0.1530
13530TIP3    H162005   2.091   6.338  17.096 -1.6215 -0.4599  4.5930
13530TIP3    H262006   2.034   6.478  17.098 -0.0085  0.2473  3.4785
13531TIP3   OH262007   0.872   6.334   0.558 -0.5421  0.4278 -0.0797
13531TIP3    H162008   0.805   6.401   0.570 -0.7859  0.3101 -0.7660
13531TIP3    H262009   0.825   6.251   0.565 -0.3869  0.3365 -0.1048
13532TIP3   OH262010   2.736   0.215   1.207  0.2926 -0.3493  0.2651
13532TIP3    H162011   2.644   0.224   1.232 -0.6818 -0.5148 -2.8746
13532TIP3    H262012   2.781   0.201   1.290 -2.8273 -2.9083  1.7845
13533TIP3   OH262013   0.101   2.629  12.583  0.3733 -0.1852  0.2276
13533TIP3    H162014   0.008   2.609  12.574  0.1501 -0.0360  1.8616
13533TIP3    H262015   0.104   2.707  12.639  1.4716 -0.0688  0.0333
13534TIP3   OH262016   0.955   5.949   4.642  0.1084 -0.2456  0.0132
13534TIP3    H162017   0.887   5.984   4.584  0.1721  1.0170  0.6786
13534TIP3    H262018   0.906   5.908   4.714  0.0480 -0.7496 -0.3061
13535TIP3   OH262019   0.313   3.360  15.124  0.0814 -0.0528 -0.0501
13535TIP3    H162020   0.244   3.295  15.133  0.2297 -0.1103  0.7086
13535TIP3    H262021   0.267   3.444  15.118 -0.1956 -0.2960 -2.4945
13536TIP3   OH262022   2.878   2.214   2.111 -0.2933  0.3584  0.1795
13536TIP3    H162023   2.847   2.126   2.133  0.3360  0.0738 -0.0631
13536TIP3    H262024   2.935   2.202   2.035 -0.0132  0.9429  0.2894
13537TIP3   OH262025   3.211   6.425  11.037 -0.0968 -0.3858 -0.3544
13537TIP3    H162026   3.208   6.495  10.973  1.0516  0.7083  0.7213
13537TIP3    H262027   3.305   6.408  11.049 -0.3160 -1.1754  0.3723
13538TIP3   OH262028   1.951   5.065   5.049 -0.1350  0.2302  0.0865
13538TIP3    H162029   1.863   5.053   5.083 -0.1301 -0.0503  0.0058
13538TIP3    H262030   1.960   4.998   4.981  0.3095 -0.0605  0.4232
13539TIP3   OH262031   5.704   6.313  12.688 -0.0619  0.4124 -0.0627
13539TIP3    H162032   5.673   6.252  12.622  0.1904 -1.1007  1.1398
13539TIP3    H262033   5.773   6.264  12.734 -0.0300  1.5131  1.1068
13540TIP3   OH262034   0.742   4.005  16.737  0.1423  0.1105 -0.4682
13540TIP3    H162035   0.818   4.050  16.700  0.5070  0.8037  1.0589
13540TIP3    H262036   0.735   4.038  16.826 -2.0894  0.2084 -0.6193
13541TIP3   OH262037   0.694   2.433   1.851 -0.1754 -0.2300  0.0706
13541TIP3    H162038   0.740   2.400   1.929 -0.4768 -1.3505 -0.1964
13541TIP3    H262039   0.628   2.366   1.834 -0.6337  0.4073 -0.6860
13542TIP3   OH262040   5.409   1.083   5.500  0.4098 -0.2297  0.5035
13542TIP3    H162041   5.379   1.066   5.589 -0.8986  1.4675  0.4353
13542TIP3    H262042   5.341   1.139   5.462  2.5884  1.9692 -0.4178
13543TIP3   OH262043   0.815   6.504   0.908 -0.1644 -0.1175  0.0655
13543TIP3    H162044   0.752   6.450   0.860  0.0253 -0.0826 -0.2255
13543TIP3    H262045   0.882   6.527   0.843  0.3999 -0.5452  0.4759
13544TIP3   OH262046   0.397   5.423  15.958  0.0035 -0.0155  0.1182
13544TIP3    H162047   0.453   5.345  15.959  0.1533  0.0902  1.1042
13544TIP3    H262048   0.318   5.396  15.911  0.1959 -0.6685  0.1685
13545TIP3   OH262049   4.385   3.710  11.802 -0.5887  0.1797 -0.6003
13545TIP3    H162050   4.343   3.654  11.737 -1.8705  0.7281 -0.2679
13545TIP3    H262051   4.329   3.787  11.807  0.8143  1.2456 -0.6110
13546TIP3   OH262052   2.743   1.635   4.824  0.4599  0.3364 -0.2019
13546TIP3    H162053   2.794   1.712   4.800  0.7185  0.0373 -0.6432
13546TIP3    H262054   2.801   1.584   4.880 -0.0054  0.8493  0.7520
13547TIP3   OH262055   1.288   4.782  11.895  0.5478  0.0050  0.2534
13547TIP3    H162056   1.220   4.715  11.897 -0.2469  0.6862 -1.9351
13547TIP3    H262057   1.305   4.797  11.802  3.8570 -0.2570  0.6782
13548TIP3   OH262058   3.800   5.126   0.187  0.4271  0.0429 -0.1686
13548TIP3    H162059   3.838   5.061   0.246  1.8773  1.1574  0.1943
13548TIP3    H262060   3.718   5.151   0.229 -0.6783 -2.2201 -0.8203
13549TIP3   OH262061   5.304   4.207   1.066 -0.3126  0.5771 -0.4840
13549TIP3    H162062   5.320   4.126   1.115 -1.8846  0.1302 -0.6338
13549TIP3    H262063   5.356   4.273   1.111  2.5400 -0.8206 -1.4877
13550TIP3   OH262064   2.173   0.246  12.086  0.1333  0.5264 -0.6015
13550TIP3    H162065   2.167   0.183  12.013  0.5259  1.7475 -1.7253
13550TIP3    H262066   2.105   0.310  12.067  0.5423  1.0993 -0.1279
13551TIP3   OH262067   6.165   5.875  12.226  0.5807  0.2202 -0.3648
13551TIP3    H162068   6.240   5.935  12.230  0.5618  0.2334 -0.2017
13551TIP3    H262069   6.158   5.840  12.314  0.3334  0.2930 -0.3545
13552TIP3   OH262070   1.573   3.227  10.820 -0.5083  0.2121  0.9148
13552TIP3    H162071   1.621   3.274  10.751 -0.5264 -0.5539  0.3658
13552TIP3    H262072   1.525   3.295  10.866 -1.3721  0.6256 -0.5375
13553TIP3   OH262073   3.101   1.234  11.522 -0.1166  0.2535 -0.3777
13553TIP3    H162074   3.137   1.306  11.470 -0.1685 -1.1135 -2.4452
13553TIP3    H262075   3.157   1.230  11.600  0.5729  1.7942 -0.7498
13554TIP3   OH262076   4.188   5.717  11.328  0.6172 -0.0908  0.2076
13554TIP3    H162077   4.164   5.731  11.236 -0.4228 -2.3328  0.0564
13554TIP3    H262078   4.273   5.674  11.324 -0.1857 -1.7671  0.1343
13555TIP3   OH262079   0.885   1.129  12.691 -0.2027 -0.1934 -0.2671
13555TIP3    H162080   0.794   1.157  12.701 -0.0796  0.0203  0.3103
13555TIP3    H262081   0.891   1.048  12.742 -0.0597 -0.1781 -0.2607
13556TIP3   OH262082   4.495   3.960   1.596 -0.3095  0.2055 -0.4913
13556TIP3    H162083   4.513   3.871   1.566 -0.6754 -0.1043  0.1778
13556TIP3    H262084   4.405   3.977   1.568 -1.4743 -0.9042  2.1874
13557TIP3   OH262085   0.541   4.329  14.127 -0.1657  0.0110  0.4667
13557TIP3    H162086   0.575   4.257  14.074  0.6792 -0.9728  2.2452
13557TIP3    H262087   0.552   4.299  14.218 -1.5974  1.5856  1.2180
13558TIP3   OH262088   1.817   3.120   2.437 -0.0435 -0.2383 -0.4463
13558TIP3    H162089   1.799   3.030   2.464 -0.2054  0.1513  0.8261
13558TIP3    H262090   1.895   3.145   2.487 -1.3252  1.0659  1.0003
13559TIP3   OH262091   1.013   0.519   4.654  0.0489  0.4762  0.5911
13559TIP3    H162092   0.951   0.547   4.721 -0.5395 -0.3887  0.4232
13559TIP3    H262093   0.962   0.465   4.594  1.0981 -0.8467  0.8345
13560TIP3   OH262094   2.051   5.913  10.350  0.0798  0.4375  0.2439
13560TIP3    H162095   2.001   5.890  10.272 -0.4236 -2.5586  1.3123
13560TIP3    H262096   2.137   5.872  10.337  0.5583  1.2677  0.6291
13561TIP3   OH262097   5.967   5.076  17.316  0.3919 -0.2350  0.2207
13561TIP3    H162098   6.004   5.143  17.374 -1.9700  0.6063  0.8609
13561TIP3    H262099   6.042   5.021  17.293  2.5113  2.7032 -0.5287
13562TIP3   OH262100   2.853   2.520   5.241  0.3531 -0.7890  0.3613
13562TIP3    H162101   2.911   2.500   5.315  2.3352  0.1429 -0.8704
13562TIP3    H262102   2.882   2.606   5.210 -2.7706  0.5263  0.6427
13563TIP3   OH262103   4.193   3.443   5.852 -0.3660  0.2157 -0.2352
13563TIP3    H162104   4.172   3.419   5.762  0.6814 -0.8087 -0.2296
13563TIP3    H262105   4.148   3.378   5.906 -1.8820  1.4558  0.0704
13564TIP3   OH262106   4.520   3.776  15.065 -0.6917 -0.2349  1.2964
13564TIP3    H162107   4.554   3.753  14.979 -2.5364  0.5573  0.3094
13564TIP3    H262108   4.471   3.698  15.093 -1.2433  0.0075  1.0091
13565TIP3   OH262109   3.707   3.900  11.047  0.3805  0.1203  0.4438
13565TIP3    H162110   3.620   3.910  11.085  0.2680  1.1636 -0.0712
13565TIP3    H262111   3.766   3.938  11.112  0.6322 -1.8002  1.4246
13566TIP3   OH262112   2.893   4.908   0.011  0.2876  0.4354  0.1074
13566TIP3    H162113   2.968   4.855   0.039 -0.2912  0.2038  1.2698
13566TIP3    H262114   2.843   4.851  -0.047  1.0437  0.6189 -0.7432
13567TIP3   OH262115   3.042   6.156  10.773  0.4581  0.7207 -0.0079
13567TIP3    H162116   3.106   6.085  10.766  1.4903  1.6443 -0.3712
13567TIP3    H262117   3.008   6.166  10.684 -0.7680 -0.2564  0.3304
13568TIP3   OH262118   0.301   3.015  16.184 -0.1109 -0.3753 -0.0929
13568TIP3    H162119   0.373   3.075  16.202  0.1702 -0.2837 -1.3992
13568TIP3    H262120   0.337   2.928  16.205  0.3651 -0.3195 -0.6290
13569TIP3   OH262121   0.909   5.692  16.336 -0.2394  0.1957 -0.3036
13569TIP3    H162122   0.840   5.627  16.340 -2.0287  2.0102  0.2405
13569TIP3    H262123   0.985   5.645  16.303 -1.7659 -1.8537 -1.1112
13570TIP3   OH262124   6.041   0.823  16.830 -0.0438  0.3864 -0.7213
13570TIP3    H162125   6.013   0.764  16.760 -1.1243 -2.4838  1.8924
13570TIP3    H262126   5.959   0.862  16.862  0.0418 -0.4681  0.6346
13571TIP3   OH262127   6.107   2.387  16.883 -0.8313 -0.8056 -0.1951
13571TIP3    H162128   6.037   2.329  16.853 -2.7559 -0.1846  2.6612
13571TIP3    H262129   6.079   2.474  16.857 -1.1759 -0.5542  0.9507
13572TIP3   OH262130   4.948   4.531   5.292 -0.1029  0.0396 -0.1252
13572TIP3    H162131   4.875   4.525   5.354 -0.1319 -1.8371 -0.2851
13572TIP3    H262132   4.912   4.577   5.216 -1.1505 -0.8689 -0.2008
13573TIP3   OH262133   5.954   4.126  12.062 -0.6441  0.2494  0.0201
13573TIP3    H162134   6.048   4.105  12.057 -0.6353 -0.6335  2.4214
13573TIP3    H262135   5.918   4.091  11.980  1.0195  0.0688 -0.6933
13574TIP3   OH262136   1.398   5.951  12.849  0.8401 -0.3465  0.1590
13574TIP3    H162137   1.452   6.024  12.880  0.1474  1.1206 -1.8698
13574TIP3    H262138   1.433   5.931  12.762 -2.0907  1.0662 -1.5059
13575TIP3   OH262139   5.549   4.495   5.590 -0.2110 -0.1444  0.3319
13575TIP3    H162140   5.585   4.429   5.649  0.6706 -0.0427 -0.0915
13575TIP3    H262141   5.621   4.520   5.533 -0.7275  0.6555  0.0038
13576TIP3   OH262142   3.696   0.265   4.272 -0.6696  0.2928 -0.0464
13576TIP3    H162143   3.640   0.302   4.204 -0.8451  2.6223  1.2488
13576TIP3    H262144   3.785   0.275   4.239 -0.8537 -1.8502 -1.3759
13577TIP3   OH262145   4.374   1.885  14.296  0.1169  0.1613 -0.0886
13577TIP3    H162146   4.374   1.948  14.225  0.5886 -0.4738 -0.6629
13577TIP3    H262147   4.408   1.805  14.257 -1.6193 -0.8096  0.3202
13578TIP3   OH262148   6.687   2.678   0.201 -0.3610  0.2427 -0.0286
13578TIP3    H162149   6.735   2.758   0.222 -0.1100  0.0166  0.2587
13578TIP3    H262150   6.606   2.684   0.252 -0.3283  0.2934  0.0160
13579TIP3   OH262151   2.381   3.913  11.405  0.6030 -0.7304  0.0554
13579TIP3    H162152   2.470   3.906  11.437 -0.5046 -0.8765  3.4185
13579TIP3    H262153   2.343   3.986  11.454 -1.3138 -1.0391 -0.8597
13580TIP3   OH262154   3.826   6.736   4.210  0.5143  0.2777 -0.0185
13580TIP3    H162155   3.736   6.713   4.186 -0.1577  2.0441  0.6709
13580TIP3    H262156   3.839   6.695   4.295  0.9347 -1.2658 -0.7872
13581TIP3   OH262157   0.508   1.176  11.639  0.4120  0.4197  0.1309
13581TIP3    H162158   0.465   1.258  11.663 -0.7333 -0.5557  1.5987
13581TIP3    H262159   0.601   1.190  11.659  0.3727  1.6080 -0.4287
13582TIP3   OH262160   4.754   1.937  15.693 -0.2210 -0.2692 -0.0839
13582TIP3    H162161   4.721   1.972  15.611 -0.3045 -1.4307 -0.5722
13582TIP3    H262162   4.691   1.966  15.759 -1.3997 -1.1782 -0.7703
13583TIP3   OH262163   4.361   0.403   0.864 -0.4442  0.0421  0.5473
13583TIP3    H162164   4.320   0.471   0.810  1.0275  1.8703  1.5719
13583TIP3    H262165   4.343   0.321   0.818 -0.7448  1.3182 -1.7863
13584TIP3   OH262166   2.234   4.453  11.595 -0.3495  0.0224  0.1373
13584TIP3    H162167   2.167   4.399  11.636 -0.4819 -0.0569 -0.1865
13584TIP3    H262168   2.276   4.499  11.669 -2.2656  1.8366  0.1855
13585TIP3   OH262169   5.719   0.010  12.460 -0.1392 -0.6887  0.9680
13585TIP3    H162170   5.772  -0.066  12.480  0.0427 -0.0890  2.9186
13585TIP3    H262171   5.745   0.076  12.524 -1.4809  0.4484  0.4101
13586TIP3   OH262172   6.427   3.863   4.209  0.0255  0.2855 -0.1577
13586TIP3    H162173   6.448   3.887   4.299 -1.0941 -1.6104  0.6893
13586TIP3    H262174   6.401   3.945   4.167  0.9705  1.2710  1.1109
13587TIP3   OH262175   6.679   6.725   5.317 -0.1712  0.2794  0.2752
13587TIP3    H162176   6.610   6.702   5.379  1.5381 -1.2640  1.6939
13587TIP3    H262177   6.665   6.667   5.242 -1.4825  1.2789 -0.3004
13588TIP3   OH262178   6.234   4.175   4.433  0.0821  0.2643  0.2263
13588TIP3    H162179   6.323   4.184   4.466  0.7816 -0.3934 -1.3811
13588TIP3    H262180   6.192   4.258   4.455  1.2252  0.7555  0.6394
13589TIP3   OH262181   5.070   2.405  11.435  0.8404  0.8565  0.5190
13589TIP3    H162182   5.004   2.463  11.473 -1.7573 -1.8357  0.4567
13589TIP3    H262183   5.106   2.357  11.510 -1.0710 -1.2952  0.1467
13590TIP3   OH262184   1.922   5.277   4.783  0.5275  0.9377  0.4353
13590TIP3    H162185   1.833   5.298   4.753 -0.2146 -0.9552  1.1558
13590TIP3    H262186   1.924   5.308   4.874 -0.2912 -1.1267  1.2287
13591TIP3   OH262187   1.330   4.248  12.411  0.1142  0.0919  0.0403
13591TIP3    H162188   1.262   4.315  12.412 -0.3633 -0.3689 -0.5537
13591TIP3    H262189   1.320   4.205  12.326  0.3068 -0.8367  0.4737
13592TIP3   OH262190   6.228   4.674  12.117  0.0478 -0.3029  0.0962
13592TIP3    H162191   6.238   4.748  12.177 -3.0920  0.0920  0.2973
13592TIP3    H262192   6.193   4.712  12.037  0.5019 -1.3097 -0.5996
13593TIP3   OH262193   4.136   3.196   2.443 -0.5570  0.1312 -0.1821
13593TIP3    H162194   4.096   3.267   2.493  2.3157  1.0931  0.9634
13593TIP3    H262195   4.163   3.132   2.508  2.0622  0.7850 -0.5077
13594TIP3   OH262196   1.290   6.426  14.753 -0.3348  0.1210 -0.7634
13594TIP3    H162197   1.358   6.386  14.700  0.2053 -1.7911  1.2226
13594TIP3    H262198   1.328   6.509  14.782  1.3094 -1.0045  0.4776
13595TIP3   OH262199   1.420   1.842   6.383 -0.5080  0.2369  0.2403
13595TIP3    H162200   1.351   1.905   6.401 -1.1643 -0.7879  1.4500
13595TIP3    H262201   1.402   1.768   6.442  2.3240  0.4352  1.5261
13596TIP3   OH262202   0.597   1.016  16.779 -0.0805  0.0972 -0.2321
13596TIP3    H162203   0.620   0.998  16.688  1.3020  2.3108 -0.3997
13596TIP3    H262204   0.647   1.095  16.801 -3.2518  1.9228  1.2488
13597TIP3   OH262205   6.497   6.402  15.335  0.5764 -0.4786  0.1760
13597TIP3    H162206   6.502   6.489  15.373  0.8583 -0.1504 -0.6177
13597TIP3    H262207   6.587   6.369  15.337  1.2224  0.7594 -3.0241
13598TIP3   OH262208   5.729   2.850  15.828  0.4218  0.1771 -0.5208
13598TIP3    H162209   5.714   2.869  15.921  0.3161  1.6694 -0.8091
13598TIP3    H262210   5.816   2.811  15.825  0.2480 -0.2847  0.2514
13599TIP3   OH262211   6.366   3.349  10.917  0.2579 -0.1963 -0.8173
13599TIP3    H162212   6.380   3.409  10.843 -0.9283  0.6913 -0.3643
13599TIP3    H262213   6.380   3.404  10.995  0.7458 -0.9265 -0.3825
13600TIP3   OH262214   0.171   2.561  16.839 -0.5747 -0.0225  0.5668
13600TIP3    H162215   0.106   2.566  16.909 -1.3646 -0.4764 -0.1224
13600TIP3    H262216   0.202   2.652  16.828 -1.5615  0.3074  0.4666
13601TIP3   OH262217   2.534   0.803  12.140 -0.2180 -0.0317  0.5626
13601TIP3    H162218   2.472   0.876  12.145  0.5292  0.6045  0.8014
13601TIP3    H262219   2.565   0.804  12.050 -0.8481 -0.6176  0.3254
13602TIP3   OH262220   3.148   3.348   0.653  0.2952  0.1234  0.3817
13602TIP3    H162221   3.205   3.273   0.632 -0.5391 -0.8000  1.2947
13602TIP3    H262222   3.129   3.338   0.746 -2.5511 -0.4638 -0.1814
13603TIP3   OH262223   3.483   2.911   2.929  0.3102 -0.1266  0.0314
13603TIP3    H162224   3.538   2.868   2.994 -0.3209 -1.5018 -0.3055
13603TIP3    H262225   3.402   2.932   2.975  0.3823  0.1459  0.0359
13604TIP3   OH262226   2.019   0.945   5.453 -0.6611 -0.0466  0.1087
13604TIP3    H162227   1.939   0.895   5.470  0.3806 -2.4898 -1.6621
13604TIP3    H262228   2.004   0.985   5.367 -0.7084  1.1173  0.6420
13605TIP3   OH262229   2.179   2.690  14.039  0.4585 -0.5228  0.2223
13605TIP3    H162230   2.141   2.669  14.124  0.4088  0.6550  0.5144
13605TIP3    H262231   2.115   2.749  13.998  0.3620 -1.2636 -0.7513
13606TIP3   OH262232   4.722   6.646  15.528 -0.2557 -0.0223  0.4019
13606TIP3    H162233   4.755   6.576  15.471 -1.2535  0.4258 -0.7936
13606TIP3    H262234   4.713   6.605  15.614 -1.6895 -1.6791 -0.4597
13607TIP3   OH262235   3.111   4.823   3.342  0.3529  0.2627  0.3786
13607TIP3    H162236   3.165   4.745   3.347 -0.4072 -0.2641  0.5087
13607TIP3    H262237   3.086   4.830   3.250 -1.3506 -0.8992  0.7028
13608TIP3   OH262238   3.364   2.244   5.357 -0.0437  0.6550 -0.4919
13608TIP3    H162239   3.390   2.167   5.307  0.2558  0.4965 -0.0915
13608TIP3    H262240   3.358   2.213   5.447  0.3437  1.1639 -0.2902
13609TIP3   OH262241   5.246   6.173   3.190  0.0559  0.1542  0.4941
13609TIP3    H162242   5.325   6.122   3.206  1.0912  0.5634 -2.6134
13609TIP3    H262243   5.277   6.263   3.177 -0.9039  0.3864 -0.4405
13610TIP3   OH262244   1.233   0.449   2.733 -0.4809  0.9690  0.4848
13610TIP3    H162245   1.192   0.534   2.719 -0.0891  0.9968 -0.5947
13610TIP3    H262246   1.295   0.464   2.805  0.8450  2.0779 -0.8091
13611TIP3   OH262247   3.763   3.357  16.502 -0.0061 -0.4090 -0.1853
13611TIP3    H162248   3.716   3.439  16.517  0.7406  0.0334 -0.2137
13611TIP3    H262249   3.769   3.350  16.407 -0.0058 -0.4674 -0.1805
13612TIP3   OH262250   6.384   3.037   1.228  0.8972  0.0906  0.5208
13612TIP3    H162251   6.353   2.949   1.207  0.1623  0.6723 -0.9910
13612TIP3    H262252   6.402   3.035   1.322  0.6862 -1.5971  0.5478
13613TIP3   OH262253   2.555   6.082   1.731 -0.2097 -0.0193  0.2884
13613TIP3    H162254   2.623   6.031   1.688 -1.0980 -0.7222 -0.3327
13613TIP3    H262255   2.598   6.163   1.757  0.3294  0.5334 -2.1097
13614TIP3   OH262256   5.156   3.671  14.917  0.0318 -0.6046 -0.1646
13614TIP3    H162257   5.079   3.681  14.973 -0.1191 -1.7652 -0.1315
13614TIP3    H262258   5.228   3.711  14.967 -0.5293  0.4298 -0.1698
13615TIP3   OH262259   0.511   3.803  16.294 -0.1229 -0.0693 -0.7206
13615TIP3    H162260   0.564   3.809  16.214  1.0794  0.5979  0.0967
13615TIP3    H262261   0.548   3.729  16.341 -1.3605 -0.9786 -1.1318
13616TIP3   OH262262   0.648   0.143   6.513  0.6792  0.0297  0.2211
13616TIP3    H162263   0.707   0.144   6.589  1.0291 -1.7020  0.0121
13616TIP3    H262264   0.615   0.053   6.509  0.2200  0.2336 -1.3427
13617TIP3   OH262265   5.141   4.541  16.294  0.0526 -0.0458  0.2419
13617TIP3    H162266   5.092   4.614  16.331  2.0317  0.6544  1.6731
13617TIP3    H262267   5.144   4.476  16.365  0.8059 -0.2344  0.0514
13618TIP3   OH262268   1.809   3.864   6.706 -0.0481 -0.6413 -0.0719
13618TIP3    H162269   1.827   3.958   6.708 -1.6177 -0.3164  1.3401
13618TIP3    H262270   1.862   3.828   6.776  0.5807 -0.8294 -0.6362
13619TIP3   OH262271   2.021   3.466   4.068 -0.5995  0.0419  0.0790
13619TIP3    H162272   2.004   3.378   4.036  1.0806  0.5944 -2.6579
13619TIP3    H262273   2.112   3.464   4.098 -0.0109  1.1606 -1.5047
13620TIP3   OH262274   2.196   4.149   2.970 -0.1715 -0.3235  0.0081
13620TIP3    H162275   2.258   4.217   2.943 -0.3282 -0.6734 -1.3048
13620TIP3    H262276   2.125   4.197   3.012 -0.9136  0.4976 -2.0461
13621TIP3   OH262277   1.023   3.261   1.368 -0.0694  0.1888  0.3989
13621TIP3    H162278   1.005   3.213   1.448 -1.9373  0.9295  0.4727
13621TIP3    H262279   1.028   3.193   1.300  0.2309 -0.3324  0.9364
13622TIP3   OH262280   3.974   6.666   3.165 -0.3323  0.1022  0.1047
13622TIP3    H162281   3.926   6.591   3.129 -0.3805 -0.7419  1.8036
13622TIP3    H262282   3.917   6.700   3.234 -0.7391  2.3597 -1.2403
13623TIP3   OH262283   2.399   3.687   2.822 -0.0282 -0.0017  0.2338
13623TIP3    H162284   2.407   3.774   2.861  0.0994 -0.4395  1.2173
13623TIP3    H262285   2.471   3.683   2.759 -0.8366  1.0822 -0.7841
13624TIP3   OH262286   5.562   5.427   1.188  0.5069  0.1650 -0.2883
13624TIP3    H162287   5.530   5.379   1.111 -0.3978 -1.5365  1.0568
13624TIP3    H262288   5.488   5.425   1.249  1.6760  0.1509  1.1737
13625TIP3   OH262289   4.483   3.241  13.749 -0.0016 -0.0285  0.0580
13625TIP3    H162290   4.574   3.253  13.723  0.1137  1.1014  0.8942
13625TIP3    H262291   4.488   3.196  13.834  0.0016  3.1278  1.8889
13626TIP3   OH262292   6.263   3.040  11.823 -0.0671  0.3055  0.0584
13626TIP3    H162293   6.216   3.054  11.906 -0.9677  0.6384 -0.4918
13626TIP3    H262294   6.285   3.128  11.793  1.9441  0.1253  0.8546
13627TIP3   OH262295   6.353   2.945  13.828  0.3353 -0.3325 -0.4474
13627TIP3    H162296   6.434   2.991  13.808  0.1392 -0.1957 -0.9363
13627TIP3    H262297   6.331   2.900  13.747 -0.0353 -0.4387 -0.2893
13628TIP3   OH262298   6.294   5.191   5.024 -0.3101 -0.9350 -0.3313
13628TIP3    H162299   6.387   5.198   5.045 -0.0612 -1.2821 -1.2598
13628TIP3    H262300   6.271   5.101   5.044 -0.2676 -1.0445 -0.7578
13629TIP3   OH262301   5.272   5.843   6.348  0.1030  0.5492 -0.0477
13629TIP3    H162302   5.307   5.763   6.388 -1.3739 -0.0616  0.0834
13629TIP3    H262303   5.232   5.890   6.421  1.8473  1.9492  0.0702
13630TIP3   OH262304   2.368   0.560   2.708  0.2021 -0.4349  0.2355
13630TIP3    H162305   2.333   0.605   2.784 -0.1136  0.7978 -0.6143
13630TIP3    H262306   2.337   0.611   2.633  3.1953  0.3450 -0.6033
13631TIP3   OH262307   1.154   2.152  16.569  0.1193  0.8535  0.4018
13631TIP3    H162308   1.098   2.081  16.539 -3.0813  2.8243  1.2507
13631TIP3    H262309   1.110   2.232  16.540  2.4562  2.5701  1.2725
13632TIP3   OH262310   6.441   6.674   5.465 -0.0775 -0.2034 -0.2300
13632TIP3    H162311   6.380   6.739   5.500  2.2068  0.8458  2.1964
13632TIP3    H262312   6.450   6.609   5.535  0.7172 -0.9519 -1.0012
13633TIP3   OH262313   3.888   2.375  11.370  0.2224  0.3963 -0.1371
13633TIP3    H162314   3.972   2.345  11.403  0.8412 -0.5129 -2.3334
13633TIP3    H262315   3.887   2.346  11.278 -1.7797  1.8226 -0.6272
13634TIP3   OH262316   2.339   4.662  13.442 -1.1395 -0.1263  0.6064
13634TIP3    H162317   2.270   4.598  13.422 -1.8892  0.4932  1.1747
13634TIP3    H262318   2.420   4.611  13.439 -1.7159 -1.0960  0.9952
13635TIP3   OH262319   3.637   4.561   5.127  0.3191 -0.1742  0.5274
13635TIP3    H162320   3.678   4.565   5.040  1.1630 -0.2132  0.9212
13635TIP3    H262321   3.708   4.537   5.186 -0.0546  0.7150  1.3625
13636TIP3   OH262322   6.488   2.126  13.907 -0.0815  0.0413  0.0519
13636TIP3    H162323   6.579   2.158  13.902 -0.6559  1.5978 -1.2863
13636TIP3    H262324   6.435   2.206  13.907 -1.5879 -0.7941 -3.0504
13637TIP3   OH262325   5.538   6.268   4.617  0.4138  0.5682 -0.1660
13637TIP3    H162326   5.531   6.178   4.587 -2.0013  0.0535  1.7041
13637TIP3    H262327   5.525   6.321   4.538  0.2938 -0.6966 -1.0157
13638TIP3   OH262328   3.966   0.762   1.203 -0.0722 -0.1236 -0.2260
13638TIP3    H162329   3.992   0.670   1.216  0.3394  0.0070 -0.1125
13638TIP3    H262330   3.993   0.782   1.113  0.7717  0.1897  0.0877
13639TIP3   OH262331   4.373   2.656  13.055  0.2085 -0.1281 -0.1433
13639TIP3    H162332   4.382   2.699  13.140  0.2483 -2.3025  1.0012
13639TIP3    H262333   4.452   2.604  13.045 -0.2014 -0.5959 -1.1140
13640TIP3   OH262334   5.522   4.588  12.963 -0.4280 -0.7283  0.0199
13640TIP3    H162335   5.434   4.590  12.926 -0.6137 -0.4576  0.4668
13640TIP3    H262336   5.557   4.675  12.946 -0.8246 -0.3166  1.1924
13641TIP3   OH262337   6.121   2.460   4.972 -0.2999 -0.3363  0.3167
13641TIP3    H162338   6.082   2.462   5.060 -0.8183  1.7578  0.0818
13641TIP3    H262339   6.206   2.417   4.985 -0.3303 -0.0033  1.8709
13642TIP3   OH262340   3.039   3.134  12.720  0.0348 -0.9717  1.0208
13642TIP3    H162341   2.950   3.166  12.703 -0.3174 -2.0222  0.8042
13642TIP3    H262342   3.026   3.052  12.768  0.8579 -1.5730  0.2510
13643TIP3   OH262343   2.812   2.375  11.589 -0.0549 -0.1052 -0.6567
13643TIP3    H162344   2.839   2.306  11.649  2.3331  1.6578  0.4809
13643TIP3    H262345   2.716   2.372  11.591 -0.1674 -0.1295  3.4288
13644TIP3   OH262346   0.032   1.188   5.806  0.2090 -0.2293  0.3339
13644TIP3    H162347   0.074   1.257   5.857 -0.0640  0.3431 -0.1943
13644TIP3    H262348   0.017   1.117   5.868 -1.3917  0.9827  1.4098
13645TIP3   OH262349   4.561   3.598   3.965 -0.7705  0.7500  0.1137
13645TIP3    H162350   4.628   3.591   4.033 -1.0403 -0.3610  0.2745
13645TIP3    H262351   4.609   3.632   3.889 -0.1999  0.7714  0.4711
13646TIP3   OH262352   4.259   2.630  17.204  0.8218 -0.2188  0.3093
13646TIP3    H162353   4.202   2.677  17.266  1.4931 -0.1401  0.8870
13646TIP3    H262354   4.245   2.538  17.224  1.4352 -0.1793  0.9584
13647TIP3   OH262355   6.618   4.813  11.275 -0.5588 -0.6574  0.1889
13647TIP3    H162356   6.661   4.776  11.197  2.9008  1.6020  0.8135
13647TIP3    H262357   6.550   4.870  11.240 -1.7892 -2.6692 -0.9373
13648TIP3   OH262358   1.222   1.626  13.906  0.2371  0.6175  0.5101
13648TIP3    H162359   1.305   1.593  13.872 -0.0975  0.5977 -0.3269
13648TIP3    H262360   1.166   1.632  13.828 -0.3779  1.1156  0.9868
13649TIP3   OH262361   6.345   3.666  15.944 -0.1714 -0.1208  0.4847
13649TIP3    H162362   6.307   3.754  15.949 -0.9127 -0.4787  1.8410
13649TIP3    H262363   6.277   3.609  15.980  0.8711 -1.0488  1.0642
13650TIP3   OH262364   2.180   0.105  11.861  0.3774  0.0098  0.2306
13650TIP3    H162365   2.165   0.161  11.785  2.1045  1.5483  0.9412
13650TIP3    H262366   2.114   0.036  11.853 -0.5353  1.0136 -1.7723
13651TIP3   OH262367   1.269   3.453  14.584 -0.1279  0.0308  0.6728
13651TIP3    H162368   1.238   3.469  14.673  1.5988 -2.2118  1.7836
13651TIP3    H262369   1.215   3.380  14.553 -0.4338  0.5255  0.0130
13652TIP3   OH262370   2.036   4.243   1.368  0.7795  0.8398 -0.0857
13652TIP3    H162371   2.029   4.324   1.420 -4.0509  0.0422  0.9919
13652TIP3    H262372   2.005   4.268   1.281  1.2587  0.5621 -0.3369
13653TIP3   OH262373   0.610   6.595  12.687  0.5150 -0.1135  0.1074
13653TIP3    H162374   0.676   6.540  12.645 -0.6519 -1.3491 -0.1555
13653TIP3    H262375   0.526   6.561  12.656 -0.2886  1.0152  0.9323
13654TIP3   OH262376   5.109   3.142  13.125  0.4789  0.2350  0.3946
13654TIP3    H162377   5.162   3.196  13.183 -1.0352  0.9448  1.1421
13654TIP3    H262378   5.029   3.124  13.173  0.4570 -1.7794 -0.2672
13655TIP3   OH262379   4.124   0.005   4.174 -0.1602  0.3548  0.2626
13655TIP3    H162380   4.089   0.066   4.109 -0.2926  0.2271  0.2131
13655TIP3    H262381   4.046  -0.032   4.215 -0.0784  0.2094  0.2839
13656TIP3   OH262382   5.267   6.390   1.915  0.2191 -0.4894 -0.0836
13656TIP3    H162383   5.273   6.357   2.005  0.6065 -0.4473 -0.0925
13656TIP3    H262384   5.224   6.321   1.866 -0.3800 -0.3439  0.2222
13657TIP3   OH262385   1.895   2.221  15.239 -0.1248 -0.3241  0.2172
13657TIP3    H162386   1.884   2.280  15.165  0.8576 -0.3179  0.0592
13657TIP3    H262387   1.822   2.240  15.297  0.1738  1.0473  0.1673
13658TIP3   OH262388   6.064   2.302   1.830 -0.0541  0.4420  0.6566
13658TIP3    H162389   6.037   2.376   1.884 -1.2159 -0.1304  0.8988
13658TIP3    H262390   6.135   2.261   1.880  0.0097  0.8901  0.9348
13659TIP3   OH262391   4.005   2.987   5.271 -0.1918  0.3613 -0.0399
13659TIP3    H162392   3.944   3.052   5.236  1.2283  1.0521 -1.3449
13659TIP3    H262393   4.002   2.915   5.209 -1.8991 -0.9976  1.5004
13660TIP3   OH262394   2.715   2.183   4.797 -0.3197 -0.0836 -0.0752
13660TIP3    H162395   2.737   2.099   4.835 -1.5343 -0.4248 -0.0799
13660TIP3    H262396   2.681   2.235   4.870 -2.6356 -0.7338 -0.5888
13661TIP3   OH262397   4.525   1.673  14.163 -0.4224 -0.1170  0.2825
13661TIP3    H162398   4.531   1.617  14.085  1.7407 -0.0560  0.3452
13661TIP3    H262399   4.604   1.653  14.213  0.2671  2.7329  0.4888
13662TIP3   OH262400   2.567   4.376   4.292 -0.0734 -0.4664  0.3473
13662TIP3    H162401   2.552   4.284   4.268  0.9739 -1.4271  3.0500
13662TIP3    H262402   2.651   4.398   4.252  0.7240 -1.4126  1.4495
13663TIP3   OH262403   0.977   3.112  14.072 -0.1586 -0.0933 -0.3548
13663TIP3    H162404   1.059   3.067  14.092 -0.2313  0.0933  0.4075
13663TIP3    H262405   0.947   3.146  14.156  0.4430  2.3178 -1.0206
13664TIP3   OH262406   6.450   1.410   5.673 -0.2051 -0.0608 -0.0670
13664TIP3    H162407   6.435   1.400   5.579  1.0703  3.1403 -0.7480
13664TIP3    H262408   6.368   1.447   5.706 -0.2914 -0.1899 -0.1369
13665TIP3   OH262409   4.761   2.239  14.164  0.4819  0.1471 -0.0527
13665TIP3    H162410   4.750   2.332  14.147 -0.9885  0.2793  1.3387
13665TIP3    H262411   4.684   2.215  14.216  1.1755 -1.6915  0.2064
13666TIP3   OH262412   1.740   5.166  16.386 -0.0040  0.0104  0.4647
13666TIP3    H162413   1.761   5.163  16.293  0.4529  1.9391  0.4515
13666TIP3    H262414   1.816   5.128  16.429 -0.8964 -2.4143  0.0388
13667TIP3   OH262415   5.431   3.929   0.442  0.6739 -0.1954  0.4888
13667TIP3    H162416   5.489   4.001   0.469 -0.8834  0.9658  0.8485
13667TIP3    H262417   5.349   3.946   0.488 -0.3435 -1.1396 -0.9138
13668TIP3   OH262418   3.513   5.732  11.764 -0.4244  0.0791 -0.6857
13668TIP3    H162419   3.546   5.800  11.705 -3.2814  0.4830 -1.9712
13668TIP3    H262420   3.452   5.682  11.711  0.7608 -2.9051  0.5416
13669TIP3   OH262421   0.428   3.164   2.073  0.3036 -0.7140  0.2101
13669TIP3    H162422   0.418   3.075   2.039 -1.7435 -1.0156  1.4577
13669TIP3    H262423   0.362   3.171   2.142  0.5974  1.6882  0.3287
13670TIP3   OH262424   3.247   5.264   4.990 -0.3950  0.1346  0.2626
13670TIP3    H162425   3.323   5.320   4.973 -1.4843  1.4555 -0.4639
13670TIP3    H262426   3.284   5.185   5.029  1.2694  1.0714  0.6860
13671TIP3   OH262427   1.147   2.007   2.271 -0.3777  0.3738 -0.1055
13671TIP3    H162428   1.108   1.986   2.187  0.8267 -1.1451 -0.3260
13671TIP3    H262429   1.188   1.926   2.300  1.2032  1.4473  0.8523
13672TIP3   OH262430   0.550   0.119  12.287  0.6410  0.2890  0.4958
13672TIP3    H162431   0.593   0.181  12.228 -0.1576  1.3525  0.9929
13672TIP3    H262432   0.621   0.063  12.319  1.4498  1.1738  0.3028
13673TIP3   OH262433   2.303   0.800   5.726  0.7003  0.3447  0.1952
13673TIP3    H162434   2.208   0.808   5.728  0.7718  1.1671  1.1643
13673TIP3    H262435   2.329   0.839   5.643  0.2121  0.3477  0.0422
13674TIP3   OH262436   3.596   5.168   1.742  0.1834 -0.1637 -0.4437
13674TIP3    H162437   3.602   5.122   1.826 -1.8713  0.4363  0.0941
13674TIP3    H262438   3.515   5.218   1.748  0.6681  0.9496 -2.2910
13675TIP3   OH262439   5.067   3.504   4.247  0.2670  0.0871 -0.0371
13675TIP3    H162440   5.115   3.438   4.296  1.7890  0.5156 -0.8979
13675TIP3    H262441   5.058   3.467   4.160 -0.4003  0.2948 -0.0575
13676TIP3   OH262442   6.290   0.967   2.264 -0.1276 -0.7844  0.3052
13676TIP3    H162443   6.327   0.970   2.176 -2.4326 -0.1358 -0.7203
13676TIP3    H262444   6.288   1.058   2.293  1.6956 -1.1049  1.5576
13677TIP3   OH262445   4.155   4.286  16.889 -0.1986  0.2488 -0.2183
13677TIP3    H162446   4.219   4.344  16.928 -0.3135  0.1101  0.1787
13677TIP3    H262447   4.199   4.202  16.882 -0.7478 -0.1954  1.2732
13678TIP3   OH262448   3.053   4.881  13.312 -0.7201  0.2688  0.6016
13678TIP3    H162449   2.967   4.859  13.347 -2.3249  1.0703 -2.4180
13678TIP3    H262450   3.048   4.975  13.293 -0.0493 -0.0878 -1.6155
13679TIP3   OH262451   4.363   5.983  11.463  0.0395  0.4363  0.3614
13679TIP3    H162452   4.351   5.892  11.435 -1.9529 -0.3511  3.3160
13679TIP3    H262453   4.418   5.976  11.542  0.3968  1.8823  0.2609
13680TIP3   OH262454   4.080   2.229  12.874  0.3212  0.0238 -0.0231
13680TIP3    H162455   4.073   2.135  12.859 -0.1211  0.2532 -1.3211
13680TIP3    H262456   4.000   2.266  12.838 -0.3259  0.7595  1.9991
13681TIP3   OH262457   5.243   4.037  12.176  0.0857  0.0252 -0.6710
13681TIP3    H162458   5.270   3.975  12.243 -1.3652 -0.6468 -0.6748
13681TIP3    H262459   5.227   3.984  12.099 -0.4753  0.4973 -0.8868
13682TIP3   OH262460   2.510   0.032  12.155 -0.5047 -0.1164  0.1674
13682TIP3    H162461   2.431   0.082  12.176  0.1587 -0.0022  2.8111
13682TIP3    H262462   2.522   0.044  12.061 -2.2233  1.9442  0.1288
13683TIP3   OH262463   6.313   3.454  15.351  0.5999 -0.6203 -0.1783
13683TIP3    H162464   6.347   3.387  15.292 -0.5197 -1.5121  0.1480
13683TIP3    H262465   6.224   3.424  15.372  0.4784  0.4054  0.8490
13684TIP3   OH262466   0.189   3.186  14.271  0.0738  0.3611 -0.3365
13684TIP3    H162467   0.153   3.215  14.188 -1.6820 -1.0138 -0.1089
13684TIP3    H262468   0.257   3.123  14.247  0.4995  0.9611 -0.7305
13685TIP3   OH262469   2.168   1.000   0.362 -0.0201 -0.4608  0.2596
13685TIP3    H162470   2.192   1.002   0.454  0.9318  1.2923  0.0077
13685TIP3    H262471   2.190   0.911   0.333 -0.6502 -1.1476  1.7668
13686TIP3   OH262472   4.660   4.729  12.471  0.2936  0.4214 -0.0723
13686TIP3    H162473   4.630   4.720  12.561 -0.9905  0.8445 -0.4408
13686TIP3    H262474   4.602   4.795  12.433 -0.0116 -0.6449 -1.5569
13687TIP3   OH262475   2.124   4.862  11.255 -0.2278  0.1572  0.6961
13687TIP3    H162476   2.172   4.906  11.325  0.3236  1.8201 -0.6501
13687TIP3    H262477   2.185   4.860  11.182 -1.8252  1.5030 -0.7883
13688TIP3   OH262478   6.191   1.483   0.585 -0.3277 -0.5618 -0.4382
13688TIP3    H162479   6.158   1.541   0.517  1.3159 -1.0924 -1.7350
13688TIP3    H262480   6.275   1.451   0.552  0.4201 -1.0361  1.7218
13689TIP3   OH262481   1.721   2.291  12.022  0.2225  0.7752  0.0391
13689TIP3    H162482   1.684   2.364  11.972  2.3500  1.3197 -0.8546
13689TIP3    H262483   1.780   2.247  11.961 -0.7136 -1.5113  0.6824
13690TIP3   OH262484   2.111   5.657  13.626 -0.0972  0.9268 -0.3057
13690TIP3    H162485   2.080   5.729  13.571 -0.2941  0.5114 -0.7508
13690TIP3    H262486   2.051   5.585  13.606  0.8398  0.2682 -0.7738
13691TIP3   OH262487   0.113   3.951  14.265 -0.0514 -0.4161  0.0621
13691TIP3    H162488   0.157   4.003  14.197  0.2392 -2.4413 -1.3827
13691TIP3    H262489   0.155   3.865  14.261 -0.5962 -0.8447  2.2909
13692TIP3   OH262490   3.226   4.520   2.904  0.3369 -0.6297 -0.6719
13692TIP3    H162491   3.258   4.513   2.994 -3.0275 -1.4399  0.6065
13692TIP3    H262492   3.226   4.614   2.885  1.0476 -0.4496  0.1795
13693TIP3   OH262493   2.597   2.339  11.363  0.2753  0.1124 -0.3733
13693TIP3    H162494   2.668   2.322  11.301 -1.3425 -3.7699 -1.4635
13693TIP3    H262495   2.627   2.301  11.445  0.4770  0.8707 -0.0890
13694TIP3   OH262496   1.441   5.461   6.391  0.0074 -0.6057  0.6283
13694TIP3    H162497   1.465   5.406   6.316 -0.8676 -0.9886  0.6093
13694TIP3    H262498   1.467   5.411   6.468  1.9864  0.2973  0.5988
13695TIP3   OH262499   1.677   3.789   5.150 -0.0712  0.1282 -0.1406
13695TIP3    H162500   1.733   3.754   5.081 -0.0436 -0.3372  0.1161
13695TIP3    H262501   1.632   3.863   5.109 -0.2371 -0.2923 -0.7354
13696TIP3   OH262502   0.713   2.642   3.689 -0.5005  0.5306 -0.0699
13696TIP3    H162503   0.762   2.568   3.651 -1.4944  0.0905 -0.5345
13696TIP3    H262504   0.670   2.682   3.614 -0.2164  1.4056  0.2279
13697TIP3   OH262505   0.911   3.009   2.729 -0.3147  0.3304 -0.2734
13697TIP3    H162506   0.945   3.031   2.815  2.0803  0.2496 -1.1427
13697TIP3    H262507   0.818   3.034   2.733  0.0316  1.4796  1.8943
13698TIP3   OH262508   3.581   1.973  16.337  0.2948  0.0070 -0.1897
13698TIP3    H162509   3.515   1.985  16.269 -1.0478 -0.8682  0.9101
13698TIP3    H262510   3.622   2.059  16.346  0.3790  0.1739 -1.9699
13699TIP3   OH262511   4.743   2.548   4.744  0.0775  0.0075 -0.3440
13699TIP3    H162512   4.693   2.615   4.791  1.0422  0.0864  0.5953
13699TIP3    H262513   4.805   2.597   4.691 -1.7938 -0.0201 -2.7369
13700TIP3   OH262514   0.324   5.881  15.559  0.6073 -0.0525 -0.0799
13700TIP3    H162515   0.238   5.843  15.547  1.3562 -1.3770 -1.6490
13700TIP3    H262516   0.313   5.945  15.629 -2.0224  1.1257 -1.4478
13701TIP3   OH262517   5.004   6.128  14.024 -0.2221  0.0982 -0.4379
13701TIP3    H162518   5.037   6.167  14.105  1.1008 -0.4453 -0.6801
13701TIP3    H262519   4.926   6.080  14.050 -0.3426  0.7044  0.3468
13702TIP3   OH262520   1.945   4.882   1.748  0.1701 -0.6778 -0.1089
13702TIP3    H162521   1.948   4.787   1.761  0.4720 -0.4517  1.6531
13702TIP3    H262522   2.033   4.904   1.716 -0.1945 -1.0902 -1.4529
13703TIP3   OH262523   5.789   5.456   4.728  0.0292  0.3280 -0.0497
13703TIP3    H162524   5.766   5.380   4.781 -1.2236  0.7644  0.0574
13703TIP3    H262525   5.880   5.440   4.702  0.6806  0.1093  2.1914
13704TIP3   OH262526   3.650   0.735  15.257  0.2082  0.1067  0.5441
13704TIP3    H162527   3.696   0.710  15.338  0.0468 -0.7725  0.3709
13704TIP3    H262528   3.560   0.707  15.271  0.4061 -1.0628 -0.3604
13705TIP3   OH262529   4.213   3.169  12.703 -0.2215  0.1310 -0.1899
13705TIP3    H162530   4.298   3.191  12.667  0.9749 -1.5051  1.4719
13705TIP3    H262531   4.151   3.226  12.656  1.8064  1.7103 -1.0799
13706TIP3   OH262532   1.618   1.956  10.857 -0.1041 -0.0498  0.2393
13706TIP3    H162533   1.700   1.999  10.882 -0.1409  0.0731  0.1507
13706TIP3    H262534   1.594   1.998  10.774 -0.7618  0.6148  0.7536
13707TIP3   OH262535   2.750   2.217  15.283  0.3624  0.3128  0.9033
13707TIP3    H162536   2.832   2.220  15.333  0.5150  1.1357  0.6104
13707TIP3    H262537   2.726   2.124  15.283  1.6754 -0.0492  0.3784
13708TIP3   OH262538   3.258   4.754  16.077 -0.4988  0.3500  0.3297
13708TIP3    H162539   3.279   4.846  16.092  0.1620  0.3601 -0.5558
13708TIP3    H262540   3.230   4.750  15.985  0.2824 -0.4599  0.1101
13709TIP3   OH262541   4.248   4.880   4.619 -0.2060  0.7521  0.6442
13709TIP3    H162542   4.336   4.863   4.585 -0.4490  2.1389 -0.8078
13709TIP3    H262543   4.189   4.857   4.547 -1.0441  0.1392  1.4908
13710TIP3   OH262544   3.513   0.317  15.646 -0.2648 -0.4132 -0.1467
13710TIP3    H162545   3.485   0.291  15.559 -0.3407  2.1923 -0.9819
13710TIP3    H262546   3.608   0.322  15.640 -0.2663 -0.2833 -0.0683
13711TIP3   OH262547   3.191   5.094  12.381 -0.6826 -0.3744 -0.4881
13711TIP3    H162548   3.137   5.047  12.318  0.6941 -0.5450 -1.5720
13711TIP3    H262549   3.258   5.032  12.407 -0.7248 -0.0228  0.5085
13712TIP3   OH262550   6.715   3.558   0.127 -0.3843  0.2722 -0.0830
13712TIP3    H162551   6.721   3.553   0.032  3.5554 -0.7398  0.0316
13712TIP3    H262552   6.758   3.641   0.149 -0.3581  0.0244  0.8407
13713TIP3   OH262553   5.743   2.705  11.788  0.3913 -0.2926  0.2554
13713TIP3    H162554   5.650   2.709  11.769  0.4345 -0.5031 -0.0071
13713TIP3    H262555   5.752   2.746  11.875  0.1814  0.5828 -0.1252
13714TIP3   OH262556   3.339   3.359  12.056  0.1237  0.0636 -0.2878
13714TIP3    H162557   3.434   3.362  12.059  0.2206  3.4293 -1.9174
13714TIP3    H262558   3.311   3.382  12.144  0.8774  0.4216 -0.1353
13715TIP3   OH262559   1.910   1.554  12.607 -0.5580  0.1722 -0.1790
13715TIP3    H162560   1.992   1.536  12.560 -0.1898  1.3629 -0.0150
13715TIP3    H262561   1.860   1.473  12.597  0.3582 -0.3460 -0.8524
13716TIP3   OH262562   3.137   3.142  11.731 -0.7177 -0.0064 -0.8068
13716TIP3    H162563   3.230   3.140  11.709  0.0437  1.0305  1.8462
13716TIP3    H262564   3.115   3.051  11.753 -0.9197 -0.6227 -3.3473
13717TIP3   OH262565   5.643   0.152  12.226  0.5583 -0.3730  0.2455
13717TIP3    H162566   5.690   0.097  12.289  0.7165  0.6060  1.0099
13717TIP3    H262567   5.593   0.213  12.281 -0.8751 -0.7786 -0.5681
13718TIP3   OH262568   5.681   3.051  15.514 -0.0346 -0.2471 -0.5061
13718TIP3    H162569   5.709   3.092  15.432 -1.3652  0.7145 -0.5001
13718TIP3    H262570   5.609   2.993  15.488  0.6008 -1.1895 -0.2327
13719TIP3   OH262571   3.840   3.618  13.477 -0.2771 -0.2178  0.5466
13719TIP3    H162572   3.921   3.568  13.479 -0.1722 -0.1650 -1.3022
13719TIP3    H262573   3.775   3.560  13.518  0.6759 -0.2078  2.1533
13720TIP3   OH262574   4.944   1.099   1.901  0.2106  0.1235  0.1570
13720TIP3    H162575   4.865   1.049   1.922  0.3818 -0.3219 -0.2491
13720TIP3    H262576   4.933   1.182   1.948 -0.4283  0.0073  0.2215
13721TIP3   OH262577   2.307   5.640  12.734 -0.2750 -0.1853  0.0971
13721TIP3    H162578   2.312   5.731  12.762  0.1458 -0.3909  0.7092
13721TIP3    H262579   2.369   5.635  12.661  1.7667 -0.5706  1.7579
13722TIP3   OH262580   6.263   0.719  15.470  0.5826  0.0693 -0.3980
13722TIP3    H162581   6.271   0.716  15.375 -0.0122 -2.3450 -0.4262
13722TIP3    H262582   6.169   0.725  15.486  0.6954  0.7952  0.0691
13723TIP3   OH262583   1.303   1.024   5.782  0.0453  0.3478  0.5126
13723TIP3    H162584   1.344   1.094   5.831  2.5327 -0.1872 -0.6663
13723TIP3    H262585   1.351   0.945   5.808  0.7615 -0.0958 -1.9230
13724TIP3   OH262586   4.266   5.261   6.498 -0.7135 -0.6142  0.2874
13724TIP3    H162587   4.202   5.254   6.568 -0.3580  2.2355  1.0558
13724TIP3    H262588   4.217   5.299   6.425 -0.4236 -0.6225  0.0850
13725TIP3   OH262589   2.528   2.658   5.693  0.2962 -0.4142  0.0679
13725TIP3    H162590   2.506   2.599   5.765 -1.3795  0.8717  0.6781
13725TIP3    H262591   2.472   2.734   5.707  0.6370  0.2876 -2.0503
13726TIP3   OH262592   4.568   2.139   1.474  0.0762 -0.2514  0.3863
13726TIP3    H162593   4.557   2.168   1.564  0.2174 -0.0407  0.3378
13726TIP3    H262594   4.491   2.086   1.456 -1.0797  1.4916 -0.0738
13727TIP3   OH262595   2.356   5.571   2.012 -0.5363  0.0495  0.1604
13727TIP3    H162596   2.404   5.654   2.019 -1.0730  0.3138  0.8683
13727TIP3    H262597   2.367   5.529   2.097 -1.3397  0.0047  0.2584
13728TIP3   OH262598   1.283   4.317  16.374 -0.2753 -0.1524 -0.4124
13728TIP3    H162599   1.247   4.229  16.364 -1.1666  0.1671 -0.1272
13728TIP3    H262600   1.261   4.361  16.292  1.0317 -0.4714 -0.9618
13729TIP3   OH262601   1.309   0.361   2.486  0.1220 -0.6469  0.1068
13729TIP3    H162602   1.282   0.390   2.574 -1.9456 -1.0296 -0.3470
13729TIP3    H262603   1.230   0.372   2.433  1.4962  0.1391 -1.8659
13730TIP3   OH262604   4.952   3.669   5.187  0.3612  0.2484  0.1739
13730TIP3    H162605   4.921   3.611   5.257 -1.8997  0.5975 -0.4702
13730TIP3    H262606   5.043   3.688   5.211  0.0314 -0.6072  2.3698
13731TIP3   OH262607   0.653   3.544  13.692  0.3773  0.6223  0.4969
13731TIP3    H162608   0.663   3.591  13.609 -0.1011 -0.2256 -0.0705
13731TIP3    H262609   0.563   3.563  13.719  0.3239  0.3920  0.4842
13732TIP3   OH262610   1.039   3.384  16.391 -0.5716  0.7187 -1.1722
13732TIP3    H162611   1.050   3.348  16.303 -0.6916  0.4901 -1.0952
13732TIP3    H262612   1.089   3.325  16.447  1.4984  2.1854 -1.3630
13733TIP3   OH262613   6.414   4.102  14.232  0.3256 -0.1115 -0.0235
13733TIP3    H162614   6.503   4.110  14.266  0.3501 -0.8656  0.1144
13733TIP3    H262615   6.409   4.165  14.160 -0.0610  2.3915  2.0419
13734TIP3   OH262616   4.917   5.490   2.665 -0.0031 -0.2415 -0.7289
13734TIP3    H162617   4.971   5.566   2.687 -0.4397  0.7178 -2.6922
13734TIP3    H262618   4.979   5.420   2.647  0.4100 -0.3751  1.0607
13735TIP3   OH262619   6.368   6.074   2.648 -0.2135 -0.5283 -0.6075
13735TIP3    H162620   6.393   6.163   2.669 -1.7814 -0.0459 -0.7029
13735TIP3    H262621   6.411   6.020   2.715 -0.5091  0.4421  0.3863
13736TIP3   OH262622   2.026   2.891  13.555 -0.1798  0.0467  0.2526
13736TIP3    H162623   2.058   2.981  13.562 -0.4088  0.1007  0.6300
13736TIP3    H262624   2.105   2.838  13.556 -0.1250  0.1269  2.0438
13737TIP3   OH262625   4.329   3.886   4.814 -0.3931  0.0773 -0.3630
13737TIP3    H162626   4.371   3.825   4.873  0.1800  1.0797  0.2942
13737TIP3    H262627   4.375   3.876   4.731 -0.4204 -0.5002 -0.3080
13738TIP3   OH262628   3.020   2.869  13.838 -0.3998  0.1267 -0.1493
13738TIP3    H162629   2.968   2.807  13.890 -0.2816  0.0199 -0.1569
13738TIP3    H262630   3.033   2.824  13.754 -0.3707  0.1910 -0.1796
13739TIP3   OH262631   3.531   4.600  15.892 -0.2100 -0.4330 -0.0455
13739TIP3    H162632   3.493   4.661  15.829  0.9976  0.1597 -0.2177
13739TIP3    H262633   3.459   4.541  15.913 -0.3216 -1.5924 -3.1090
13740TIP3   OH262634   1.117   5.539  13.263  0.1430 -0.5182 -0.8026
13740TIP3    H162635   1.098   5.633  13.270 -1.4826 -0.9517  1.3137
13740TIP3    H262636   1.186   5.534  13.196  1.8024  2.3727  0.5211
13741TIP3   OH262637   3.868   4.338   1.362 -0.6112  0.2995 -0.1029
13741TIP3    H162638   3.819   4.357   1.442  1.3099 -0.6457  1.4142
13741TIP3    H262639   3.849   4.246   1.344  1.0142 -0.2935  0.9176
13742TIP3   OH262640   1.597   1.863  14.198 -0.3858 -0.4954 -0.3224
13742TIP3    H162641   1.652   1.941  14.186 -0.3402 -0.7130 -1.6969
13742TIP3    H262642   1.573   1.837  14.109 -3.1283 -0.1509  0.2242
13743TIP3   OH262643   3.059   0.267   1.807 -0.4963 -0.7754 -0.1563
13743TIP3    H162644   3.056   0.195   1.869 -1.1223 -0.1164  0.6022
13743TIP3    H262645   3.138   0.316   1.829 -0.8540 -0.3972  0.2891
13744TIP3   OH262646   5.643   4.905  12.668 -0.8664 -0.0545 -0.1623
13744TIP3    H162647   5.736   4.919  12.687 -0.4423 -2.6741  0.0929
13744TIP3    H262648   5.623   4.966  12.597  0.2628  2.5614  1.6493
13745TIP3   OH262649   6.285   4.710   2.728 -0.8393 -0.0892  0.8857
13745TIP3    H162650   6.291   4.762   2.648 -0.0515  0.9505  1.6086
13745TIP3    H262651   6.376   4.698   2.756 -1.0185 -1.5743  0.9310
13746TIP3   OH262652   1.218   5.217  12.972 -0.0492 -0.2602  0.8671
13746TIP3    H162653   1.236   5.309  12.951 -1.8844  0.0803  0.6453
13746TIP3    H262654   1.278   5.168  12.915  0.3031  0.7868  0.3022
13747TIP3   OH262655   5.553   1.690  14.754  0.4969  0.2229  0.7661
13747TIP3    H162656   5.509   1.617  14.798 -0.3797  0.2776  0.0203
13747TIP3    H262657   5.562   1.661  14.663 -0.7828  1.4049  0.2139
13748TIP3   OH262658   0.215   4.304  16.529  0.0533  0.4086 -0.2911
13748TIP3    H162659   0.282   4.314  16.461  0.1225  1.8336 -0.0220
13748TIP3    H262660   0.241   4.364  16.598 -0.1874 -0.8037  0.8979
13749TIP3   OH262661   3.127   4.767   0.593  0.4855  0.0438  0.1031
13749TIP3    H162662   3.177   4.836   0.548 -0.6242  0.8364  0.0282
13749TIP3    H262663   3.080   4.813   0.662  0.4882 -0.8152  0.6866
13750TIP3   OH262664   2.759   4.609  15.544 -0.6864 -0.2117  0.5393
13750TIP3    H162665   2.749   4.518  15.517 -2.2728  0.2563 -0.6174
13750TIP3    H262666   2.783   4.656  15.464  3.4029  0.0189  1.6707
13751TIP3   OH262667   2.604   4.484   5.591 -0.5270  0.0103  0.0845
13751TIP3    H162668   2.594   4.426   5.515 -2.4576  0.6804 -0.2325
13751TIP3    H262669   2.688   4.459   5.628 -0.6030 -1.9833 -0.8950
13752TIP3   OH262670   4.910   4.473  17.153  0.4037  0.6513  0.3292
13752TIP3    H162671   4.946   4.526  17.224 -1.4286 -0.8756  2.5981
13752TIP3    H262672   4.985   4.425  17.117  1.2316  0.4643  2.1967
13753TIP3   OH262673   6.123   2.363  15.682 -0.1677  0.2686 -0.1185
13753TIP3    H162674   6.136   2.287  15.626  0.6909  0.0128  0.4001
13753TIP3    H262675   6.108   2.436  15.621  1.0881  0.0639 -0.7099
13754TIP3   OH262676   5.125   2.386  16.870 -0.4932 -0.1800  0.1452
13754TIP3    H162677   5.107   2.397  16.776 -1.8824 -0.7166  0.3236
13754TIP3    H262678   5.140   2.475  16.902  0.4579 -0.0321 -0.6601
13755TIP3   OH262679   5.971   2.189   1.601 -1.0556 -0.3244  0.3989
13755TIP3    H162680   5.893   2.242   1.585 -1.7658 -1.1647  0.9980
13755TIP3    H262681   6.012   2.228   1.678 -0.9232  0.0638  0.1359
13756TIP3   OH262682   1.260   3.106  16.881 -0.3004  0.0358  0.0819
13756TIP3    H162683   1.250   3.012  16.863 -0.4878  0.5593 -3.0261
13756TIP3    H262684   1.350   3.127  16.854 -0.9986  1.1418 -1.5393
13757TIP3   OH262685   1.897   4.708  15.561 -0.4776 -0.1179 -0.3154
13757TIP3    H162686   1.869   4.702  15.470 -0.3316  3.0035 -0.6820
13757TIP3    H262687   1.992   4.710  15.557 -0.3955 -1.8814  0.1273
13758TIP3   OH262688   6.694   1.372  16.934  0.4882  0.3427 -0.3129
13758TIP3    H162689   6.649   1.368  17.018  0.9586 -1.2764 -0.0993
13758TIP3    H262690   6.787   1.377  16.957  0.6787 -0.9478 -0.6932
13759TIP3   OH262691   2.681   2.513   1.656 -0.4287  0.1909  0.0492
13759TIP3    H162692   2.660   2.419   1.650 -1.1751  0.4320 -1.5546
13759TIP3    H262693   2.756   2.516   1.716 -0.3196 -1.4492  0.0560
13760TIP3   OH262694   1.898   3.922  11.820 -0.1697  0.5120  0.1726
13760TIP3    H162695   1.971   3.942  11.878 -0.2490  2.5868 -0.3505
13760TIP3    H262696   1.898   3.993  11.755  0.1768 -1.8957 -2.6785
13761TIP3   OH262697   2.701   5.252   5.703 -0.2264  0.6048  0.0320
13761TIP3    H162698   2.644   5.329   5.707 -1.0040  0.1595 -1.5958
13761TIP3    H262699   2.670   5.203   5.627  0.0225 -1.5033  1.2042
13762TIP3   OH262700   5.595   3.887   5.478  0.3216 -0.0872 -0.1966
13762TIP3    H162701   5.566   3.810   5.428  0.9892  0.0215 -0.7591
13762TIP3    H262702   5.608   3.854   5.567 -0.1650 -0.4457 -0.2521
13763TIP3   OH262703   4.124   2.024  12.586  0.9995  0.3526 -0.1507
13763TIP3    H162704   4.217   2.035  12.565  1.2709 -1.4003 -0.0182
13763TIP3    H262705   4.123   1.956  12.653 -0.4258  0.0325 -0.4752
13764TIP3   OH262706   3.531   5.764   5.793 -0.3309 -0.6146  0.0194
13764TIP3    H162707   3.552   5.670   5.786 -1.9545 -0.9752 -0.5266
13764TIP3    H262708   3.439   5.766   5.819 -0.1884  0.8434  0.4940
13765TIP3   OH262709   0.526   2.854  12.608 -0.5293 -0.5043  0.1772
13765TIP3    H162710   0.443   2.811  12.630 -0.6190 -2.1455 -2.9406
13765TIP3    H262711   0.591   2.784  12.609  0.3640  0.2983  0.0719
13766TIP3   OH262712   4.328   1.128  15.994 -0.4534  0.4330  0.0265
13766TIP3    H162713   4.319   1.106  16.087 -1.3324  0.0353 -0.1419
13766TIP3    H262714   4.252   1.087  15.952  0.5417 -0.3465 -1.0492
13767TIP3   OH262715   6.516   5.666  12.531  0.1089 -0.3550 -0.4440
13767TIP3    H162716   6.429   5.705  12.536 -0.9708 -2.6164 -0.4452
13767TIP3    H262717   6.563   5.702  12.606 -0.9964  0.4547 -0.1062
13768TIP3   OH262718   6.726   1.226  16.001 -0.2772 -0.1365  0.5816
13768TIP3    H162719   6.641   1.182  15.992 -1.2898  1.3339  2.0531
13768TIP3    H262720   6.716   1.307  15.951 -0.4953  0.9266  2.2414
13769TIP3   OH262721   6.742   4.022  16.864 -0.0149  0.9400  0.3418
13769TIP3    H162722   6.777   3.953  16.921  0.2530  1.6987  1.1100
13769TIP3    H262723   6.806   4.030  16.793 -0.3542 -0.0151 -0.0981
13770TIP3   OH262724   1.480   4.163   1.154  0.2080 -0.5182  0.4386
13770TIP3    H162725   1.436   4.145   1.237  0.5251  0.6964  0.8920
13770TIP3    H262726   1.548   4.226   1.176  0.7551 -0.7105 -0.6321
13771TIP3   OH262727   2.038   1.620  14.617 -0.2179  0.0289  0.2164
13771TIP3    H162728   2.023   1.668  14.698 -2.7416 -1.4432  0.6936
13771TIP3    H262729   2.079   1.538  14.644  2.0802  0.8941 -0.3979
13772TIP3   OH262730   5.355   2.927  16.767  0.1365 -0.4136  0.1925
13772TIP3    H162731   5.349   2.953  16.675  1.5617  0.0014  0.1993
13772TIP3    H262732   5.304   2.846  16.772 -1.0238  0.2335 -0.6809
13773TIP3   OH262733   4.365   2.605   2.300  0.0277  0.5816 -0.1812
13773TIP3    H162734   4.363   2.657   2.220  0.3753  0.1132 -0.4973
13773TIP3    H262735   4.458   2.594   2.320 -0.0537  0.7280  0.3133
13774TIP3   OH262736   3.800   3.520   1.522 -0.5066 -0.1178 -0.5568
13774TIP3    H162737   3.860   3.570   1.576 -0.6278  0.7804 -1.2275
13774TIP3    H262738   3.742   3.475   1.584 -0.1096  0.2096  0.0554
13775TIP3   OH262739   2.665   5.292   3.506 -0.5355 -0.2606  0.3721
13775TIP3    H162740   2.749   5.262   3.541  0.4697  1.0817 -0.7728
13775TIP3    H262741   2.638   5.222   3.446 -0.1176 -0.5972  0.5677
13776TIP3   OH262742   3.752   6.602  14.189 -0.0283 -0.1890  0.1697
13776TIP3    H162743   3.712   6.516  14.183 -0.0523 -0.3732  2.2835
13776TIP3    H262744   3.682   6.659  14.220  0.3549  0.3069  0.1450
13777TIP3   OH262745   5.325   0.034  11.169 -0.1510  0.0331  0.3196
13777TIP3    H162746   5.343  -0.057  11.146  1.0234  0.4930 -0.7388
13777TIP3    H262747   5.231   0.037  11.184 -0.3340 -1.1868 -0.4246
13778TIP3   OH262748   3.774   5.894   1.775 -0.4248 -0.1607  0.9368
13778TIP3    H162749   3.705   5.960   1.782 -1.8308 -1.6584  2.4128
13778TIP3    H262750   3.839   5.921   1.840 -0.4209  0.3944  0.7044
13779TIP3   OH262751   5.454   2.055   5.123  0.6507 -0.8826 -0.2896
13779TIP3    H162752   5.380   2.102   5.161 -1.1884 -1.8852 -2.4559
13779TIP3    H262753   5.514   2.042   5.197 -0.3317  1.7244  1.1096
13780TIP3   OH262754   5.251   2.303   5.708 -0.8569  0.7830  0.4266
13780TIP3    H162755   5.264   2.393   5.739 -0.0287  1.2807 -1.2283
13780TIP3    H262756   5.178   2.310   5.646  0.5494  0.7737 -1.3257
13781TIP3   OH262757   3.524   5.240  15.850  0.2702 -0.3468 -0.1725
13781TIP3    H162758   3.528   5.145  15.843  0.8611 -0.5308  1.9332
13781TIP3    H262759   3.605   5.264  15.895 -1.6525  0.6653  3.0833
13782TIP3   OH262760   5.777   6.624  14.062 -0.2676  0.6230 -0.1474
13782TIP3    H162761   5.852   6.625  14.121  0.1930 -1.1719 -0.6247
13782TIP3    H262762   5.794   6.694  13.999  1.1418  0.1053 -0.3819
13783TIP3   OH262763   2.664   6.034  12.939 -0.1670  0.2489  0.0742
13783TIP3    H162764   2.626   6.122  12.934 -0.7861  0.0873  1.5358
13783TIP3    H262765   2.595   5.977  12.906 -0.1047  0.2218 -0.0104
13784TIP3   OH262766   3.040   6.089  14.473 -0.2599 -0.0331 -0.1355
13784TIP3    H162767   3.028   6.141  14.393  2.7528  0.0127 -0.6695
13784TIP3    H262768   2.951   6.066  14.500 -1.4375  0.3240 -3.2587
13785TIP3   OH262769   6.523   6.141  16.679 -0.4372 -0.6132  0.0704
13785TIP3    H162770   6.450   6.136  16.618 -1.7256 -1.2484  1.5797
13785TIP3    H262771   6.566   6.056  16.671  0.7474  0.1001 -1.4966
13786TIP3   OH262772   1.341   6.091   1.923  0.5568 -0.5143  0.2671
13786TIP3    H162773   1.299   6.005   1.930 -0.8145  0.0279 -0.8942
13786TIP3    H262774   1.371   6.110   2.012  0.1533 -1.8208  0.7104
13787TIP3   OH262775   3.420   0.233   0.904  0.8614 -0.3657 -0.0499
13787TIP3    H162776   3.480   0.191   0.842 -0.0037 -0.4097 -0.8806
13787TIP3    H262777   3.423   0.177   0.982  1.7026 -0.5029 -0.1764
13788TIP3   OH262778   6.035   4.757  10.795  0.0502 -0.2048 -0.3555
13788TIP3    H162779   6.090   4.695  10.844 -0.2361 -2.2514 -2.4199
13788TIP3    H262780   6.085   4.775  10.715 -1.0606  0.1090 -1.0000
13789TIP3   OH262781   3.788   2.165  15.748  0.0974  0.0219 -0.3740
13789TIP3    H162782   3.774   2.204  15.834 -0.6166  0.4752 -0.6942
13789TIP3    H262783   3.795   2.071  15.765 -1.0035  0.0112  0.0729
13790TIP3   OH262784   0.007   5.313  12.519  0.4568  0.3500 -0.5096
13790TIP3    H162785  -0.017   5.239  12.575  0.5897  0.6955  0.0134
13790TIP3    H262786   0.039   5.380  12.580 -1.0834  1.4143 -0.8077
13791TIP3   OH262787   0.269   5.410   1.547 -0.0848  0.0650 -0.1586
13791TIP3    H162788   0.315   5.327   1.537  0.2794  0.2741 -0.2558
13791TIP3    H262789   0.309   5.468   1.482 -0.0255  0.4473  0.2114
13792TIP3   OH262790   4.632   5.106  15.820  0.0121 -0.3466  0.0189
13792TIP3    H162791   4.672   5.179  15.772  1.9233 -0.8757  0.7189
13792TIP3    H262792   4.706   5.059  15.858 -1.3316 -0.9540  2.0368
13793TIP3   OH262793   3.253   3.281   4.591  0.1729  0.0665  0.0540
13793TIP3    H162794   3.168   3.284   4.635 -0.0287  0.3417 -0.3507
13793TIP3    H262795   3.316   3.295   4.662 -0.2103  1.8704  0.0846
13794TIP3   OH262796   5.946   1.941   3.058 -0.1817 -0.0222  0.2881
13794TIP3    H162797   5.904   1.983   3.133 -0.8196 -0.9026  0.4368
13794TIP3    H262798   5.903   1.856   3.051  0.1782 -0.1242 -0.8115
13795TIP3   OH262799   4.676   4.641  16.271 -0.5953 -0.3391 -0.4745
13795TIP3    H162800   4.665   4.727  16.313 -1.4554 -0.4536 -0.4327
13795TIP3    H262801   4.656   4.578  16.341  1.1949 -0.6149 -0.1751
13796TIP3   OH262802   2.889   5.171  14.888 -0.2244 -0.2438  0.1501
13796TIP3    H162803   2.795   5.153  14.885  0.1768 -2.5632 -0.0784
13796TIP3    H262804   2.908   5.207  14.802 -1.5669  4.6972  1.5767
13797TIP3   OH262805   5.142   0.618   2.897 -0.3673  0.1165  0.4117
13797TIP3    H162806   5.231   0.595   2.923 -0.2878 -0.8304 -0.6011
13797TIP3    H262807   5.151   0.704   2.856  0.2471 -0.3396 -0.4488
13798TIP3   OH262808   0.885   1.683  16.810 -0.0063  0.7403 -0.8038
13798TIP3    H162809   0.956   1.723  16.860 -0.5827  0.2524  0.4290
13798TIP3    H262810   0.930   1.636  16.739  0.7882  1.7752 -1.0097
13799TIP3   OH262811   6.360   1.711   0.417  0.1551  0.6895  0.1261
13799TIP3    H162812   6.399   1.628   0.393  1.1925  0.6088  1.8594
13799TIP3    H262813   6.301   1.733   0.345  0.4137 -1.1686 -0.6961
13800TIP3   OH262814   6.527   5.932  10.636  0.2784 -0.1179  0.3225
13800TIP3    H162815   6.546   6.021  10.606  1.7526 -1.3218 -2.7106
13800TIP3    H262816   6.605   5.905  10.684 -0.1054  0.1295  1.1069
13801TIP3   OH262817   5.632   2.722   5.959  0.0807 -0.3681 -0.6278
13801TIP3    H162818   5.665   2.748   6.045 -1.5163 -0.6187  0.0969
13801TIP3    H262819   5.545   2.762   5.953  0.1708 -0.3564 -2.1319
13802TIP3   OH262820   2.135   4.790  14.798 -0.3806  0.3433 -0.1871
13802TIP3    H162821   2.134   4.885  14.795 -4.1077  0.4454  0.3234
13802TIP3    H262822   2.081   4.763  14.724 -0.5004 -1.3217  0.4675
13803TIP3   OH262823   0.735   2.914  13.618  0.2667  0.1199  0.2640
13803TIP3    H162824   0.682   2.981  13.661 -0.1856 -0.3695  0.4738
13803TIP3    H262825   0.777   2.960  13.545  0.8620  0.8982  1.0852
13804TIP3   OH262826   4.639   4.492  14.856 -0.5684  0.7164  0.0304
13804TIP3    H162827   4.576   4.454  14.918 -1.1027  0.4175 -0.6709
13804TIP3    H262828   4.722   4.450  14.877  0.0188  2.9206  2.6058
13805TIP3   OH262829   1.371   0.738  16.487  0.3706 -0.3325  0.9814
13805TIP3    H162830   1.465   0.741  16.468 -0.0738  0.4780 -1.4833
13805TIP3    H262831   1.331   0.707  16.405 -1.7308  2.1280  0.9418
13806TIP3   OH262832   0.957   5.747   6.324  0.4223  0.4315 -0.5121
13806TIP3    H162833   1.031   5.717   6.376 -2.3728 -2.4654  2.2552
13806TIP3    H262834   0.933   5.671   6.270 -0.8126  1.1342 -1.0117
13807TIP3   OH262835   5.892   2.463   0.663 -0.0407 -0.1779 -0.6746
13807TIP3    H162836   5.909   2.379   0.708 -0.7006 -0.3767 -0.7904
13807TIP3    H262837   5.973   2.481   0.616  0.7285  0.0992  0.6963
13808TIP3   OH262838   5.118   5.797  17.073  0.1174  0.1957  0.8098
13808TIP3    H162839   5.078   5.764  16.992  0.8138 -0.0731  0.5699
13808TIP3    H262840   5.055   5.774  17.142 -0.4238  0.3221  0.3615
13809TIP3   OH262841   3.839   4.954   1.096  0.0052  0.0597 -0.4795
13809TIP3    H162842   3.746   4.931   1.098  0.1376 -0.5030 -0.7231
13809TIP3    H262843   3.868   4.940   1.186  0.7213 -3.4830 -1.1021
13810TIP3   OH262844   5.558   5.350   3.788 -0.3423  0.1888  0.1402
13810TIP3    H162845   5.610   5.270   3.777  1.5809  1.4400 -0.2882
13810TIP3    H262846   5.552   5.362   3.882  0.7830  0.3955  0.2000
13811TIP3   OH262847   4.494   1.434   2.791  0.0312 -0.2134  0.3497
13811TIP3    H162848   4.567   1.456   2.848 -1.0329 -0.5148  1.8856
13811TIP3    H262849   4.416   1.456   2.842 -0.9641 -1.3435 -0.6288
13812TIP3   OH262850   4.425   1.812  17.283  0.0568  0.5740  0.5027
13812TIP3    H162851   4.501   1.836  17.229  0.2412 -0.3129  0.3558
13812TIP3    H262852   4.430   1.717  17.290 -0.5350  0.5912  1.2548
13813TIP3   OH262853   2.383   2.035   3.019 -0.0003  0.1495  0.0245
13813TIP3    H162854   2.468   2.014   3.057 -0.5493  0.3089  1.3836
13813TIP3    H262855   2.385   1.994   2.932  1.7894  0.9309 -0.3397
13814TIP3   OH262856   5.274   6.691   3.694  0.1371  0.2723  1.0062
13814TIP3    H162857   5.308   6.604   3.715  1.6568  0.3347 -0.9088
13814TIP3    H262858   5.248   6.727   3.779  0.4204 -1.6401  1.9711
13815TIP3   OH262859   5.417   4.195   4.923  0.0214 -0.2272  0.2968
13815TIP3    H162860   5.369   4.271   4.957  0.2732  0.1426 -0.1558
13815TIP3    H262861   5.381   4.121   4.971  0.1158  0.2324  1.1087
13816TIP3   OH262862   4.729   6.707  14.546 -0.7433 -0.6086  0.4416
13816TIP3    H162863   4.712   6.616  14.523 -0.3120 -0.6918  0.4395
13816TIP3    H262864   4.658   6.730  14.607 -1.1246 -0.7945  0.0715
13817TIP3   OH262865   4.635   3.347   5.352  0.0757 -0.5296 -0.3642
13817TIP3    H162866   4.583   3.323   5.428 -0.6979  1.5328 -0.1780
13817TIP3    H262867   4.622   3.276   5.289 -4.1101  0.4660 -0.8752
13818TIP3   OH262868   6.625   5.951   1.535  0.1401  0.1382 -0.0900
13818TIP3    H162869   6.651   5.898   1.459 -2.8560  0.7663 -1.7314
13818TIP3    H262870   6.696   5.939   1.598  2.2448 -1.3486 -2.5186
13819TIP3   OH262871   2.208   5.176   4.359  0.1598  0.1155 -0.3504
13819TIP3    H162872   2.242   5.221   4.281 -1.0209  0.0906 -0.8986
13819TIP3    H262873   2.284   5.169   4.417  1.2815 -0.6064 -1.8297
13820TIP3   OH262874   0.048   4.844  13.601 -0.3680  0.0327 -0.0867
13820TIP3    H162875  -0.025   4.817  13.545 -0.7438 -1.2020  0.9320
13820TIP3    H262876   0.037   4.939  13.611 -0.7474  0.1470 -1.4270
13821TIP3   OH262877   1.195   2.696   1.042  0.6153  0.2735 -0.2621
13821TIP3    H162878   1.212   2.611   1.003  1.3708 -0.3109  1.2459
13821TIP3    H262879   1.189   2.756   0.968  1.8026 -0.7926 -1.2666
13822TIP3   OH262880   1.363   1.185  14.742 -0.1059  0.0439 -0.3998
13822TIP3    H162881   1.447   1.226  14.720 -0.7427  1.7841  0.2498
13822TIP3    H262882   1.300   1.227  14.683 -1.1383  1.6895  1.7277
13823TIP3   OH262883   3.365   2.249   5.765  0.5032  0.1082 -0.0811
13823TIP3    H162884   3.404   2.335   5.776  0.2943  0.4124 -1.5004
13823TIP3    H262885   3.282   2.265   5.720 -1.7578 -0.4391  3.5218
13824TIP3   OH262886   3.550   4.948  11.904  0.2861 -0.5502  0.1829
13824TIP3    H162887   3.619   4.894  11.864  0.3307 -1.0580  0.9380
13824TIP3    H262888   3.586   5.037  11.904  1.1888 -0.9042  1.1052
13825TIP3   OH262889   5.414   2.010  14.010 -0.0614  0.6461 -0.3477
13825TIP3    H162890   5.480   2.078  14.007 -1.9165  2.7023  1.6357
13825TIP3    H262891   5.332   2.056  14.031 -1.4197 -2.1608  1.2131
13826TIP3   OH262892   1.493   5.706   4.540  0.2749 -0.4757 -0.1661
13826TIP3    H162893   1.446   5.735   4.619 -0.8129 -0.5036 -0.7808
13826TIP3    H262894   1.434   5.643   4.499  1.0360 -0.8101 -0.7639
13827TIP3   OH262895   2.757   3.919   5.123 -0.6319 -0.4681 -0.3180
13827TIP3    H162896   2.793   3.997   5.080  0.2759  0.3622  1.8017
13827TIP3    H262897   2.670   3.908   5.085 -0.6804  1.4489 -0.8659
13828TIP3   OH262898   4.673   0.028   0.508  0.5637  0.7341 -0.2921
13828TIP3    H162899   4.732   0.079   0.453 -0.7534 -0.1522 -2.7213
13828TIP3    H262900   4.629  -0.031   0.446 -1.7502  0.3329  1.5987
13829TIP3   OH262901   6.132   1.946  11.206  0.0167  0.2252  0.1699
13829TIP3    H162902   6.219   1.957  11.167  0.1613 -0.3355  0.3183
13829TIP3    H262903   6.147   1.949  11.300 -0.1574  0.3341  0.1945
13830TIP3   OH262904   1.681   0.733  12.974 -0.2274 -0.7762  0.3135
13830TIP3    H162905   1.681   0.806  12.912 -1.4003 -0.5792  0.5258
13830TIP3    H262906   1.591   0.701  12.975  0.4248 -2.8180 -0.4358
13831TIP3   OH262907   5.644   0.975  17.052 -0.0171  0.2542  0.5426
13831TIP3    H162908   5.575   0.973  17.118 -0.2329  0.7857  0.3385
13831TIP3    H262909   5.725   0.990  17.102  0.0963 -1.3055  0.8785
13832TIP3   OH262910   3.033   2.702   1.476 -0.2062  0.0831 -0.5551
13832TIP3    H162911   3.065   2.702   1.567 -0.6944 -3.3479 -0.2687
13832TIP3    H262912   2.939   2.719   1.485 -0.4445 -1.2931 -0.2794
13833TIP3   OH262913   4.284   4.927   3.020  0.5381 -0.2577 -0.1484
13833TIP3    H162914   4.231   4.848   3.035 -0.2411  0.0209 -1.3179
13833TIP3    H262915   4.299   4.962   3.107 -0.8787 -0.5735  0.2611
13834TIP3   OH262916   0.047   2.114  16.582  0.1874 -0.4593  0.1570
13834TIP3    H162917   0.009   2.200  16.598 -0.1062  0.0560 -2.8276
13834TIP3    H262918   0.041   2.101  16.487  0.9375 -3.4450  0.3962
13835TIP3   OH262919   3.401   6.638  11.518 -0.3720 -0.1551 -0.6843
13835TIP3    H162920   3.425   6.649  11.610 -1.3650 -2.9314  0.0249
13835TIP3    H262921   3.346   6.559  11.517 -2.0014  0.8726 -3.4043
13836TIP3   OH262922   0.147   5.231  11.313  0.2815  0.5352  0.0464
13836TIP3    H162923   0.126   5.232  11.220  0.6000 -1.3160 -0.0897
13836TIP3    H262924   0.207   5.156  11.323 -0.4913  0.1092  1.8871
13837TIP3   OH262925   3.204   1.574  13.067 -0.1962 -1.1181  0.0787
13837TIP3    H162926   3.204   1.601  12.976 -2.8369  0.1533  0.3809
13837TIP3    H262927   3.165   1.648  13.114  2.3170 -1.1403  2.4775
13838TIP3   OH262928   3.598   2.003  15.927  0.0800  0.0140 -0.1737
13838TIP3    H162929   3.523   1.998  15.986 -1.5772  0.0444 -2.1490
13838TIP3    H262930   3.644   2.082  15.954 -1.5894  0.9620  0.0605
13839TIP3   OH262931   2.809   5.945   0.740  0.2176 -0.0766  0.2485
13839TIP3    H162932   2.793   5.964   0.648 -1.4008  0.0260  0.5238
13839TIP3    H262933   2.726   5.963   0.783  0.6025 -1.2543  1.5660
13840TIP3   OH262934   1.891   0.794  16.109  0.4606  0.1589 -0.3441
13840TIP3    H162935   1.830   0.815  16.038 -2.1105 -0.6657  1.4445
13840TIP3    H262936   1.977   0.795  16.068 -0.7054  1.4759 -3.0485
13841TIP3   OH262937   5.328   0.748  14.419  0.0699  0.5876 -0.0982
13841TIP3    H162938   5.383   0.802  14.476 -0.0076 -0.5595  1.0945
13841TIP3    H262939   5.389   0.689  14.375  0.0096  0.7352 -0.3836
13842TIP3   OH262940   0.492   5.724  15.437  0.2760 -0.1640  0.0310
13842TIP3    H162941   0.424   5.782  15.473 -0.2226 -0.2796 -0.6979
13842TIP3    H262942   0.443   5.653  15.396  0.8585 -2.6041  3.1868
13843TIP3   OH262943   3.639   3.523  16.857 -0.1147  0.5496 -0.0117
13843TIP3    H162944   3.619   3.531  16.951 -0.3685  1.6913 -0.1390
13843TIP3    H262945   3.734   3.512  16.854 -0.3667 -2.7843  0.4997
13844TIP3   OH262946   6.174   1.781   4.753  0.1187 -0.6717  0.5088
13844TIP3    H162947   6.119   1.781   4.831 -0.1002  0.2226  0.3711
13844TIP3    H262948   6.194   1.689   4.737  0.0913 -0.8729  1.5640
13845TIP3   OH262949   3.053   6.694   1.217  0.3850  0.1639  0.1367
13845TIP3    H162950   3.108   6.639   1.161  0.6801  1.6264 -1.0504
13845TIP3    H262951   3.066   6.658   1.305  1.4029 -0.9859 -0.4490
13846TIP3   OH262952   6.600   6.321   3.022 -0.2319 -1.0394 -0.5704
13846TIP3    H162953   6.528   6.261   3.002  1.3393 -3.4077  0.3070
13846TIP3    H262954   6.670   6.263   3.055  1.7169  1.2308 -0.4666
13847TIP3   OH262955   3.599   0.657   3.946  0.0971 -0.2008 -0.0283
13847TIP3    H162956   3.668   0.709   3.988 -0.8383  2.6664 -1.7971
13847TIP3    H262957   3.535   0.642   4.015  0.8785  0.0683  0.7753
13848TIP3   OH262958   0.657   1.694   5.311  0.3221 -0.1834  0.3566
13848TIP3    H162959   0.688   1.729   5.228  0.3953 -1.1277 -0.0188
13848TIP3    H262960   0.610   1.614   5.289  0.8183 -0.7497  1.2632
13849TIP3   OH262961   5.513   2.265  14.937  0.5145 -0.2692 -0.3891
13849TIP3    H162962   5.495   2.290  15.028  1.8745  0.2484 -0.2310
13849TIP3    H262963   5.436   2.217  14.909  0.3645 -1.0676  1.2770
13850TIP3   OH262964   0.566   1.009   3.274  0.2248  0.3887 -0.7932
13850TIP3    H162965   0.654   1.021   3.310 -0.0262 -0.1506  0.0425
13850TIP3    H262966   0.564   0.917   3.247  0.3971  0.7774 -2.1920
13851TIP3   OH262967   1.000   4.329   2.539 -0.0514 -0.5513  0.2306
13851TIP3    H162968   0.951   4.353   2.460  0.1399 -1.8437 -0.3088
13851TIP3    H262969   0.932   4.319   2.606 -0.8953 -4.0941 -0.9263
13852TIP3   OH262970   3.494   0.416  17.157 -0.4658 -0.1371  0.7033
13852TIP3    H162971   3.555   0.342  17.163 -1.5835 -1.1941 -0.3398
13852TIP3    H262972   3.411   0.380  17.190 -0.8071  0.9255  1.0277
13853TIP3   OH262973   2.663   5.269  14.647  0.1739  0.6624 -0.4454
13853TIP3    H162974   2.751   5.232  14.639 -0.1105 -0.5554  1.6024
13853TIP3    H262975   2.678   5.363  14.656  1.4501  0.2938  1.9308
13854TIP3   OH262976   2.722   2.371  16.357 -0.2870  0.1023  0.1199
13854TIP3    H162977   2.642   2.406  16.397  0.6677  1.0176  1.2799
13854TIP3    H262978   2.706   2.377  16.262 -1.7239 -0.0826  0.3204
13855TIP3   OH262979   1.392   0.660   4.728  0.1713 -0.2460 -0.1701
13855TIP3    H162980   1.351   0.721   4.789 -0.0287 -1.6142  1.1223
13855TIP3    H262981   1.329   0.652   4.656 -0.4065  0.0462  0.2985
13856TIP3   OH262982   2.096   3.796   1.762  0.4162 -0.5909 -0.9774
13856TIP3    H162983   2.190   3.789   1.748  0.7069  0.1533  0.4048
13856TIP3    H262984   2.069   3.710   1.792  1.4503  0.1723  2.6095
13857TIP3   OH262985   4.286   0.703   6.033  0.0264  0.2791  0.3375
13857TIP3    H162986   4.302   0.617   5.995  0.0792  0.0064  0.9632
13857TIP3    H262987   4.370   0.748   6.029 -0.4059  1.0144 -1.6975
13858TIP3   OH262988   4.820   5.504   3.103 -0.2952 -0.4300  0.4624
13858TIP3    H162989   4.839   5.590   3.141  0.6858 -0.3725 -0.1218
13858TIP3    H262990   4.798   5.523   3.012  2.1713 -0.9536 -0.3060
13859TIP3   OH262991   3.822   1.011  16.194 -0.1067  0.1083 -0.5194
13859TIP3    H162992   3.905   1.058  16.189  2.4912 -3.8856  0.0242
13859TIP3    H262993   3.804   0.983  16.105 -0.1655 -0.0976 -0.4441
13860TIP3   OH262994   6.220   6.288   1.306 -0.3539 -0.2807 -0.1654
13860TIP3    H162995   6.288   6.314   1.244 -0.8610  1.9740  0.1170
13860TIP3    H262996   6.265   6.282   1.390 -0.0114 -1.5681 -0.4182
13861TIP3   OH262997   5.516   2.223   4.247  0.0816 -0.0920 -0.0709
13861TIP3    H162998   5.430   2.180   4.246  0.5357 -1.0412  0.4745
13861TIP3    H262999   5.514   2.278   4.325  0.7692 -1.8603  1.2561
13862TIP3   OH263000   4.474   2.017  13.509  0.1518  0.3467  0.0431
13862TIP3    H163001   4.516   2.042  13.427  2.2504 -0.7676  0.7049
13862TIP3    H263002   4.394   1.971  13.482  0.0785  1.2195 -1.3174
13863TIP3   OH263003   5.695   0.662   0.814 -0.1324 -0.5065 -0.5492
13863TIP3    H163004   5.696   0.578   0.861 -1.4499 -1.1810 -1.6428
13863TIP3    H263005   5.703   0.728   0.883 -2.5198 -1.4371  0.7561
13864TIP3   OH263006   5.151   1.184   0.942  0.1092  0.0577 -0.6200
13864TIP3    H163007   5.244   1.208   0.949 -0.1620  0.5789  2.4557
13864TIP3    H263008   5.147   1.094   0.973 -0.5307  0.4782  0.6008
13865TIP3   OH263009   5.138   5.028   2.249  0.0293  0.1651 -0.3203
13865TIP3    H163010   5.153   5.119   2.276  0.1438  0.2613 -0.6912
13865TIP3    H263011   5.072   5.034   2.181  1.5174  0.1982 -1.8301
13866TIP3   OH263012   1.412   0.812   5.957  0.1327 -0.1519 -0.2915
13866TIP3    H163013   1.417   0.903   5.984  0.9395 -0.6925  1.4886
13866TIP3    H263014   1.486   0.769   6.000 -0.7554 -1.8290 -0.3365
13867TIP3   OH263015   2.896   6.455   5.679 -0.0063  0.0919 -0.6039
13867TIP3    H163016   2.885   6.446   5.585  0.2447 -0.4729 -0.5853
13867TIP3    H263017   2.808   6.475   5.712 -0.3805 -1.1116 -0.8069
13868TIP3   OH263018   2.056   1.542  14.348 -0.0268  0.4715  0.0144
13868TIP3    H163019   2.145   1.510  14.334 -0.0834 -0.6249  1.8461
13868TIP3    H263020   2.054   1.569  14.440 -1.3931  1.1405 -0.1924
13869TIP3   OH263021   1.807   0.383   2.166 -0.0226 -0.1675 -0.0125
13869TIP3    H163022   1.800   0.473   2.197  1.4228 -0.2134  0.5328
13869TIP3    H263023   1.829   0.332   2.244 -0.3470 -0.9120 -0.4015
13870TIP3   OH263024   6.507   0.766   1.559  0.0277  0.5081  0.0534
13870TIP3    H163025   6.461   0.714   1.493  1.4724  0.3933 -0.9183
13870TIP3    H263026   6.593   0.725   1.566  0.5664  1.6859  0.6011
13871TIP3   OH263027   4.135   2.062  11.887  0.0098  0.2452 -0.2230
13871TIP3    H163028   4.167   1.974  11.869 -2.8717 -1.0206  0.1601
13871TIP3    H263029   4.136   2.106  11.802  1.3543 -0.1821 -0.4452
13872TIP3   OH263030   1.318   0.083  16.807 -0.0086  0.0851 -0.0344
13872TIP3    H163031   1.289   0.159  16.857  1.1643  2.1785 -2.2953
13872TIP3    H263032   1.273   0.090  16.723  1.2602 -0.8280 -0.8426
13873TIP3   OH263033   0.371   5.775   5.012  0.2243 -0.3737 -0.2826
13873TIP3    H163034   0.277   5.761   5.026 -0.0075  1.6167  0.4889
13873TIP3    H263035   0.405   5.689   4.989 -1.4963 -1.4669  1.0528
13874TIP3   OH263036   6.681   4.930  13.157 -0.4284  0.3652  0.1491
13874TIP3    H163037   6.770   4.965  13.158 -0.0675 -0.5160  1.6124
13874TIP3    H263038   6.627   5.004  13.130  0.6214  1.2056  0.2618
13875TIP3   OH263039   2.488   0.609  16.179 -0.6507 -0.4110 -0.1591
13875TIP3    H163040   2.415   0.600  16.241 -1.5690 -1.3929 -1.3292
13875TIP3    H263041   2.489   0.526  16.131 -0.4510  0.5844 -1.9537
13876TIP3   OH263042   6.488   2.634  15.689 -0.1644  0.5457  0.1653
13876TIP3    H163043   6.556   2.700  15.706 -1.7137  2.0448  0.8522
13876TIP3    H263044   6.444   2.623  15.773 -0.6327 -0.5712 -0.2172
13877TIP3   OH263045   5.425   0.356  17.370  0.3692 -0.0140  0.4810
13877TIP3    H163046   5.388   0.349  17.458  1.0081  0.4167  0.7882
13877TIP3    H263047   5.502   0.411  17.381 -0.7253  1.8657 -0.6976
13878TIP3   OH263048   5.085   0.952   0.434  0.1071 -0.9790  0.1321
13878TIP3    H163049   5.130   0.921   0.513 -0.5308 -0.1750  0.8320
13878TIP3    H263050   5.140   0.921   0.362  0.6761 -1.7786  0.8778
13879TIP3   OH263051   5.466   3.558  12.019 -0.1271  0.3087 -0.2117
13879TIP3    H163052   5.405   3.493  12.054  0.2809 -0.8983 -1.5832
13879TIP3    H263053   5.552   3.517  12.028  0.3925  1.5837  0.8315
13880TIP3   OH263054   3.774   5.464  15.376  0.6424 -0.1221  0.6302
13880TIP3    H163055   3.818   5.432  15.297  1.9838  1.1227  0.8312
13880TIP3    H263056   3.702   5.519  15.343  0.4746 -0.5420  0.2888
13881TIP3   OH263057   1.511   6.581  15.166 -0.2349 -0.1313 -0.4519
13881TIP3    H163058   1.450   6.637  15.214 -0.3417  0.4718 -1.2649
13881TIP3    H263059   1.562   6.536  15.234 -0.2116  0.8865  0.2212
13882TIP3   OH263060   2.027   3.480  12.425 -0.4728  0.2627 -0.0984
13882TIP3    H163061   1.951   3.425  12.410 -0.8951  1.0775 -1.0197
13882TIP3    H263062   2.064   3.495  12.338 -0.0344  0.9644  0.1980
13883TIP3   OH263063   0.463   5.354   5.992 -0.2688 -0.2748  0.2310
13883TIP3    H163064   0.508   5.273   6.016 -2.1040 -1.4087  0.1028
13883TIP3    H263065   0.504   5.421   6.046  1.5864 -1.1833  0.0436
13884TIP3   OH263066   0.999   4.309  11.954  0.4353  0.3750 -0.1479
13884TIP3    H163067   0.978   4.216  11.945 -1.3538  0.6542  0.7506
13884TIP3    H263068   0.915   4.353  11.954  1.2487  2.0126 -0.5011
13885TIP3   OH263069   5.984   6.404  15.534 -0.3175  0.1477  0.0301
13885TIP3    H163070   5.918   6.471  15.516 -1.6008 -0.9426  0.4421
13885TIP3    H263071   5.988   6.400  15.630 -0.9409 -0.9505  0.0346
13886TIP3   OH263072   4.209   2.382   4.331 -0.4233  0.2464  0.0926
13886TIP3    H163073   4.297   2.406   4.301  0.0744 -0.0351  1.2882
13886TIP3    H263074   4.196   2.294   4.295 -1.4049  1.3506 -2.4997
13887TIP3   OH263075   4.346   0.167  16.367 -0.1270 -0.0627 -0.3949
13887TIP3    H163076   4.419   0.112  16.339  0.6646  1.7649 -2.2047
13887TIP3    H263077   4.317   0.129  16.450  1.6517 -1.9541 -0.5688
13888TIP3   OH263078   4.589   0.434  13.221  0.8655  0.1204  0.0302
13888TIP3    H163079   4.543   0.400  13.144 -2.0946  0.3048  1.5701
13888TIP3    H263080   4.616   0.522  13.196  0.7491 -0.1460 -1.0965
13889TIP3   OH263081   1.007   0.468  15.220 -0.2272 -0.3931  0.4445
13889TIP3    H163082   0.987   0.374  15.213 -0.8375 -0.4781  2.5412
13889TIP3    H263083   1.101   0.473  15.207 -0.0085 -1.4701  1.3999
13890TIP3   OH263084   6.073   5.811   3.139  0.0213  0.1284  0.0734
13890TIP3    H163085   6.151   5.829   3.086  1.1155 -0.7117  1.3233
13890TIP3    H263086   6.081   5.718   3.161 -1.6332 -0.0987 -0.2049
13891TIP3   OH263087   1.639   4.698  16.637 -0.1344  0.0773 -0.4311
13891TIP3    H163088   1.681   4.780  16.661 -2.4298  1.1996  0.0583
13891TIP3    H263089   1.611   4.659  16.720  1.6869 -1.7054 -0.5772
13892TIP3   OH263090   1.606   5.818   3.371 -0.3609  0.3033 -0.1233
13892TIP3    H163091   1.674   5.752   3.356 -0.7402 -0.6698  2.0293
13892TIP3    H263092   1.530   5.768   3.402 -0.3676  1.7462  2.5170
13893TIP3   OH263093   0.924   4.612   2.962  0.5639  0.5444  0.2047
13893TIP3    H163094   0.856   4.664   3.005 -0.3013  0.3529 -0.8834
13893TIP3    H263095   0.931   4.651   2.874  0.9882 -0.2145 -0.1021
13894TIP3   OH263096   2.992   5.129   0.506 -0.3271  0.5674 -0.4049
13894TIP3    H163097   2.924   5.185   0.467 -0.8633 -0.1398 -0.5136
13894TIP3    H263098   3.019   5.176   0.585 -0.8487  0.9249 -0.4289
13895TIP3   OH263099   5.518   4.308   4.667  0.8357 -0.6079 -0.1849
13895TIP3    H163100   5.488   4.266   4.747  0.4439 -0.3222 -0.1770
13895TIP3    H263101   5.491   4.399   4.676 -0.7226 -0.9140 -1.3686
13896TIP3   OH263102   3.710   3.404   5.012  0.0023 -0.1255  0.3036
13896TIP3    H163103   3.632   3.454   4.988  0.3075  0.1606 -0.1077
13896TIP3    H263104   3.678   3.316   5.030 -0.6632  0.3967  1.8325
13897TIP3   OH263105   5.781   1.571   0.534  0.1505 -0.4181 -0.4853
13897TIP3    H163106   5.756   1.657   0.500 -2.2128  0.2643  2.5269
13897TIP3    H263107   5.736   1.509   0.477 -0.3649  0.4588 -1.0616
13898TIP3   OH263108   4.095   5.048   2.441 -0.3332  0.0480  0.6995
13898TIP3    H163109   4.059   5.127   2.400 -0.5777 -0.1632  0.5053
13898TIP3    H263110   4.161   5.016   2.379 -0.8004 -0.3483  0.3979
13899TIP3   OH263111   0.163   6.038  11.336 -0.3324  0.4631  0.1048
13899TIP3    H163112   0.179   5.944  11.340  1.6616  0.5858 -2.3571
13899TIP3    H263113   0.080   6.047  11.290 -1.3919 -0.0318  1.8071
13900TIP3   OH263114   1.512   0.084   3.414 -0.3175  0.4924  0.0311
13900TIP3    H163115   1.603   0.054   3.410 -0.6490 -0.5499 -0.1143
13900TIP3    H263116   1.484   0.062   3.503 -0.6248  0.2046 -0.1371
13901TIP3   OH263117   4.717   3.273   2.328  0.0078 -0.2359 -0.1744
13901TIP3    H163118   4.733   3.354   2.280  2.3659 -2.1298 -2.9175
13901TIP3    H263119   4.622   3.269   2.338 -0.1736  3.2645  1.0393
13902TIP3   OH263120   3.996   5.225  12.979  0.4355  0.0701 -0.6635
13902TIP3    H163121   3.913   5.268  12.999  0.4664 -0.2742  0.2649
13902TIP3    H263122   4.060   5.268  13.035  0.7845 -0.0518 -0.9616
13903TIP3   OH263123   2.249   0.132   5.472  0.0645 -0.0624 -0.5121
13903TIP3    H163124   2.268   0.197   5.540 -0.2266  0.0766 -0.5592
13903TIP3    H263125   2.175   0.082   5.507  0.8886 -0.9853 -0.0694
13904TIP3   OH263126   3.623   2.812   3.163 -0.2606  0.0767  0.4701
13904TIP3    H163127   3.695   2.749   3.166  0.6607  1.0240 -0.8103
13904TIP3    H263128   3.599   2.825   3.255  1.2793 -0.1814  0.9383
13905TIP3   OH263129   0.810   3.498   5.242 -0.4837 -0.2740 -1.2830
13905TIP3    H163130   0.829   3.539   5.326 -1.0829 -1.6978 -0.4287
13905TIP3    H263131   0.763   3.565   5.192  1.9371  1.4413 -1.4470
13906TIP3   OH263132   1.897   3.558  10.895 -0.3097  0.3380  0.0267
13906TIP3    H163133   1.922   3.557  10.802  0.1803  3.2759  0.0320
13906TIP3    H263134   1.946   3.631  10.932 -0.2133 -0.9868  2.7412
13907TIP3   OH263135   2.067   0.264  11.683 -0.0117 -0.7886 -0.5779
13907TIP3    H163136   2.109   0.350  11.689  2.0204 -1.7354 -0.5173
13907TIP3    H263137   2.001   0.274  11.615 -2.2352  1.7345  1.6988
13908TIP3   OH263138   5.800   0.800   1.899  0.2291  0.3717  0.0907
13908TIP3    H163139   5.870   0.761   1.847  1.7472  2.3043  0.5474
13908TIP3    H263140   5.760   0.727   1.946  1.4312 -0.8840 -0.7709
13909TIP3   OH263141   6.724   1.849   3.593 -0.3157  0.0792  0.1695
13909TIP3    H163142   6.689   1.867   3.506 -1.4161 -1.5425  0.2326
13909TIP3    H263143   6.818   1.865   3.585 -0.8487  3.8574 -0.1897
13910TIP3   OH263144   4.830   0.130   4.927 -0.4169 -0.3627 -0.7230
13910TIP3    H163145   4.910   0.181   4.918 -1.1513  0.7848 -0.8783
13910TIP3    H263146   4.790   0.161   5.008 -0.3137 -1.5099 -0.2107
13911TIP3   OH263147   0.729   3.439   4.901  0.2873  0.3438 -0.5940
13911TIP3    H163148   0.780   3.383   4.842 -0.8465 -1.8389  0.3533
13911TIP3    H263149   0.691   3.377   4.964  1.6953  2.5155  2.6600
13912TIP3   OH263150   4.958   6.170   1.214 -0.5126  0.6674  0.0815
13912TIP3    H163151   4.872   6.151   1.178  0.5453 -1.4857 -1.5607
13912TIP3    H263152   4.977   6.096   1.271  0.6586  0.5471 -0.4293
13913TIP3   OH263153   0.432   0.397  12.105  0.0775  0.0894 -0.4389
13913TIP3    H163154   0.419   0.461  12.035  1.0837  0.5033 -0.2633
13913TIP3    H263155   0.494   0.439  12.164  1.5327 -1.4281 -0.8121
13914TIP3   OH263156   4.317   4.119   5.165 -0.4538 -0.1750 -0.1068
13914TIP3    H163157   4.296   4.160   5.081  0.4631 -3.0580 -1.8879
13914TIP3    H263158   4.409   4.093   5.157 -0.1624 -0.0047  2.0625
13915TIP3   OH263159   5.646   5.483   5.447  0.6091 -0.5677 -0.1587
13915TIP3    H163160   5.633   5.547   5.378 -0.4941 -1.6718 -1.0116
13915TIP3    H263161   5.566   5.486   5.499  1.5508  0.4868  1.3284
13916TIP3   OH263162   5.729   2.429  16.410 -0.4040  0.6389 -0.4806
13916TIP3    H163163   5.765   2.340  16.401  1.1457  1.2041 -0.1885
13916TIP3    H263164   5.804   2.487  16.398 -1.7513  2.0491 -3.0416
13917TIP3   OH263165   5.425   2.348  15.183  0.0324  0.3018  0.1266
13917TIP3    H163166   5.458   2.276  15.235  0.7383 -0.1510 -0.9245
13917TIP3    H263167   5.347   2.378  15.231  0.4976 -0.2634  1.2784
13918TIP3   OH263168   3.338   3.788   6.358  0.4275  0.0953  0.2060
13918TIP3    H163169   3.424   3.828   6.345  0.3934 -0.1093 -0.6991
13918TIP3    H263170   3.278   3.844   6.310  0.4516 -1.2899 -1.5334
13919TIP3   OH263171   0.734   3.776  11.421 -0.0997  0.0568 -0.2464
13919TIP3    H163172   0.714   3.683  11.428 -0.9088  0.2113 -0.3672
13919TIP3    H263173   0.735   3.807  11.512 -2.4353  0.4223 -0.2598
13920TIP3   OH263174   3.279   2.372   0.720  0.9743 -0.0009  0.0648
13920TIP3    H163175   3.193   2.333   0.733  1.4467 -0.7872  1.0019
13920TIP3    H263176   3.332   2.301   0.684  1.7660 -0.1818  1.4945
13921TIP3   OH263177   2.773   2.695   2.205  0.2098 -0.4980 -0.1157
13921TIP3    H163178   2.858   2.665   2.236 -0.0384 -0.2027  0.8964
13921TIP3    H263179   2.793   2.754   2.132  0.8035 -1.2896 -0.6068
13922TIP3   OH263180   0.043   6.412  13.992  0.1029 -0.1898 -0.0782
13922TIP3    H163181   0.018   6.420  14.084 -0.8942  0.5027 -0.3996
13922TIP3    H263182   0.057   6.502  13.963  1.3387 -0.4528 -0.3781
13923TIP3   OH263183   1.501   5.777  11.058  0.1655 -0.4211 -0.4110
13923TIP3    H163184   1.415   5.763  11.097  0.7278  0.9418  1.4754
13923TIP3    H263185   1.538   5.690  11.048 -1.5021 -1.0622 -1.5543
13924TIP3   OH263186   4.727   2.915   4.151  0.7366 -1.0879  0.3559
13924TIP3    H163187   4.711   2.862   4.074 -2.1099 -0.5352  0.4222
13924TIP3    H263188   4.741   3.004   4.117  1.2884 -1.1467  0.4195
13925TIP3   OH263189   0.337   0.799  15.050  0.4098 -0.4897  0.1938
13925TIP3    H163190   0.327   0.714  15.094  1.0258  0.3388  2.0574
13925TIP3    H263191   0.431   0.813  15.043  0.3161 -0.1914 -0.5872
13926TIP3   OH263192   6.168   4.955  13.645 -0.0829 -0.0659  0.0618
13926TIP3    H163193   6.212   5.015  13.705  0.7901  0.5398 -1.1528
13926TIP3    H263194   6.075   4.963  13.668  0.0139  1.7284 -0.0380
13927TIP3   OH263195   1.190   3.704   6.269 -0.0348  0.2133 -0.1303
13927TIP3    H163196   1.108   3.742   6.302 -0.5289  0.1239 -1.2062
13927TIP3    H263197   1.186   3.718   6.174  1.2167  0.2260 -0.1927
13928TIP3   OH263198   4.282   1.329   4.247  0.1719 -0.0126  0.4092
13928TIP3    H163199   4.378   1.329   4.242  0.2283  0.6641  1.2544
13928TIP3    H263200   4.257   1.415   4.211 -0.0506  0.2314  1.1367
13929TIP3   OH263201   6.589   4.520   2.564 -0.1866 -0.1500  0.0598
13929TIP3    H163202   6.609   4.469   2.485  2.3028 -0.6182  0.8853
13929TIP3    H263203   6.670   4.569   2.582 -1.0237  0.7072  1.7717
13930TIP3   OH263204   2.054   5.961  12.475 -0.3055 -0.4234  0.2114
13930TIP3    H163205   2.131   5.906  12.463  0.0926  0.0691  0.4774
13930TIP3    H263206   2.024   5.980  12.386  0.0496 -0.3824  0.1005
13931TIP3   OH263207   4.931   0.603  16.525  0.0678  0.5090 -0.2560
13931TIP3    H163208   4.881   0.607  16.444 -1.1319  0.4024  0.4454
13931TIP3    H263209   4.867   0.578  16.591  0.9584  0.8461  0.7728
13932TIP3   OH263210   1.119   4.127   4.192  0.3153  0.1004 -0.6619
13932TIP3    H163211   1.149   4.158   4.106  1.3151  1.4863  0.1563
13932TIP3    H263212   1.184   4.061   4.217  0.0886 -0.2197 -0.8992
13933TIP3   OH263213   4.775   0.922   2.426 -0.0494  0.5953  0.3275
13933TIP3    H163214   4.743   0.915   2.516 -0.5824 -0.1198  0.0950
13933TIP3    H263215   4.704   0.886   2.372  1.3449 -1.6589 -0.1657
13934TIP3   OH263216   1.001   4.779  11.744  0.0550  0.3381  0.4497
13934TIP3    H163217   1.037   4.700  11.785 -0.6776  0.9627  2.4108
13934TIP3    H263218   0.949   4.746  11.671  0.6795 -0.9162  0.5495
13935TIP3   OH263219   0.881   6.326   5.486 -0.9283  0.3801 -0.4390
13935TIP3    H163220   0.959   6.372   5.517  0.4228 -1.0379 -1.5698
13935TIP3    H263221   0.872   6.251   5.545 -0.7133 -0.1276 -1.0424
13936TIP3   OH263222   0.495   6.735   3.403  0.4753  0.1872  0.2594
13936TIP3    H163223   0.517   6.743   3.496 -1.6071  0.3610  0.8112
13936TIP3    H263224   0.434   6.661   3.400  0.3395  0.3261 -0.9332
13937TIP3   OH263225   4.760   3.434   1.195 -0.2548  0.4679 -0.5888
13937TIP3    H163226   4.689   3.445   1.132 -1.7922  0.1981  1.0164
13937TIP3    H263227   4.839   3.430   1.141 -1.1862  2.9586 -2.3181
13938TIP3   OH263228   3.307   4.720   0.913 -0.5093 -0.3518 -0.4604
13938TIP3    H163229   3.387   4.771   0.929 -0.5848 -0.2220 -0.4960
13938TIP3    H263230   3.280   4.745   0.824 -0.6486 -0.3139 -0.4081
13939TIP3   OH263231   4.842   3.773   2.136 -0.1785 -0.0255  0.1369
13939TIP3    H163232   4.907   3.806   2.199 -0.4577 -0.7471  0.8092
13939TIP3    H263233   4.894   3.741   2.062  0.1775  0.3393  0.2282
13940TIP3   OH263234   4.330   3.662   0.957 -0.7596  1.3906 -0.0833
13940TIP3    H163235   4.397   3.605   0.996 -0.7245  0.5298 -1.3568
13940TIP3    H263236   4.298   3.715   1.030 -1.5674 -1.0026  1.3897
13941TIP3   OH263237   0.857   6.163  12.891 -0.1303 -0.0624 -0.1264
13941TIP3    H163238   0.920   6.097  12.920 -0.8460  0.0295  1.7358
13941TIP3    H263239   0.878   6.176  12.798  2.5703 -0.0441  0.3935
13942TIP3   OH263240   5.158   1.102   4.451 -0.2423  0.0509 -1.5320
13942TIP3    H163241   5.142   1.044   4.377  0.4083  0.6005 -2.1096
13942TIP3    H263242   5.216   1.170   4.417  0.7375 -0.1350 -0.3103
13943TIP3   OH263243   0.163   0.073  15.466 -0.7312  1.0066 -0.0168
13943TIP3    H163244   0.234   0.013  15.488 -0.7889  0.2802 -1.6540
13943TIP3    H263245   0.142   0.116  15.549  0.7591  0.3358  0.7668
13944TIP3   OH263246   6.132   6.728  11.183  0.4582 -0.0505 -0.4867
13944TIP3    H163247   6.039   6.708  11.170  0.4374  0.4530 -1.1641
13944TIP3    H263248   6.177   6.682  11.113  0.7436 -0.3937 -0.0864
13945TIP3   OH263249   6.633   4.388   1.992  0.0249  0.0309 -0.0503
13945TIP3    H163250   6.611   4.370   1.900 -0.1068 -2.6912  0.4421
13945TIP3    H263251   6.726   4.408   1.990 -0.3475  1.8718 -0.9675
13946TIP3   OH263252   2.515   0.927  15.275 -0.5354 -0.1594 -0.3450
13946TIP3    H163253   2.422   0.927  15.297 -1.0176  0.5638 -2.1857
13946TIP3    H263254   2.538   0.834  15.266 -0.5222 -0.4531  2.0658
13947TIP3   OH263255   0.689   0.856  15.053  1.0393 -0.4116 -0.1232
13947TIP3    H163256   0.686   0.945  15.017  0.2467 -0.5824 -0.4871
13947TIP3    H263257   0.758   0.812  15.003  0.0145 -0.6180 -1.3803
13948TIP3   OH263258   2.553   0.089   0.169 -0.7641 -0.0132  0.3368
13948TIP3    H163259   2.615   0.067   0.238 -2.5189 -0.8094  1.7568
13948TIP3    H263260   2.588   0.049   0.090  1.3494  1.0015  0.6991
13949TIP3   OH263261   5.222   5.636  11.662 -0.5873 -0.1293 -0.0570
13949TIP3    H163262   5.262   5.670  11.742  2.6146 -2.2758 -0.5526
13949TIP3    H263263   5.194   5.548  11.684 -2.5031  0.2890 -0.5815
13950TIP3   OH263264   3.996   2.425  13.625  0.5431 -0.7099 -0.0132
13950TIP3    H163265   3.997   2.337  13.664 -1.6867 -0.2207  1.3449
13950TIP3    H263266   4.072   2.469  13.664  0.6344 -1.4824  0.7265
13951TIP3   OH263267   0.008   0.760   4.576  0.2192  0.1216 -0.0351
13951TIP3    H163268   0.022   0.681   4.628  0.2624 -0.3103 -0.7006
13951TIP3    H263269  -0.084   0.783   4.593  0.4247  0.3778  0.7672
13952TIP3   OH263270   1.858   5.520  11.553 -0.0761  0.2715  0.0556
13952TIP3    H163271   1.925   5.460  11.584 -0.8429 -0.7837 -0.2343
13952TIP3    H263272   1.785   5.462  11.527 -0.5109  1.2675 -1.0504
13953TIP3   OH263273   0.884   6.540  16.643  0.2107 -0.0008 -0.0745
13953TIP3    H163274   0.898   6.481  16.569 -0.6909  0.8989 -0.9897
13953TIP3    H263275   0.853   6.622  16.604 -0.5543  0.4105  1.3059
13954TIP3   OH263276   4.151   3.978   2.882  0.1457 -0.3703  1.4242
13954TIP3    H163277   4.212   3.957   2.811 -1.5494  0.0372 -0.2560
13954TIP3    H263278   4.158   3.905   2.943  0.8221 -1.3348  0.2384
13955TIP3   OH263279   2.982   0.447   3.780  0.1233 -0.0329  0.6587
13955TIP3    H163280   3.034   0.451   3.700 -0.9483 -1.5401 -0.1480
13955TIP3    H263281   3.029   0.385   3.836 -0.3734 -0.8050  0.2349
13956TIP3   OH263282   6.504   3.506   3.625 -0.1480  0.3232  0.0867
13956TIP3    H163283   6.551   3.589   3.626  0.4745  0.0310 -1.5579
13956TIP3    H263284   6.416   3.528   3.654  0.4969  1.2075  1.4623
13957TIP3   OH263285   6.745   0.675  16.100  0.3374 -0.4220  0.2754
13957TIP3    H163286   6.760   0.605  16.036  1.1651  0.5632 -0.6719
13957TIP3    H263287   6.650   0.682  16.107  0.2172 -0.4688 -0.9805
13958TIP3   OH263288   2.897   1.811   6.541  0.2769  0.1783  0.2267
13958TIP3    H163289   2.960   1.883   6.545 -0.3725  0.7640  0.1534
13958TIP3    H263290   2.820   1.845   6.587 -0.6762  0.2033 -1.3044
13959TIP3   OH263291   2.963   1.976  17.234 -0.1618  0.3559  0.3091
13959TIP3    H163292   3.039   2.001  17.287  0.5754 -0.5156 -0.3038
13959TIP3    H263293   2.969   2.033  17.157 -0.3021  0.4941  0.4003
13960TIP3   OH263294   5.543   2.036  10.506  0.1041 -0.0434  0.1068
13960TIP3    H163295   5.619   2.075  10.463  0.2250 -2.3228 -2.0070
13960TIP3    H263296   5.470   2.090  10.479  0.3474 -0.7421 -2.2316
13961TIP3   OH263297   6.108   1.451  13.416  0.0515 -0.4292 -0.0248
13961TIP3    H163298   6.149   1.371  13.380  1.1981  0.0920  0.0686
13961TIP3    H263299   6.019   1.450  13.381 -0.7470 -2.9278  1.7972
13962TIP3   OH263300   1.195   6.092  14.679  0.0591 -1.0930 -0.1182
13962TIP3    H163301   1.243   6.168  14.647 -2.7229 -0.1964 -2.6544
13962TIP3    H263302   1.119   6.129  14.725 -1.0544 -2.2607 -0.9312
13963TIP3   OH263303   3.161   1.228   2.558 -0.5752 -0.5588 -0.3616
13963TIP3    H163304   3.126   1.313   2.585 -0.9955 -0.5477 -0.9155
13963TIP3    H263305   3.162   1.232   2.463  0.5639 -0.7211 -0.3675
13964TIP3   OH263306   2.345   5.750  11.129  0.6692  0.5343 -0.5533
13964TIP3    H163307   2.422   5.697  11.152  0.8718  0.9149 -0.3563
13964TIP3    H263308   2.358   5.773  11.037  1.1271  1.1617 -0.3383
13965TIP3   OH263309   2.384   6.217  14.565  0.5440 -0.5640 -0.4157
13965TIP3    H163310   2.377   6.122  14.576 -0.3245 -0.5118 -0.4167
13965TIP3    H263311   2.301   6.243  14.525  1.0127  0.1226 -0.9760
13966TIP3   OH263312   6.598   2.237  14.402 -0.0005 -0.5541 -0.4482
13966TIP3    H163313   6.538   2.249  14.328 -0.7110 -1.3060 -0.0164
13966TIP3    H263314   6.660   2.310  14.395 -0.7569  0.0436 -1.1165
13967TIP3   OH263315   5.618   0.866   6.056 -0.1311 -0.2979  0.0370
13967TIP3    H163316   5.618   0.807   5.980 -0.1576 -1.4212  0.8904
13967TIP3    H263317   5.525   0.878   6.076 -0.2058  1.3915 -1.1324
13968TIP3   OH263318   6.401   0.672   3.655  0.7119 -0.0892 -0.5813
13968TIP3    H163319   6.475   0.654   3.597  2.3634  1.2355  0.9728
13968TIP3    H263320   6.356   0.588   3.664  2.7324 -1.2524 -0.6721
13969TIP3   OH263321   2.844   2.008   0.804  0.3461  0.1228 -0.0768
13969TIP3    H163322   2.815   1.924   0.841 -1.3108  1.0855  0.9548
13969TIP3    H263323   2.923   1.986   0.755  1.3803 -1.6296  2.1686
13970TIP3   OH263324   3.091   0.197   4.712 -0.3263  0.2258 -0.6073
13970TIP3    H163325   3.110   0.201   4.805 -1.5963  0.6357 -0.3493
13970TIP3    H263326   3.028   0.268   4.697  0.0988  0.3700 -1.8379
13971TIP3   OH263327   2.940   5.531   6.097  0.6127  0.3573 -0.1461
13971TIP3    H163328   2.942   5.436   6.087 -1.9278  0.2887 -0.6829
13971TIP3    H263329   3.032   5.557   6.098  1.3664 -1.9884 -1.1309
13972TIP3   OH263330   2.018   4.648   6.189  0.9065 -0.2851 -0.1542
13972TIP3    H163331   1.995   4.712   6.256  0.0477  0.3074 -0.9859
13972TIP3    H263332   2.085   4.692   6.136  0.4651 -0.1490 -0.6021
13973TIP3   OH263333   4.094   6.078  10.965  0.4904  0.1379  0.0770
13973TIP3    H163334   4.017   6.133  10.950  0.9976  0.6540 -0.7116
13973TIP3    H263335   4.124   6.102  11.053  0.0205  0.2733  0.2019
13974TIP3   OH263336   1.795   3.876   3.383  0.2782  0.3109  0.2680
13974TIP3    H163337   1.881   3.879   3.342 -0.4199 -0.0677 -1.2784
13974TIP3    H263338   1.808   3.823   3.462  1.4101  0.0549 -0.0734
13975TIP3   OH263339   1.575   2.438  12.901  0.5458 -0.7086 -0.0049
13975TIP3    H163340   1.522   2.418  12.978  1.6378  0.1207  1.0043
13975TIP3    H263341   1.571   2.359  12.848 -1.3962 -0.7930  0.1858
13976TIP3   OH263342   1.288   2.078   6.082  0.5302 -0.0148  0.2033
13976TIP3    H163343   1.340   2.076   6.162  1.5260 -0.3416 -0.4363
13976TIP3    H263344   1.207   2.123   6.107  1.5574  1.4911  0.9526
13977TIP3   OH263345   1.627   1.013   5.821 -0.5148  0.6507 -0.9552
13977TIP3    H163346   1.670   0.997   5.737  1.3899  1.2175 -0.1290
13977TIP3    H263347   1.631   0.928   5.866 -1.0204  0.4941 -1.1990
13978TIP3   OH263348   0.486   6.471   2.401 -0.5188 -0.4016  0.4233
13978TIP3    H163349   0.569   6.513   2.421  0.3307 -1.1763 -1.2437
13978TIP3    H263350   0.426   6.543   2.381  0.4391  0.1158 -0.7197
13979TIP3   OH263351   2.886   6.711  15.189  0.1688  0.0588  0.0804
13979TIP3    H163352   2.843   6.691  15.105 -0.3392 -1.2253  0.6107
13979TIP3    H263353   2.979   6.698  15.172  0.0307 -0.6394 -0.1807
13980TIP3   OH263354   4.822   0.033  15.289 -0.0326 -0.4672 -0.2465
13980TIP3    H163355   4.813   0.019  15.383  0.4504 -0.3080 -0.1706
13980TIP3    H263356   4.742   0.080  15.264 -0.2842 -0.7419  0.0355
13981TIP3   OH263357   2.906   3.853  15.281 -0.0104 -0.5720 -0.1679
13981TIP3    H163358   2.897   3.802  15.362 -1.8443  0.1942  0.1647
13981TIP3    H263359   2.928   3.788  15.214  0.8904 -1.3150  0.8074
13982TIP3   OH263360   6.556   4.741  14.156  0.2062  0.0279  0.2282
13982TIP3    H163361   6.483   4.686  14.186  0.7385 -0.1724  1.1790
13982TIP3    H263362   6.545   4.744  14.060 -0.9069 -0.1943  0.3281
13983TIP3   OH263363   3.098   2.187   3.640  0.5598  0.1237  0.2468
13983TIP3    H163364   3.005   2.164   3.628  0.9111 -0.7239 -1.0738
13983TIP3    H263365   3.143   2.102   3.644  1.8575  0.3226 -4.2937
13984TIP3   OH263366   1.780   1.824   1.426 -0.4887 -0.1053 -0.0180
13984TIP3    H163367   1.688   1.824   1.453 -1.0018 -1.5332 -1.5265
13984TIP3    H263368   1.801   1.731   1.418  0.5674  0.2234 -1.3137
13985TIP3   OH263369   4.978   0.355  16.315  0.1134  0.2822  0.2688
13985TIP3    H163370   5.045   0.360  16.384  0.2302 -0.9665  0.2725
13985TIP3    H263371   5.018   0.302  16.246 -1.2541 -1.5256  0.7820
13986TIP3   OH263372   1.648   0.709   3.492 -0.3235 -0.1324 -0.0267
13986TIP3    H163373   1.650   0.650   3.417 -2.0235  1.3911 -1.3813
13986TIP3    H263374   1.739   0.736   3.504  0.1760 -1.4791 -0.6354
13987TIP3   OH263375   0.630   6.238  15.685  0.6804  0.1471  0.0372
13987TIP3    H163376   0.571   6.241  15.610  1.6399  0.9736 -0.7094
13987TIP3    H263377   0.647   6.144  15.698  1.3943  0.0314 -1.5184
13988TIP3   OH263378   5.673   4.181   5.040 -0.5334  0.0879  0.1880
13988TIP3    H163379   5.588   4.213   5.011 -0.6205 -0.0869  0.2509
13988TIP3    H263380   5.661   4.162   5.133 -0.5922 -0.5081  0.0621
13989TIP3   OH263381   4.431   3.641   5.498  0.0645 -0.2061 -0.1158
13989TIP3    H163382   4.416   3.711   5.435 -3.5319  1.1911  1.9544
13989TIP3    H263383   4.488   3.680   5.564 -2.1145  1.1040  1.1570
13990TIP3   OH263384   3.192   2.339   4.532 -0.1425 -0.0238  0.2981
13990TIP3    H163385   3.161   2.344   4.623  0.8520  1.4144  0.5882
13990TIP3    H263386   3.226   2.426   4.513 -0.1694 -0.3485 -1.4215
13991TIP3   OH263387   0.813   1.449  14.962 -0.7231 -0.3802 -0.8425
13991TIP3    H163388   0.802   1.543  14.952  0.7356  0.1071  1.3906
13991TIP3    H263389   0.908   1.435  14.967 -0.9283 -1.6034  1.1588
13992TIP3   OH263390   2.948   5.003  14.605  0.5726 -0.0482  0.5590
13992TIP3    H163391   3.043   4.998  14.598  0.6197  1.0109  0.3729
13992TIP3    H263392   2.920   5.049  14.526  0.0933  1.4525  1.5503
13993TIP3   OH263393   0.229   4.395  15.506 -0.9238 -0.6420 -0.6362
13993TIP3    H163394   0.186   4.313  15.480  0.0859 -1.7137  0.8662
13993TIP3    H263395   0.171   4.433  15.571  0.2423 -2.0425  1.3244
13994TIP3   OH263396   0.545   4.325   3.331  0.1749  0.0566 -0.6349
13994TIP3    H163397   0.566   4.232   3.331  0.7930  0.1867 -1.3770
13994TIP3    H263398   0.477   4.334   3.398  0.3629 -0.8635 -0.3034
13995TIP3   OH263399   6.056   6.498  12.687  0.4794  0.2211  0.1392
13995TIP3    H163400   5.990   6.528  12.750 -0.0446 -1.4320  0.4119
13995TIP3    H263401   6.121   6.569  12.685  1.2328 -0.2043  3.5476
13996TIP3   OH263402   5.003   3.686   0.743  0.4580 -0.0412  0.7095
13996TIP3    H163403   5.095   3.669   0.722 -0.1917 -1.0108 -1.6357
13996TIP3    H263404   4.968   3.601   0.768 -0.3175 -0.1846 -0.7449
13997TIP3   OH263405   5.051   5.740   4.859 -0.2571  0.0868  0.3749
13997TIP3    H163406   5.139   5.707   4.841  0.0596  0.3906  1.2857
13997TIP3    H263407   4.996   5.701   4.792  0.0911 -2.3698  1.4132
13998TIP3   OH263408   1.859   2.636  13.651 -0.2260  0.6683 -0.1950
13998TIP3    H163409   1.857   2.731  13.652  1.6950  0.7433 -0.5201
13998TIP3    H263410   1.852   2.612  13.559 -0.4090  0.5054 -0.1407
13999TIP3   OH263411   5.515   2.331  11.952 -0.3291  0.0472  0.1424
13999TIP3    H163412   5.564   2.264  12.000 -1.0347  0.0302  0.8663
13999TIP3    H263413   5.431   2.290  11.933  0.2848 -0.3321 -2.0837
14000TIP3   OH263414   2.702   3.908  13.578 -0.4904 -0.0112 -0.0327
14000TIP3    H163415   2.688   3.950  13.663 -0.6622  1.5427 -0.7846
14000TIP3    H263416   2.766   3.964  13.533  1.1269 -1.9016 -0.2024
14001TIP3   OH263417   3.679   3.744   3.334 -0.0963 -0.2941 -0.1741
14001TIP3    H163418   3.720   3.659   3.345 -0.6146 -0.4655  0.4974
14001TIP3    H263419   3.752   3.804   3.319  0.2672 -0.8573 -0.6745
14002TIP3   OH263420   5.838   4.288  11.449  0.4577  0.4515  0.2684
14002TIP3    H163421   5.875   4.363  11.404 -0.5966  1.3388  0.8411
14002TIP3    H263422   5.746   4.286  11.423  0.4928 -0.7179  0.1668
14003TIP3   OH263423   6.173   5.343   1.254  0.2778 -0.1345  0.3901
14003TIP3    H163424   6.081   5.350   1.280  0.5867 -0.1792  1.5499
14003TIP3    H263425   6.221   5.391   1.322  1.3464 -2.3716  1.3002
14004TIP3   OH263426   2.173   4.778  16.093  0.3425  0.4789  0.5408
14004TIP3    H163427   2.182   4.684  16.077  0.7072  0.5161  0.5222
14004TIP3    H263428   2.085   4.799  16.062 -0.6020 -0.2710  2.5346
14005TIP3   OH263429   3.722   3.882  16.363 -0.2416  0.2158 -0.4920
14005TIP3    H163430   3.720   3.973  16.333 -3.4498 -0.2407 -2.1493
14005TIP3    H263431   3.714   3.888  16.458 -2.6635  1.7394 -0.7022
14006TIP3   OH263432   3.130   3.497   2.725  0.0926 -0.2348 -0.1197
14006TIP3    H163433   3.115   3.408   2.692  0.4589 -0.6866  0.9214
14006TIP3    H263434   3.048   3.521   2.767 -0.3330  0.2994 -1.1947
14007TIP3   OH263435   5.616   2.576  13.022  0.2988 -0.4516  0.5433
14007TIP3    H163436   5.696   2.525  13.037  0.5903 -0.1298  0.1151
14007TIP3    H263437   5.548   2.527  13.067  0.3191 -1.9642 -0.9957
14008TIP3   OH263438   0.974   4.902  16.830  0.1505  0.4850 -0.6871
14008TIP3    H163439   1.021   4.875  16.909 -2.0584 -1.6799  0.0451
14008TIP3    H263440   0.908   4.964  16.862  0.5566  1.1929 -1.2008
14009TIP3   OH263441   1.558   3.994   5.004  0.4603  0.4703  0.9219
14009TIP3    H163442   1.464   3.976   4.993  0.8557 -1.1616  0.0023
14009TIP3    H263443   1.565   4.089   4.995 -1.2400  0.7580  2.1297
14010TIP3   OH263444   0.674   2.980   5.159  0.5273  0.2120 -0.9080
14010TIP3    H163445   0.726   2.983   5.240  1.5407  1.1587 -1.5530
14010TIP3    H263446   0.607   2.914   5.175  0.2045  0.9403  0.9948
14011TIP3   OH263447   5.133   3.178   2.182 -0.0341 -0.0623 -0.0366
14011TIP3    H163448   5.106   3.205   2.094  2.2351 -1.5810 -1.2747
14011TIP3    H263449   5.132   3.082   2.180  1.1721 -0.1362  1.2165
14012TIP3   OH263450   1.355   4.128  17.050 -0.2513  0.3273 -0.1957
14012TIP3    H163451   1.264   4.137  17.079 -0.3187 -1.7092  0.3714
14012TIP3    H263452   1.377   4.214  17.013 -1.6259  1.6112  1.7830
14013TIP3   OH263453   0.372   2.166   4.233  0.5993  0.1443  0.7405
14013TIP3    H163454   0.286   2.208   4.224  1.0090  0.8060 -0.3287
14013TIP3    H263455   0.354   2.073   4.219  0.1698  0.3790 -0.3839
14014TIP3   OH263456   2.780   3.213  12.763 -0.1857 -0.4422 -0.1926
14014TIP3    H163457   2.744   3.162  12.690 -0.4890 -0.4657 -0.0296
14014TIP3    H263458   2.746   3.301  12.750  0.4857 -0.2289 -0.5757
14015TIP3   OH263459   3.831   0.248  11.663 -0.1727 -0.4957 -0.0242
14015TIP3    H163460   3.913   0.240  11.711 -0.1931 -1.0151 -0.0697
14015TIP3    H263461   3.775   0.180  11.700 -0.5952 -0.1294  0.0273
14016TIP3   OH263462   6.246   4.192   0.349  0.2930 -0.1279 -0.1508
14016TIP3    H163463   6.233   4.215   0.257  1.4600  0.2699 -0.2360
14016TIP3    H263464   6.266   4.275   0.391 -0.8613 -0.2070  0.6053
14017TIP3   OH263465   4.328   0.914   0.259  0.5244  0.1109  0.0174
14017TIP3    H163466   4.279   0.951   0.186  1.0627 -0.0403 -0.4264
14017TIP3    H263467   4.276   0.840   0.289  1.1871 -0.9940 -1.4287
14018TIP3   OH263468   1.424   6.183  14.060 -0.5212 -0.2692  0.0756
14018TIP3    H163469   1.355   6.213  14.001 -1.0478  1.3764  1.4599
14018TIP3    H263470   1.420   6.087  14.054  0.3986 -0.2040 -3.5698
14019TIP3   OH263471   2.361   6.412  16.940  0.1353  0.2703 -0.0688
14019TIP3    H163472   2.307   6.399  17.017  0.5351 -0.1850  0.1388
14019TIP3    H263473   2.335   6.343  16.879  0.3462  0.1663 -0.0436
14020TIP3   OH263474   3.116   2.513  13.969 -0.0798 -0.1526 -0.3308
14020TIP3    H163475   3.059   2.556  13.905 -0.0227 -0.2589 -0.4559
14020TIP3    H263476   3.069   2.519  14.052 -1.0627 -1.6771 -0.7205
14021TIP3   OH263477   1.736   1.059   1.595 -0.1195  0.2900  0.6463
14021TIP3    H163478   1.659   1.043   1.540  0.3728  2.1156 -0.6799
14021TIP3    H263479   1.811   1.043   1.538  0.4261  1.2318  1.0736
14022TIP3   OH263480   3.280   1.577   4.753  0.3013 -0.2695 -0.0227
14022TIP3    H163481   3.296   1.667   4.781  0.1463 -0.4825  0.7701
14022TIP3    H263482   3.367   1.539   4.741  0.3761 -0.3499  0.7501
14023TIP3   OH263483   3.841   2.014  12.575 -0.2427  0.1324 -0.0780
14023TIP3    H163484   3.932   2.038  12.594  0.3541  0.0687 -2.4813
14023TIP3    H263485   3.840   1.919  12.582  0.0666  0.0792 -0.6334
14024TIP3   OH263486   0.358   5.551  13.564 -0.5822  0.4989 -0.5552
14024TIP3    H163487   0.428   5.603  13.602 -0.7138  0.8984 -0.8524
14024TIP3    H263488   0.369   5.561  13.470 -0.2374 -0.5090 -0.6291
14025TIP3   OH263489   5.194   5.226  17.266 -0.0511  0.0610  0.0602
14025TIP3    H163490   5.107   5.188  17.282 -1.0393  0.4249 -3.5885
14025TIP3    H263491   5.251   5.151  17.254 -0.6325 -0.2430 -0.9093
14026TIP3   OH263492   2.698   4.208   0.619 -0.6306 -0.3337 -0.0440
14026TIP3    H163493   2.697   4.158   0.701 -0.4431 -1.8958 -0.9581
14026TIP3    H263494   2.613   4.190   0.579 -1.3683  1.6726  0.4833
14027TIP3   OH263495   5.002   4.563   4.282  0.1227  0.1515 -0.1485
14027TIP3    H163496   5.097   4.567   4.297  0.0984 -1.3453  0.5583
14027TIP3    H263497   4.980   4.470   4.292 -0.9852 -0.0080 -3.0164
14028TIP3   OH263498   0.733   1.877   1.779 -0.1830 -0.0957 -0.5455
14028TIP3    H163499   0.792   1.802   1.773 -1.7172 -1.4160  0.2491
14028TIP3    H263500   0.757   1.920   1.862  0.9512  0.5598 -1.1850
14029TIP3   OH263501   3.040   0.603   1.650  0.0109  0.2415 -0.3768
14029TIP3    H163502   3.086   0.687   1.651  0.6359  0.1331 -3.9311
14029TIP3    H263503   2.951   0.625   1.623  0.1606 -0.1722 -1.2587
14030TIP3   OH263504   3.865   5.225  11.330  0.0729  0.1596  0.3870
14030TIP3    H163505   3.894   5.296  11.274  3.4131 -2.0806 -1.0257
14030TIP3    H263506   3.912   5.238  11.412  1.4800 -0.8329 -0.2158
14031TIP3   OH263507   6.036   4.793   5.911  0.2108  0.6480  0.3087
14031TIP3    H163508   6.053   4.778   6.004  1.1362 -0.4840 -0.0205
14031TIP3    H263509   6.105   4.854   5.884  3.3315 -2.9878 -0.7413
14032TIP3   OH263510   1.277   4.846  11.627  0.0827  0.0513 -0.3523
14032TIP3    H163511   1.343   4.902  11.584  1.2760 -1.6020 -0.7691
14032TIP3    H263512   1.196   4.862  11.579  0.5253  0.9994 -0.8087
14033TIP3   OH263513   5.797   5.853   3.035 -0.5720  0.2517  0.3689
14033TIP3    H163514   5.839   5.933   3.066  0.3542 -0.8502  2.1451
14033TIP3    H263515   5.784   5.868   2.941  3.1842  0.9894 -0.1977
14034TIP3   OH263516   2.639   1.081  11.682  0.0812 -0.0669  0.3450
14034TIP3    H163517   2.703   1.143  11.718  0.7501 -1.7431  2.2224
14034TIP3    H263518   2.673   1.058  11.595  0.5002  1.1741  0.1628
14035TIP3   OH263519   2.488   6.390  13.580  0.2241 -0.8867  0.1821
14035TIP3    H163520   2.503   6.382  13.486 -0.1840 -1.0351  0.1244
14035TIP3    H263521   2.523   6.476  13.603 -1.5257  0.0826 -0.5039
14036TIP3   OH263522   4.430   0.397  15.076 -0.2233 -0.1061  0.6448
14036TIP3    H163523   4.503   0.340  15.099  0.2117 -0.8838 -2.2368
14036TIP3    H263524   4.365   0.383  15.144  0.2218 -3.4470  0.5334
14037TIP3   OH263525   0.134   4.392  13.702  0.4876  0.1357 -0.1747
14037TIP3    H163526   0.091   4.434  13.776  0.8852 -0.7861  0.6041
14037TIP3    H263527   0.135   4.459  13.634 -0.0447  0.9471  0.5895
14038TIP3   OH263528   4.676   6.723  16.791  0.9012 -0.3638 -0.2381
14038TIP3    H163529   4.717   6.646  16.831  2.5372  0.9752  0.7986
14038TIP3    H263530   4.686   6.709  16.697  1.3828 -1.3154 -0.0635
14039TIP3   OH263531   3.512   3.492   0.714 -1.1208  0.1895 -0.2789
14039TIP3    H163532   3.565   3.515   0.637 -3.4034 -0.5137 -2.1837
14039TIP3    H263533   3.576   3.479   0.784  1.2816 -1.0102 -2.5040
14040TIP3   OH263534   0.030   3.224   4.952 -0.2467  0.0095 -0.1356
14040TIP3    H163535   0.083   3.159   4.906  2.0077  1.0108  0.8928
14040TIP3    H263536  -0.025   3.262   4.883  2.7742  1.2376 -2.1173
14041TIP3   OH263537   2.048   4.890   1.289  0.5960 -0.4165 -0.3617
14041TIP3    H163538   1.986   4.944   1.338  0.1244 -0.5650 -0.7834
14041TIP3    H263539   2.100   4.952   1.239  0.3081 -0.3251 -0.5521
14042TIP3   OH263540   6.194   4.556   2.470  0.5885  0.0983 -0.1519
14042TIP3    H163541   6.198   4.651   2.462  0.8750  0.0558 -0.5248
14042TIP3    H263542   6.106   4.538   2.501 -0.0040  0.3737 -1.6247
14043TIP3   OH263543   2.368   0.777  13.932 -0.2024 -0.2118  0.6752
14043TIP3    H163544   2.384   0.840  14.002  0.7152 -0.5069  0.7549
14043TIP3    H263545   2.318   0.826  13.867  1.4990  1.0043  0.1910
14044TIP3   OH263546   2.476   4.270  15.568  0.3449  0.3387 -0.3319
14044TIP3    H163547   2.571   4.284  15.557  0.7017 -1.2412  0.4656
14044TIP3    H263548   2.463   4.271  15.663 -0.3681  0.1005 -0.4241
14045TIP3   OH263549   3.086   5.666   2.630  0.2228  0.1758  0.1015
14045TIP3    H163550   3.050   5.622   2.552  0.0897 -0.5961  0.5861
14045TIP3    H263551   3.179   5.675   2.611  0.0370  0.8758 -0.5516
14046TIP3   OH263552   2.506   3.492   4.278 -0.3385 -0.7714  0.6767
14046TIP3    H163553   2.471   3.404   4.268  0.1617 -1.0557  1.3332
14046TIP3    H263554   2.467   3.542   4.206  1.2015 -2.0827 -1.1969
14047TIP3   OH263555   0.826   2.332   1.502  0.3970 -0.0530 -0.2666
14047TIP3    H163556   0.884   2.266   1.540  0.6016 -0.2438 -0.9067
14047TIP3    H263557   0.741   2.317   1.544  0.1374 -1.4773 -1.2430
14048TIP3   OH263558   6.528   4.391  11.037 -0.4149 -0.1099  0.0264
14048TIP3    H163559   6.471   4.434  11.101 -0.0390 -1.3597  1.2613
14048TIP3    H263560   6.614   4.388  11.080 -0.0580 -0.6252 -0.7040
14049TIP3   OH263561   5.214   6.592  15.767  0.6048 -0.0556 -0.0570
14049TIP3    H163562   5.251   6.679  15.750 -0.9851  0.5707 -0.4370
14049TIP3    H263563   5.148   6.581  15.699  0.1040 -1.1513  0.5944
14050TIP3   OH263564   6.118   1.132  16.452 -0.1395 -0.8085 -0.1682
14050TIP3    H163565   6.097   1.145  16.359  0.0511 -0.6061 -0.1833
14050TIP3    H263566   6.211   1.152  16.459 -0.3523  0.0962  0.2411
14051TIP3   OH263567   5.854   2.401   1.423 -0.2569 -0.0489  0.1288
14051TIP3    H163568   5.835   2.453   1.346 -0.2684  2.1405  1.5244
14051TIP3    H263569   5.776   2.411   1.478 -0.8693 -2.7426 -0.1181
14052TIP3   OH263570   4.183   3.724  11.596  0.0284 -0.3010  0.1656
14052TIP3    H163571   4.263   3.777  11.599  0.0123 -0.1950 -0.9305
14052TIP3    H263572   4.117   3.783  11.559 -0.5279 -0.4297  0.9389
14053TIP3   OH263573   3.900   5.200   5.768  0.4702  0.4899  0.3168
14053TIP3    H163574   3.917   5.121   5.819 -1.2529 -0.4409 -0.4460
14053TIP3    H263575   3.833   5.173   5.704 -0.5156  2.6889  0.3379
14054TIP3   OH263576   6.184   6.282  17.279  0.4740  0.5147  0.0711
14054TIP3    H163577   6.108   6.233  17.310  0.6916 -1.3886 -2.1133
14054TIP3    H263578   6.150   6.368  17.256 -1.2029 -0.4270 -1.2471
14055TIP3   OH263579   5.245   5.367   3.863  0.2069 -0.0940 -0.3980
14055TIP3    H163580   5.251   5.300   3.931 -0.4497  1.1761  0.9723
14055TIP3    H263581   5.331   5.367   3.821  0.6249 -0.9063  0.4315
14056TIP3   OH263582   5.050   2.144   4.831  0.2109 -0.0162 -0.0283
14056TIP3    H163583   5.101   2.066   4.851  0.0949  0.7956  4.3098
14056TIP3    H263584   5.115   2.213   4.820  0.3582  0.6387  3.6764
14057TIP3   OH263585   0.845   6.727  12.741 -0.0026  0.1366 -0.0979
14057TIP3    H163586   0.758   6.693  12.718 -0.3640  1.3882 -0.6582
14057TIP3    H263587   0.851   6.713  12.836 -0.3892 -0.8994 -0.2142
14058TIP3   OH263588   4.263   1.699   2.855 -0.2080  0.2921 -0.0809
14058TIP3    H163589   4.275   1.775   2.912 -1.2175  0.5594 -0.2102
14058TIP3    H263590   4.244   1.627   2.915  0.7687  0.1190  0.0432
14059TIP3   OH263591   1.405   3.526  17.240  0.1397  0.0304 -1.0192
14059TIP3    H163592   1.400   3.504  17.147  1.4047  0.5274 -1.2211
14059TIP3    H263593   1.363   3.612  17.246  0.8134  0.3806 -1.2780
14060TIP3   OH263594   4.483   6.522   1.840 -0.2419 -0.0376  0.7697
14060TIP3    H163595   4.578   6.532   1.844 -0.3800  3.1859 -0.8312
14060TIP3    H263596   4.465   6.500   1.749 -1.0621  0.6195  0.7537
14061TIP3   OH263597   5.933   5.981   0.328  0.3977 -0.0003 -0.3949
14061TIP3    H163598   5.864   6.039   0.295  1.7464  1.3264 -1.0191
14061TIP3    H263599   5.911   5.968   0.420 -0.4903  0.6806 -0.4876
14062TIP3   OH263600   2.929   3.202  15.992  0.2931  0.0608  0.3866
14062TIP3    H163601   2.891   3.124  15.952  0.8303  0.5746 -1.2240
14062TIP3    H263602   3.021   3.179  16.006  0.2613  0.1181  0.6864
14063TIP3   OH263603   6.081   5.521   3.240 -0.7539  0.2328  0.1283
14063TIP3    H163604   5.992   5.546   3.264 -0.3489  0.8502  1.0263
14063TIP3    H263605   6.074   5.489   3.150 -2.1388 -1.1559  0.6910
14064TIP3   OH263606   4.904   3.314  14.271  0.4245  0.3300  0.3711
14064TIP3    H163607   4.912   3.392  14.216 -1.8017  1.5839  1.6751
14064TIP3    H263608   4.850   3.253  14.220 -0.0474  0.7276  0.3882
14065TIP3   OH263609   3.185   4.129  12.874 -0.3878 -1.0574  0.3623
14065TIP3    H163610   3.213   4.070  12.944  0.7046 -1.3265 -0.2794
14065TIP3    H263611   3.229   4.212  12.893 -0.8815 -0.8316  0.5382
14066TIP3   OH263612   5.354   2.092  16.840  0.4950  0.1360 -0.3507
14066TIP3    H163613   5.378   2.018  16.896 -1.2819  0.4854  0.9802
14066TIP3    H263614   5.395   2.168  16.881 -1.6761  0.5623  1.2718
14067TIP3   OH263615   1.609   1.962  13.698  0.5860  0.3852  0.7114
14067TIP3    H163616   1.527   1.994  13.735  0.5132 -0.4195  1.2715
14067TIP3    H263617   1.677   2.003  13.752  0.4961 -0.2900  1.3594
14068TIP3   OH263618   2.560   5.180   6.266 -0.7249 -0.4731  0.6342
14068TIP3    H163619   2.561   5.214   6.356  2.9853  2.1293 -0.1673
14068TIP3    H263620   2.475   5.206   6.232 -1.1202  1.0396  2.5690
14069TIP3   OH263621   1.295   5.319   4.129  0.3802 -0.7126  0.1064
14069TIP3    H163622   1.271   5.280   4.046 -1.4139 -1.0177  0.7261
14069TIP3    H263623   1.249   5.403   4.131  1.7901  0.1045  0.0792
14070TIP3   OH263624   0.886   1.800   2.275  0.3714  0.3537 -0.3703
14070TIP3    H163625   0.809   1.846   2.240 -1.5760 -1.2126  1.5334
14070TIP3    H263626   0.888   1.824   2.367  2.2395  0.3404 -0.3689
14071TIP3   OH263627   1.385   4.663  12.240 -0.2832  0.7063  0.4250
14071TIP3    H163628   1.291   4.646  12.231 -0.4271  1.8315 -0.4631
14071TIP3    H263629   1.392   4.757  12.251  0.6912  0.5175  1.6596
14072TIP3   OH263630   0.942   4.600   4.203 -0.0595 -0.3638  0.5103
14072TIP3    H163631   0.965   4.689   4.231  0.1074  0.1536 -1.1810
14072TIP3    H263632   0.991   4.587   4.122 -1.6897 -1.2135 -0.3844
14073TIP3   OH263633   5.609   6.285   0.645 -0.8915  0.4362  0.2548
14073TIP3    H163634   5.621   6.215   0.581 -1.2029  1.1846 -0.6427
14073TIP3    H263635   5.517   6.278   0.671 -1.1281  0.9479 -0.3925
14074TIP3   OH263636   5.940   4.034   0.914 -0.2284 -0.0459 -0.0097
14074TIP3    H163637   5.893   4.024   0.831 -1.6749 -2.1160  0.9741
14074TIP3    H263638   5.984   3.950   0.927  1.9653  1.0715  0.2222
14075TIP3   OH263639   2.604   5.660  13.848  0.0561 -0.0624 -0.0941
14075TIP3    H163640   2.551   5.593  13.891  0.7163 -1.4512 -1.3132
14075TIP3    H263641   2.682   5.667  13.902 -0.1089 -0.1229  0.1553
14076TIP3   OH263642   5.189   1.361  15.950  0.0656  0.0217  0.3995
14076TIP3    H163643   5.154   1.369  15.862 -0.5646 -0.6851  0.5750
14076TIP3    H263644   5.277   1.325  15.938 -0.5854 -1.5622  0.1201
14077TIP3   OH263645   0.480   5.892  16.258 -0.2019 -0.2747 -0.7421
14077TIP3    H163646   0.526   5.967  16.221 -0.3243 -0.4831 -1.3207
14077TIP3    H263647   0.397   5.929  16.290 -0.1234 -0.1053 -0.7336
14078TIP3   OH263648   2.145   4.482  11.898 -0.2513  0.0864  0.2369
14078TIP3    H163649   2.109   4.516  11.980 -1.0621  1.0922 -0.5023
14078TIP3    H263650   2.238   4.466  11.917 -1.2585 -4.1960  2.7017
14079TIP3   OH263651   1.072   2.914  12.229  0.3246 -0.2529  0.2288
14079TIP3    H163652   1.005   2.889  12.292  0.6268  0.5381  0.8798
14079TIP3    H263653   1.045   3.000  12.197  2.2860  1.2944  2.4100
14080TIP3   OH263654   5.740   5.028   5.039  0.6670  0.2843  0.1185
14080TIP3    H163655   5.652   5.064   5.046 -0.2957 -1.4553 -1.7331
14080TIP3    H263656   5.732   4.939   5.073  1.5294 -0.1025 -0.6340
14081TIP3   OH263657   5.813   5.962  15.851 -0.3276  0.1054 -0.2432
14081TIP3    H163658   5.764   6.001  15.924  1.1523  0.4153  0.6387
14081TIP3    H263659   5.860   6.035  15.812  0.9562 -0.4387  0.1982
14082TIP3   OH263660   1.606   5.827  16.006 -0.2722  0.4105 -0.3435
14082TIP3    H163661   1.636   5.812  15.917 -0.2219  0.6861 -0.3755
14082TIP3    H263662   1.510   5.830  15.999 -0.4206 -1.8392 -0.0310
14083TIP3   OH263663   2.598   3.461   3.596 -0.0605 -0.6492 -0.1380
14083TIP3    H163664   2.550   3.401   3.538  0.4325  0.5522 -1.8711
14083TIP3    H263665   2.661   3.504   3.539 -0.9081  2.1042  0.8225
14084TIP3   OH263666   0.408   3.271   1.382  0.1678 -0.2608 -0.3168
14084TIP3    H163667   0.352   3.208   1.337 -0.2757 -0.2746  0.2353
14084TIP3    H263668   0.365   3.355   1.371 -0.3179 -0.3656  0.6453
14085TIP3   OH263669   3.400   2.814   5.216  0.2532  0.1304  0.0647
14085TIP3    H163670   3.424   2.902   5.187 -0.1804 -0.9732 -4.5030
14085TIP3    H263671   3.307   2.820   5.236  0.4119  0.8432  0.6506
14086TIP3   OH263672   4.955   1.590   1.037  0.2796  0.3818  0.4403
14086TIP3    H163673   5.017   1.568   1.106 -1.3212 -0.6878  1.5944
14086TIP3    H263674   4.926   1.506   1.002 -1.3616  0.7967  0.7275
14087TIP3   OH263675   0.532   4.447  11.842  0.1994  0.7593  0.3205
14087TIP3    H163676   0.510   4.452  11.935  2.5737 -0.3114  1.0120
14087TIP3    H263677   0.560   4.536  11.820  2.4506  0.4175  1.4838
14088TIP3   OH263678   6.463   0.928   2.067 -0.1070 -0.8230  0.1782
14088TIP3    H163679   6.472   0.909   1.974 -1.7688 -1.6273  0.1504
14088TIP3    H263680   6.489   0.847   2.111  0.3627 -0.5492  0.4227
14089TIP3   OH263681   3.423   5.422   4.422 -0.1105  0.0368  0.5355
14089TIP3    H163682   3.396   5.422   4.330 -0.0184  1.0918  0.4950
14089TIP3    H263683   3.361   5.481   4.465  0.5999  0.5260  0.9050
14090TIP3   OH263684   5.272   4.295  15.625  0.2963 -0.0694  0.6521
14090TIP3    H163685   5.325   4.268  15.551  2.4134 -1.7898  2.6661
14090TIP3    H263686   5.301   4.384  15.645 -0.5544  0.5493 -0.7423
14091TIP3   OH263687   3.963   0.037  11.109  0.5425  0.0332 -0.1354
14091TIP3    H163688   4.025  -0.022  11.154 -1.0612 -1.4520  0.2345
14091TIP3    H263689   4.018   0.089  11.051  2.3127 -0.2109  1.2197
14092TIP3   OH263690   2.595   6.226   3.086 -0.8719  0.7840 -0.6652
14092TIP3    H163691   2.663   6.171   3.125 -1.3379  1.1997  0.8261
14092TIP3    H263692   2.622   6.238   2.995  0.8521  0.6555 -0.2023
14093TIP3   OH263693   1.952   3.988  15.815  0.2709  0.6078  0.1340
14093TIP3    H163694   2.030   4.002  15.762  0.2241 -0.5900 -0.2902
14093TIP3    H263695   1.879   4.008  15.755  0.2318  0.3650  0.1012
14094TIP3   OH263696   6.094   0.987   0.873  0.0942  0.0958  0.0195
14094TIP3    H163697   6.123   1.001   0.963  2.5852 -2.5176 -0.2423
14094TIP3    H263698   6.163   1.026   0.820  0.7275 -1.9263 -0.6947
14095TIP3   OH263699   3.243   4.065   2.888 -0.3029  0.3877 -0.1386
14095TIP3    H163700   3.201   3.991   2.844  0.8818 -0.0647 -0.5517
14095TIP3    H263701   3.331   4.033   2.909  0.1776  1.6381 -0.2108
14096TIP3   OH263702   3.915   4.794   3.619  0.2789 -0.8715  0.1876
14096TIP3    H163703   3.876   4.741   3.688 -0.1498 -1.1861 -0.2940
14096TIP3    H263704   3.859   4.780   3.543  1.3749 -1.4001 -0.5492
14097TIP3   OH263705   0.423   1.055   3.982  0.5341  0.3102  0.2894
14097TIP3    H163706   0.401   0.965   3.960  2.1641  0.1141 -0.6769
14097TIP3    H263707   0.361   1.079   4.051 -0.5658 -1.2014 -0.1374
14098TIP3   OH263708   0.868   4.478   5.347  0.0524 -0.2686 -0.1646
14098TIP3    H163709   0.779   4.480   5.382 -0.0507 -1.9338 -0.2323
14098TIP3    H263710   0.872   4.552   5.286 -0.2167  1.8118  2.2067
14099TIP3   OH263711   4.436   5.480   3.641  0.4097  0.2673  0.0846
14099TIP3    H163712   4.531   5.468   3.639  0.3562 -0.1842 -1.2156
14099TIP3    H263713   4.401   5.390   3.638 -0.0296  0.4542 -2.0563
14100TIP3   OH263714   4.325   2.908   4.957  0.2799  0.2711  0.3155
14100TIP3    H163715   4.256   2.973   4.942 -2.4317 -2.4797 -0.0764
14100TIP3    H263716   4.303   2.870   5.042  1.9316 -0.0900  0.6232
14101TIP3   OH263717   6.724   4.767  13.872  0.1526  0.0438  0.0834
14101TIP3    H163718   6.741   4.786  13.780 -2.1910 -1.5205 -0.7710
14101TIP3    H263719   6.744   4.849  13.918  2.7085  0.4407 -1.5630
14102TIP3   OH263720   3.512   3.368   3.007 -0.2177  0.4344  0.1664
14102TIP3    H163721   3.478   3.397   2.923 -1.1712  2.6558  1.2513
14102TIP3    H263722   3.437   3.371   3.066  0.7801  0.5247  1.4757
14103TIP3   OH263723   6.752   0.963   4.131 -0.0416  0.0596  0.5296
14103TIP3    H163724   6.781   1.047   4.098 -2.1311  0.7987  0.4009
14103TIP3    H263725   6.705   0.984   4.212 -0.6193 -0.9538  0.4777
14104TIP3   OH263726   3.131   2.632  12.262 -0.0437  0.2448 -0.0841
14104TIP3    H163727   3.174   2.618  12.178  0.3516 -1.2344  0.3401
14104TIP3    H263728   3.129   2.546  12.303 -4.2988 -0.0542 -0.4591
14105TIP3   OH263729   1.855   5.629  12.524  0.0392  0.1595  0.5151
14105TIP3    H163730   1.944   5.594  12.524 -0.4132 -1.0925  1.9892
14105TIP3    H263731   1.822   5.611  12.612 -0.8013  2.9332  0.8594
14106TIP3   OH263732   3.505   6.040  11.195 -0.2311  0.2950 -0.8226
14106TIP3    H163733   3.597   6.066  11.201 -0.3821  0.8977 -0.9601
14106TIP3    H263734   3.506   5.956  11.149  0.1244  1.3781 -2.9511
14107TIP3   OH263735   5.210   2.116   0.065 -0.5392 -0.1942  0.1772
14107TIP3    H163736   5.183   2.208   0.071 -0.3964 -0.1532  0.2222
14107TIP3    H263737   5.201   2.095  -0.028  0.6091  0.2478 -0.0680
14108TIP3   OH263738   5.551   3.944   5.213  0.1041 -0.8126  0.0142
14108TIP3    H163739   5.466   3.955   5.172 -0.1500 -1.5054  0.3537
14108TIP3    H263740   5.553   4.012   5.281  0.8490  0.8860 -1.5956
14109TIP3   OH263741   3.644   6.707   2.957 -0.1928 -0.1947  0.0053
14109TIP3    H163742   3.688   6.792   2.957  0.7703 -0.6795  0.3944
14109TIP3    H263743   3.593   6.707   2.876  0.7400  0.2834 -0.6002
14110TIP3   OH263744   2.006   5.569   0.525 -0.0379  0.0816 -0.0079
14110TIP3    H163745   1.977   5.656   0.498  1.8460  0.5771 -0.5850
14110TIP3    H263746   1.959   5.508   0.467 -1.1693  0.7046  0.2278
14111TIP3   OH263747   3.623   5.794   0.483 -0.8444  0.3941 -0.4708
14111TIP3    H163748   3.574   5.824   0.560  1.2068  2.2116  0.2019
14111TIP3    H263749   3.656   5.873   0.443 -0.1592 -0.6691 -2.0868
14112TIP3   OH263750   5.799   2.989  12.875  0.0959  0.4897  0.5904
14112TIP3    H163751   5.740   3.046  12.825 -0.1368  1.0095  1.4352
14112TIP3    H263752   5.806   3.031  12.960  0.5001 -0.3758  0.9948
14113TIP3   OH263753   2.319   2.340  11.417  0.0317  0.3006 -0.3395
14113TIP3    H163754   2.401   2.361  11.372  1.1914 -0.9677  1.0627
14113TIP3    H263755   2.264   2.303  11.348  0.4787  1.4627 -1.3782
14114TIP3   OH263756   5.418   3.469  15.101  0.2554 -0.3181 -0.5446
14114TIP3    H163757   5.377   3.528  15.038 -0.4672  2.2664  2.1456
14114TIP3    H263758   5.493   3.517  15.134 -0.3555 -0.8398  1.7560
14115TIP3   OH263759   0.192   0.808   6.695  0.4976 -1.2402 -0.2056
14115TIP3    H163760   0.244   0.853   6.628 -2.0152 -1.1866 -2.2936
14115TIP3    H263761   0.215   0.852   6.777  0.4765  1.7800 -1.6675
14116TIP3   OH263762   0.466   2.090  15.834 -1.2545  0.2665  0.5307
14116TIP3    H163763   0.462   2.041  15.916  0.5241  0.0510  0.5150
14116TIP3    H263764   0.542   2.054  15.788  0.5691  3.4144  0.8015
14117TIP3   OH263765   4.011   1.324   4.288  0.3574 -0.1398  0.2838
14117TIP3    H163766   4.025   1.403   4.236 -2.6181 -0.0293 -0.5611
14117TIP3    H263767   4.095   1.278   4.285  1.4561  1.7725 -1.2807
14118TIP3   OH263768   1.532   4.849   3.056  0.2948  0.3019 -0.9762
14118TIP3    H163769   1.581   4.852   3.138 -0.8891 -2.2835 -0.0829
14118TIP3    H263770   1.570   4.919   3.003  3.2534  0.0277  0.5699
14119TIP3   OH263771   4.557   0.911   3.525  0.0049 -0.0052  0.3424
14119TIP3    H163772   4.620   0.975   3.557  0.2378 -0.2800  0.4331
14119TIP3    H263773   4.515   0.954   3.451  2.2019 -0.8179 -1.4648
14120TIP3   OH263774   6.294   6.214   5.023  0.3073  0.1042  0.3468
14120TIP3    H163775   6.282   6.307   5.003  2.2608  0.2126 -0.5697
14120TIP3    H263776   6.206   6.176   5.012 -0.5683  1.8419  0.9249
14121TIP3   OH263777   3.163   0.981   1.114 -0.0393  0.3872 -0.8203
14121TIP3    H163778   3.123   1.050   1.166 -0.3986  0.5438 -1.3003
14121TIP3    H263779   3.254   1.010   1.102 -0.0274  0.4807 -0.5191
14122TIP3   OH263780   5.663   1.977   4.305 -0.0442  0.2503  0.1649
14122TIP3    H163781   5.576   1.947   4.279  0.4993 -0.2618 -1.1852
14122TIP3    H263782   5.656   2.072   4.309 -0.4809  0.2670 -0.7160
14123TIP3   OH263783   5.266   4.547   4.356 -0.2315  0.2615  0.0280
14123TIP3    H163784   5.348   4.591   4.378 -0.3122  0.0744  0.7150
14123TIP3    H263785   5.259   4.475   4.419 -0.2919 -0.5128 -0.8335
14124TIP3   OH263786   1.371   3.630  15.708 -0.4346 -0.3953 -0.0643
14124TIP3    H163787   1.353   3.688  15.635  0.2007 -1.5171 -1.1399
14124TIP3    H263788   1.429   3.680  15.765 -0.4011  0.2492 -0.6616
14125TIP3   OH263789   2.158   2.158   2.357 -0.0301  0.1842  0.0295
14125TIP3    H163790   2.190   2.138   2.445  0.0418 -1.8820 -0.4289
14125TIP3    H263791   2.238   2.170   2.305  0.0244 -1.6480 -0.3806
14126TIP3   OH263792   2.557   1.360  12.172  0.2542  0.3330 -0.1746
14126TIP3    H163793   2.478   1.305  12.179  1.4733 -1.5130 -0.2255
14126TIP3    H263794   2.565   1.401  12.259 -0.4531  0.1074  0.0040
14127TIP3   OH263795   3.405   3.823  12.694 -0.8842 -0.3781  0.0679
14127TIP3    H163796   3.416   3.849  12.602  1.7627  0.3061  0.4856
14127TIP3    H263797   3.320   3.780  12.697 -1.0590 -0.3999 -2.7045
14128TIP3   OH263798   1.204   3.442   3.124  0.3298 -0.6057 -0.1400
14128TIP3    H163799   1.291   3.481   3.116 -0.2984  0.6514 -1.4260
14128TIP3    H263800   1.216   3.352   3.095  1.4982 -0.9657  1.3080
14129TIP3   OH263801   0.783   0.217  15.032 -0.0369  0.0138 -0.2298
14129TIP3    H163802   0.749   0.256  15.112 -0.3572  0.2100 -0.4592
14129TIP3    H263803   0.711   0.223  14.970 -0.0236 -0.7671 -0.3280
14130TIP3   OH263804   4.961   2.726  13.136 -0.5148 -0.0013  0.3353
14130TIP3    H163805   4.866   2.712  13.145 -0.7057  1.3606  0.7293
14130TIP3    H263806   4.987   2.767  13.218  0.7389 -1.7629  0.8549
14131TIP3   OH263807   0.226   6.719  17.126 -0.3027 -0.2070 -0.3124
14131TIP3    H163808   0.235   6.661  17.202  1.5742  1.9246  1.2322
14131TIP3    H263809   0.145   6.691  17.084 -0.6415 -2.4389  1.6090
14132TIP3   OH263810   2.108   3.502  12.805  0.9073  0.5038  0.7449
14132TIP3    H163811   2.026   3.484  12.758  0.3706  0.0043  1.8238
14132TIP3    H263812   2.093   3.586  12.848  1.0761  0.5645  0.6847
14133TIP3   OH263813   3.889   2.422   0.485 -0.1588  0.2408  0.1254
14133TIP3    H163814   3.894   2.426   0.389 -1.6759  0.1453  0.0173
14133TIP3    H263815   3.980   2.427   0.514  0.6118 -2.6365 -1.4181
14134TIP3   OH263816   4.406   4.268   0.493  0.2918 -0.1854  0.5891
14134TIP3    H163817   4.371   4.356   0.509  1.0169  0.2384 -0.0807
14134TIP3    H263818   4.333   4.220   0.454 -0.3561 -0.1402  1.6769
14135TIP3   OH263819   2.994   0.111  12.023 -0.3563 -0.0418 -0.2441
14135TIP3    H163820   2.972   0.079  11.935 -0.4296  0.7159 -0.5101
14135TIP3    H263821   3.015   0.203  12.010  3.2780 -0.7102 -0.0466
14136TIP3   OH263822   4.529   4.289  13.141 -0.2057 -0.3637  0.1738
14136TIP3    H163823   4.504   4.200  13.164  0.4609 -0.2890  1.2535
14136TIP3    H263824   4.487   4.305  13.056  0.8092 -2.2098 -0.7456
14137TIP3   OH263825   4.845   0.389  11.788  0.2952 -0.1629 -0.0000
14137TIP3    H163826   4.835   0.323  11.719 -0.2196 -1.2358  1.0631
14137TIP3    H263827   4.765   0.382  11.839  0.0241  1.6570 -0.1408
14138TIP3   OH263828   5.132   4.264   2.726  0.3893  0.8320  0.0484
14138TIP3    H163829   5.113   4.322   2.799 -0.0646 -0.0822  0.6772
14138TIP3    H263830   5.122   4.176   2.762  0.2667  0.3647 -1.0889
14139TIP3   OH263831   4.669   3.029   5.491  0.3290 -0.2979  0.0957
14139TIP3    H163832   4.695   3.055   5.402 -0.3069  0.8720  0.2249
14139TIP3    H263833   4.745   3.052   5.546  0.3196 -0.0484  0.0040
14140TIP3   OH263834   3.888   3.238   1.826 -0.2831 -0.5042 -0.7631
14140TIP3    H163835   3.966   3.214   1.776  0.1236  0.1999 -0.4766
14140TIP3    H263836   3.866   3.159   1.875  1.4322 -0.1452  0.6904
14141TIP3   OH263837   0.543   0.351   2.206  0.0111 -0.4114 -0.0080
14141TIP3    H163838   0.493   0.424   2.168  1.7012  0.1563 -1.2820
14141TIP3    H263839   0.630   0.387   2.220  0.7389 -2.0384 -0.1522
14142TIP3   OH263840   2.948   6.540  15.894 -0.6600 -0.4678 -0.1631
14142TIP3    H163841   2.902   6.624  15.894 -2.2547 -1.2926  0.4220
14142TIP3    H263842   3.005   6.545  15.971 -2.3464 -0.6976  1.1712
14143TIP3   OH263843   3.978   4.393   6.374 -0.2673  0.4112  0.4255
14143TIP3    H163844   3.920   4.366   6.445 -0.6868  2.3941  0.9018
14143TIP3    H263845   3.926   4.455   6.322 -0.1301 -1.3180 -1.9387
14144TIP3   OH263846   2.007   1.466   1.095 -0.2427  0.2234 -0.0091
14144TIP3    H163847   1.996   1.449   1.001  1.2021 -1.2610  0.0573
14144TIP3    H263848   1.971   1.389   1.138 -0.2846  0.6017  0.6411
14145TIP3   OH263849   4.211   0.182  13.140 -0.3513 -0.0583  0.6304
14145TIP3    H163850   4.156   0.206  13.215 -0.3918  1.8645  0.0581
14145TIP3    H263851   4.295   0.158  13.180  0.0239  2.1182  1.3091
14146TIP3   OH263852   3.940   0.169  17.362  0.6057  0.2521  0.3526
14146TIP3    H163853   4.034   0.181  17.376  0.1319  3.6179  1.5338
14146TIP3    H263854   3.934   0.134  17.273  2.9417  1.1511 -0.2344
14147TIP3   OH263855   3.754   5.404  12.468  0.2845  0.2278  0.2389
14147TIP3    H163856   3.833   5.424  12.418  0.5528  1.8895  1.2612
14147TIP3    H263857   3.722   5.489  12.498 -1.6108 -0.4577  0.2965
14148TIP3   OH263858   4.583   5.570   5.242 -0.1671  1.1448  0.0100
14148TIP3    H163859   4.499   5.525   5.232 -0.6949  2.2594 -0.8783
14148TIP3    H263860   4.599   5.609   5.156  1.9165 -0.0943 -0.2451
14149TIP3   OH263861   5.465   6.451  12.731 -0.1392 -0.3544 -0.2098
14149TIP3    H163862   5.502   6.539  12.722 -0.0129 -0.6184 -3.9690
14149TIP3    H263863   5.541   6.392  12.729 -0.2164 -0.6541  2.3581
14150TIP3   OH263864   0.913   1.218  15.674 -0.2879 -0.2120  0.6256
14150TIP3    H163865   0.875   1.302  15.647  1.1856  0.9353  1.9147
14150TIP3    H263866   0.897   1.160  15.599 -1.6891  1.0844 -0.1497
14151TIP3   OH263867   6.048   6.193  14.488 -0.7862 -0.1933  0.0651
14151TIP3    H163868   6.075   6.262  14.428  2.4380 -1.5472 -0.2509
14151TIP3    H263869   6.023   6.239  14.569  0.5942  1.3719 -0.3653
14152TIP3   OH263870   3.234   1.298  15.009 -0.3129  0.7086  0.3803
14152TIP3    H163871   3.296   1.320  14.939 -1.0301  2.4083  0.2226
14152TIP3    H263872   3.257   1.357  15.081 -2.4523  2.2968 -0.1201
14153TIP3   OH263873   6.320   5.207   6.020 -0.0915 -0.5252  0.3485
14153TIP3    H163874   6.310   5.246   6.107  2.7053 -0.3970  0.6993
14153TIP3    H263875   6.268   5.263   5.962 -1.0010  0.1251  1.7430
14154TIP3   OH263876   4.728   3.716  15.365  0.0740 -0.7135  0.1330
14154TIP3    H163877   4.634   3.722  15.347  0.0278 -0.1183  0.5403
14154TIP3    H263878   4.750   3.800  15.405  1.2359  0.0675 -1.9740
14155TIP3   OH263879   4.548   0.877   1.065  0.1054  0.2941  0.3150
14155TIP3    H163880   4.533   0.816   0.993 -1.0025  0.0180  0.7524
14155TIP3    H263881   4.600   0.827   1.128  0.3044  0.2308  0.0989
14156TIP3   OH263882   3.472   0.661  16.215  0.0682  0.5410  0.0976
14156TIP3    H163883   3.562   0.638  16.236 -0.1497 -0.3105  0.1471
14156TIP3    H263884   3.427   0.576  16.205 -0.4638  0.9316 -1.0487
14157TIP3   OH263885   2.385   0.587   4.244  0.3898 -0.4191  0.2724
14157TIP3    H163886   2.328   0.546   4.308  1.2960 -1.6810  0.3106
14157TIP3    H263887   2.427   0.659   4.291 -0.1803 -0.3089  0.6160
14158TIP3   OH263888   0.180   2.245  14.350 -0.7694 -0.0531  0.1663
14158TIP3    H163889   0.128   2.278  14.277  0.1580 -0.8095 -0.8767
14158TIP3    H263890   0.262   2.296  14.346  0.0619 -1.4006 -0.5357
14159TIP3   OH263891   4.491   5.124   3.275  0.4173  0.5934 -0.4544
14159TIP3    H163892   4.483   5.178   3.196 -3.5313 -2.2391 -2.3273
14159TIP3    H263893   4.403   5.124   3.313  0.8611 -2.4911  0.8096
14160TIP3   OH263894   2.273   3.447   4.467 -0.0568  0.3077 -0.4063
14160TIP3    H163895   2.314   3.379   4.413  2.6509  0.9898  0.6240
14160TIP3    H263896   2.268   3.523   4.410 -0.2501  0.0929 -0.6749
14161TIP3   OH263897   5.453   0.345   5.849  0.2297 -0.0352  0.5437
14161TIP3    H163898   5.384   0.333   5.784  0.8524 -1.3986  0.0857
14161TIP3    H263899   5.420   0.413   5.907 -0.9711  0.1877 -0.3604
14162TIP3   OH263900   0.460   6.392  16.426 -0.3421 -0.2242  0.7341
14162TIP3    H163901   0.528   6.459  16.418 -0.8224  0.0983 -1.0947
14162TIP3    H263902   0.503   6.320  16.473  1.3685 -0.1310 -0.5579
14163TIP3   OH263903   6.529   1.285   1.542 -0.1076 -0.2219 -0.2190
14163TIP3    H163904   6.561   1.241   1.621  1.7216  0.5784 -0.4785
14163TIP3    H263905   6.556   1.228   1.470  0.3501  0.2448 -0.4158
14164TIP3   OH263906   3.648   5.791  15.806 -0.0775  0.6315 -0.0947
14164TIP3    H163907   3.695   5.723  15.854  0.7820  0.5627 -0.9881
14164TIP3    H263908   3.579   5.820  15.865 -1.5193 -2.1518 -0.2363
14165TIP3   OH263909   1.976   6.205   3.352 -0.1120  0.3280 -0.0514
14165TIP3    H163910   1.887   6.236   3.334  0.2875  1.6149  0.0950
14165TIP3    H263911   2.012   6.184   3.266 -0.2400  0.7074 -0.1982
14166TIP3   OH263912   4.914   2.106   2.307  0.5931 -0.0920 -0.6041
14166TIP3    H163913   4.949   2.017   2.310  0.6915 -0.0715 -1.0675
14166TIP3    H263914   4.982   2.160   2.347  0.4040 -0.2596 -0.0397
14167TIP3   OH263915   3.006   2.936  12.477 -1.1478 -0.0887  0.1104
14167TIP3    H163916   3.032   2.879  12.550 -2.4458  0.2507  0.8721
14167TIP3    H263917   3.081   2.934  12.417 -0.3283 -0.9245  1.1198
14168TIP3   OH263918   4.255   2.183  13.292  0.6093  0.9351  0.0416
14168TIP3    H163919   4.242   2.119  13.362 -0.0196  0.9592 -0.0464
14168TIP3    H263920   4.289   2.132  13.219 -0.7007  0.5245 -0.3174
14169TIP3   OH263921   3.793   6.524   3.890 -0.2862  0.1879  0.0875
14169TIP3    H163922   3.787   6.429   3.882 -0.6611  0.2711 -0.8691
14169TIP3    H263923   3.878   6.540   3.932 -0.1267 -0.5608  0.0615
14170TIP3   OH263924   4.879   1.525   0.323 -0.1894  0.1305  0.5937
14170TIP3    H163925   4.841   1.608   0.293 -1.2735 -0.3942  0.4603
14170TIP3    H263926   4.817   1.493   0.388  1.0188  0.1801  1.8210
14171TIP3   OH263927   3.063   2.255  14.023 -0.4387  0.1505  0.1821
14171TIP3    H163928   3.044   2.231  13.932  2.9675 -0.3744 -0.5378
14171TIP3    H263929   3.063   2.351  14.023  0.5593  0.1731 -0.6967
14172TIP3   OH263930   2.533   2.815   1.223 -0.0325 -0.1628  0.4851
14172TIP3    H163931   2.582   2.742   1.185  1.1625  0.5447  0.5919
14172TIP3    H263932   2.490   2.856   1.149 -2.0693 -1.9028  0.6216
14173TIP3   OH263933   1.063   0.901   3.604 -0.3098 -0.3503 -0.2655
14173TIP3    H163934   1.103   0.828   3.557  1.1097  0.2963 -0.1108
14173TIP3    H263935   0.969   0.883   3.600 -0.0775 -1.4791 -1.3767
14174TIP3   OH263936   1.354   2.279   4.152  0.3041 -0.3628 -0.5748
14174TIP3    H163937   1.285   2.213   4.162  0.4989 -0.7033 -1.3400
14174TIP3    H263938   1.423   2.252   4.212  0.0183 -0.3571 -0.2421
14175TIP3   OH263939   0.901   0.461   3.473 -0.1417 -0.0075  0.3468
14175TIP3    H163940   0.988   0.420   3.465  0.3858  1.2576 -0.7378
14175TIP3    H263941   0.894   0.482   3.566 -0.0045 -1.5961  0.7564
14176TIP3   OH263942   5.776   0.247   3.071 -0.1426 -0.0458  0.2454
14176TIP3    H163943   5.811   0.223   2.985 -0.7498 -0.5522  0.1332
14176TIP3    H263944   5.709   0.181   3.089 -0.8120  0.7145  0.5969
14177TIP3   OH263945   5.320   1.907  15.719  0.2018 -0.5265 -0.3510
14177TIP3    H163946   5.246   1.920  15.660  0.9522 -0.5815 -1.3341
14177TIP3    H263947   5.299   1.827  15.767  0.3880 -1.5144 -1.8529
14178TIP3   OH263948   3.393   0.863   5.840  0.4509 -0.3297 -0.4263
14178TIP3    H163949   3.345   0.938   5.874  0.2706 -1.4934  2.1318
14178TIP3    H263950   3.479   0.898   5.817 -0.0407  0.8828 -0.5062
14179TIP3   OH263951   6.148   4.937  12.027 -0.5652  0.0868 -0.6689
14179TIP3    H163952   6.220   4.989  12.063  0.4739 -0.1097 -2.3531
14179TIP3    H263953   6.085   4.931  12.098  1.2873 -0.1493  1.0308
14180TIP3   OH263954   3.347   4.704   1.680  0.3968 -0.0905 -0.0601
14180TIP3    H163955   3.375   4.771   1.618 -0.8488  0.7623  0.2650
14180TIP3    H263956   3.427   4.655   1.700  1.3727  1.3903 -0.1878
14181TIP3   OH263957   4.708   1.475  15.510 -0.6615 -0.6621 -0.1706
14181TIP3    H163958   4.716   1.425  15.428  0.7917 -0.5059 -0.1504
14181TIP3    H263959   4.695   1.408  15.577 -1.1766 -0.8410 -0.4428
14182TIP3   OH263960   5.592   2.570  15.839  0.0534 -0.1233  0.2878
14182TIP3    H163961   5.519   2.544  15.783 -0.0646 -0.3825  0.5636
14182TIP3    H263962   5.619   2.655  15.804 -1.2729  0.6356  1.0385
14183TIP3   OH263963   3.202   6.203   3.953  0.5215  0.3280 -0.2418
14183TIP3    H163964   3.207   6.223   3.859  1.6397  1.7296  0.0856
14183TIP3    H263965   3.110   6.214   3.975  0.5592  2.0143 -0.7800
14184TIP3   OH263966   3.047   5.230   0.770 -0.4704 -0.1012 -0.8010
14184TIP3    H163967   2.973   5.292   0.775 -1.1995 -1.0330  0.7411
14184TIP3    H263968   3.122   5.285   0.749 -1.5281  0.9231 -2.1449
14185TIP3   OH263969   1.120   6.631   1.280 -0.2785  0.7087  0.3290
14185TIP3    H163970   1.060   6.567   1.243 -0.3211  1.7400 -1.4768
14185TIP3    H263971   1.199   6.581   1.302 -0.1308  0.0907 -1.4880
14186TIP3   OH263972   5.190   3.561   0.293  1.1108  0.0781  0.5043
14186TIP3    H163973   5.259   3.529   0.236  1.5624 -2.0247  2.1183
14186TIP3    H263974   5.109   3.537   0.248  1.4536 -1.1353  0.5093
14187TIP3   OH263975   0.167   3.439  16.453 -0.1884  0.2165  0.1462
14187TIP3    H163976   0.154   3.467  16.544 -0.9523  1.2131 -0.2500
14187TIP3    H263977   0.258   3.410  16.449  0.2439  1.4113  0.9122
14188TIP3   OH263978   6.409   0.609   3.282  0.3766  0.4095  0.2703
14188TIP3    H163979   6.461   0.549   3.229  0.2193 -0.3439  0.9653
14188TIP3    H263980   6.423   0.695   3.241  1.0720  0.0006 -0.3659
14189TIP3   OH263981   4.637   2.764   5.806  0.0452  0.3757 -0.1845
14189TIP3    H163982   4.591   2.733   5.884 -0.4750  0.6943 -0.3571
14189TIP3    H263983   4.599   2.712   5.734  0.9264 -0.3223 -0.1576
14190TIP3   OH263984   4.606   3.224  12.958  0.3736 -0.4152  0.1647
14190TIP3    H163985   4.565   3.203  12.874 -0.4357  0.0241  0.4427
14190TIP3    H263986   4.596   3.318  12.967  0.4584 -0.4590  0.7466
14191TIP3   OH263987   2.670   4.762  12.910 -0.2670  0.8280  0.1734
14191TIP3    H163988   2.664   4.668  12.894  0.5508  0.7283  0.3965
14191TIP3    H263989   2.732   4.794  12.845 -0.0581  1.1082  0.5080
14192TIP3   OH263990   1.772   3.670  14.252  0.2499  0.1069  0.4277
14192TIP3    H163991   1.753   3.710  14.166  0.9069 -0.7862 -0.1453
14192TIP3    H263992   1.701   3.701  14.308  0.8372  2.2816  0.0810
14193TIP3   OH263993   6.009   4.831  11.788  0.0649  0.2715 -0.6017
14193TIP3    H163994   6.023   4.738  11.770 -2.7097 -0.2852 -0.2565
14193TIP3    H263995   6.079   4.853  11.850  0.2717 -1.8318  0.0185
14194TIP3   OH263996   3.785   1.067   0.603  0.2198  0.7147 -0.3363
14194TIP3    H163997   3.774   1.154   0.564 -1.0013  0.6118 -0.2645
14194TIP3    H263998   3.778   1.007   0.529  0.5508  0.6464 -0.3142
14195TIP3   OH263999   5.696   0.489   6.686 -0.2401  0.5419 -0.0993
14195TIP3    H164000   5.696   0.565   6.744 -0.4768  1.8970 -1.7659
14195TIP3    H264001   5.603   0.472   6.669 -0.1711  0.3397 -0.2822
14196TIP3   OH264002   4.599   1.196   2.216  0.1658  0.0158 -0.5703
14196TIP3    H164003   4.555   1.203   2.132 -0.1636 -0.7183 -0.4669
14196TIP3    H264004   4.658   1.121   2.207 -0.6728 -0.7693  0.1891
14197TIP3   OH264005   6.179   0.724   2.316 -0.1029  0.0499  0.0778
14197TIP3    H164006   6.198   0.818   2.305 -0.3705  0.1774  0.6619
14197TIP3    H264007   6.085   0.718   2.303  0.1290 -0.4039 -1.6354
14198TIP3   OH264008   5.736   6.704   3.416 -0.9698 -0.0459  0.2571
14198TIP3    H164009   5.715   6.611   3.427 -1.7020 -0.1992 -2.0086
14198TIP3    H264010   5.656   6.749   3.444 -2.2638 -0.3603 -2.6079
14199TIP3   OH264011   6.699   1.967   2.732  0.0291  0.4746 -0.2234
14199TIP3    H164012   6.762   1.895   2.739  0.5984  1.0640  0.9248
14199TIP3    H264013   6.675   1.969   2.639 -0.9698 -1.9982 -0.1165
14200TIP3   OH264014   5.980   5.022  12.982  0.0159 -0.4871  0.4324
14200TIP3    H164015   6.018   5.037  13.068 -0.7773  1.0092  0.5599
14200TIP3    H264016   6.052   5.038  12.921  0.1708  0.1046  0.7595
14201TIP3   OH264017   0.791   4.270   6.520 -0.3495 -0.5634 -0.5037
14201TIP3    H164018   0.757   4.250   6.607 -0.4322 -0.9581 -0.6265
14201TIP3    H264019   0.828   4.358   6.528  0.0793 -0.7900  0.0508
14202TIP3   OH264020   2.998   3.814  13.175 -0.2227 -0.1499 -0.2857
14202TIP3    H164021   2.914   3.856  13.191 -0.4659 -0.6318 -0.2692
14202TIP3    H264022   3.037   3.803  13.261 -0.5703 -0.7866 -0.2036
14203TIP3   OH264023   6.276   0.312   4.003 -0.2147 -0.7915  0.5341
14203TIP3    H164024   6.282   0.292   3.909 -1.5276 -2.9301  0.8614
14203TIP3    H264025   6.367   0.308   4.034  0.5381  1.9372 -0.9292
14204TIP3   OH264026   3.494   0.663  11.962 -0.2632  0.2037  0.1929
14204TIP3    H164027   3.578   0.674  11.916  0.9233  0.0454  2.1779
14204TIP3    H264028   3.444   0.604  11.907  0.8006  0.5501 -1.2175
14205TIP3   OH264029   4.260   3.204   3.684 -1.1369  0.3166  0.5131
14205TIP3    H164030   4.305   3.120   3.701 -0.4643  0.8186  1.3255
14205TIP3    H264031   4.321   3.270   3.717 -2.0332  1.0812  0.6617
14206TIP3   OH264032   3.239   5.208  14.267 -0.3145 -0.0211 -0.1403
14206TIP3    H164033   3.334   5.222  14.264 -0.2951 -0.0640  0.3491
14206TIP3    H264034   3.202   5.288  14.229 -0.1081  0.3135  0.3583
14207TIP3   OH264035   6.167   1.767  16.792  0.5804 -0.0205 -0.2580
14207TIP3    H164036   6.256   1.748  16.760  0.4542 -1.3661  0.1634
14207TIP3    H264037   6.140   1.688  16.837 -1.5898 -0.3483 -1.9862
14208TIP3   OH264038   5.078   2.740   0.720 -0.1449 -0.1091  0.4475
14208TIP3    H164039   5.125   2.801   0.777  2.7366 -2.3879  0.7720
14208TIP3    H264040   5.005   2.708   0.774  0.5552  0.2479  1.6489
14209TIP3   OH264041   4.041   0.331   4.550  0.0546  0.0911 -0.0413
14209TIP3    H164042   4.035   0.398   4.482 -1.5855 -0.0236 -0.0433
14209TIP3    H264043   4.040   0.380   4.632 -0.4534  0.1091 -0.0568
14210TIP3   OH264044   1.627   1.330   3.523 -0.5024 -0.3902 -0.2624
14210TIP3    H164045   1.619   1.420   3.490 -2.1597 -0.3846  0.1009
14210TIP3    H264046   1.684   1.287   3.459  0.9790  1.1007 -0.0185
14211TIP3   OH264047   5.856   3.720   5.435  0.6142  0.2349 -0.3139
14211TIP3    H164048   5.832   3.813   5.434 -0.6284 -0.0383 -2.0909
14211TIP3    H264049   5.882   3.703   5.525  2.1679  2.6035 -0.2243
14212TIP3   OH264050   5.847   3.445   5.811  0.2528  0.0215 -0.3722
14212TIP3    H164051   5.769   3.422   5.862 -0.1717 -0.6121 -1.2932
14212TIP3    H264052   5.916   3.389   5.847 -0.0898 -0.5596 -0.5930
14213TIP3   OH264053   2.000   2.586   3.097  0.4851 -0.2116  0.2653
14213TIP3    H164054   2.095   2.587   3.083  0.2570 -1.4986 -1.7040
14213TIP3    H264055   1.966   2.644   3.029 -0.2187 -0.7700  0.1325
14214TIP3   OH264056   0.608   5.362  13.807 -0.5805 -1.0261 -0.0184
14214TIP3    H164057   0.561   5.328  13.730 -0.8400 -0.4883 -0.1062
14214TIP3    H264058   0.544   5.357  13.878 -1.5969  1.7561 -0.5956
14215TIP3   OH264059   2.986   5.489   3.020 -0.4406 -0.2321  0.1657
14215TIP3    H164060   2.958   5.575   3.051  1.8028  1.1579 -1.3167
14215TIP3    H264061   2.911   5.432   3.036 -3.2207  2.6286 -1.4723
14216TIP3   OH264062   2.014   2.992   3.668  0.0615 -0.1662 -0.4525
14216TIP3    H164063   1.938   2.995   3.726  0.2775 -1.2422 -0.0986
14216TIP3    H264064   2.081   3.043   3.714  0.2389 -1.0312  0.2779
14217TIP3   OH264065   5.117   4.213  15.866 -0.0016 -0.0684  0.5406
14217TIP3    H164066   5.147   4.229  15.777 -1.3003 -1.3632 -0.1754
14217TIP3    H264067   5.173   4.143  15.898 -0.8879 -1.0879 -0.0664
14218TIP3   OH264068   1.564   3.814   0.823  0.4140 -0.1272  0.0348
14218TIP3    H164069   1.653   3.778   0.822  1.3547  1.9827  1.1144
14218TIP3    H264070   1.518   3.764   0.890  1.7965  0.8397  1.7829
14219TIP3   OH264071   4.150   5.773  11.617  0.4050 -0.7878  0.6159
14219TIP3    H164072   4.151   5.742  11.526  0.7970 -1.1663  0.7421
14219TIP3    H264073   4.089   5.846  11.617  3.4707  2.0535 -0.9093
14220TIP3   OH264074   4.144   1.059  14.069 -0.0685  0.2817  0.4348
14220TIP3    H164075   4.052   1.045  14.093 -0.1529  0.1811  0.0544
14220TIP3    H264076   4.154   1.015  13.985  0.1140  0.9939  0.0800
14221TIP3   OH264077   4.983   2.835  16.520  0.2671  0.3133 -0.3994
14221TIP3    H164078   4.950   2.829  16.430  2.1513  0.4075 -1.1373
14221TIP3    H264079   5.072   2.801  16.514 -0.6377 -3.0426  2.0949
14222TIP3   OH264080   3.123   1.309  12.446  0.0835 -0.0238  0.6224
14222TIP3    H164081   3.135   1.307  12.351 -1.8795 -1.6984  0.3592
14222TIP3    H264082   3.200   1.356  12.478  0.3758  1.3552 -1.8411
14223TIP3   OH264083   2.285   4.142  13.620  0.2493 -0.1609 -0.5742
14223TIP3    H164084   2.346   4.186  13.680  0.0443 -0.0483 -0.4455
14223TIP3    H264085   2.199   4.167  13.653  0.0507  2.6950 -2.8835
14224TIP3   OH264086   4.013   3.469   1.077 -0.1131  0.2719 -0.5522
14224TIP3    H164087   4.097   3.434   1.107 -0.5050 -1.0911 -0.9710
14224TIP3    H264088   3.988   3.532   1.145  0.6761 -0.1765  0.1742
14225TIP3   OH264089   4.935   3.442  13.042 -0.0869 -0.3612  0.1570
14225TIP3    H164090   4.906   3.502  12.973  1.8944  1.4625  0.7991
14225TIP3    H264091   4.885   3.469  13.120  0.0466 -0.2384  0.2007
14226TIP3   OH264092   5.962   4.037   1.835  0.2624 -0.8062 -0.5858
14226TIP3    H164093   6.020   4.113   1.823 -0.1382 -0.2536  0.8599
14226TIP3    H264094   6.022   3.963   1.844  0.6805 -0.5208 -0.9548
14227TIP3   OH264095   0.857   0.452  16.530 -0.5656 -0.0405  0.0310
14227TIP3    H164096   0.828   0.377  16.478  0.4862  0.4116 -1.2677
14227TIP3    H264097   0.933   0.486  16.483  0.7443  0.1280  2.1184
14228TIP3   OH264098   1.674   1.666   5.671 -0.4771 -0.2331 -0.0512
14228TIP3    H164099   1.722   1.632   5.746  1.9884 -0.4689 -1.6198
14228TIP3    H264100   1.588   1.624   5.676  0.2380 -1.5782  1.6704
14229TIP3   OH264101   3.076   3.017   4.673  0.0484  0.0318 -0.2342
14229TIP3    H164102   3.154   2.965   4.654  0.0917  0.6780 -1.9952
14229TIP3    H264103   3.022   2.960   4.728  0.9940 -1.0719 -0.4103
14230TIP3   OH264104   2.353   2.283   6.016 -0.2045 -0.1202  0.1865
14230TIP3    H164105   2.396   2.363   5.986 -2.2412  0.9419 -0.0842
14230TIP3    H264106   2.329   2.237   5.936  0.6047 -0.8286  0.3370
14231TIP3   OH264107   0.375   6.546  13.215 -0.0482  0.3708  0.2069
14231TIP3    H164108   0.301   6.604  13.202 -0.3012  0.7543  2.9053
14231TIP3    H264109   0.436   6.568  13.144 -2.0747  0.6444 -1.5307
14232TIP3   OH264110   4.387   1.110  13.449  0.0207 -0.0489 -0.5907
14232TIP3    H164111   4.306   1.133  13.403 -0.1005  1.2804  0.2335
14232TIP3    H264112   4.450   1.176  13.421  0.3432 -0.0696  0.0682
14233TIP3   OH264113   4.401   3.559   1.796 -0.9256 -0.5006  0.2646
14233TIP3    H164114   4.313   3.521   1.788 -0.4078 -1.5215 -0.9673
14233TIP3    H264115   4.442   3.541   1.711  0.7518 -0.7613  1.1003
14234TIP3   OH264116   5.591   6.541   1.774 -0.3323 -1.1912  0.2723
14234TIP3    H164117   5.681   6.538   1.740  0.0797  2.7766  0.5402
14234TIP3    H264118   5.595   6.490   1.855  1.0320 -2.9719 -0.8232
14235TIP3   OH264119   1.883   0.271   5.144  0.3023 -0.4512 -0.9328
14235TIP3    H164120   1.940   0.194   5.139  1.2281  0.2428 -1.3913
14235TIP3    H264121   1.846   0.268   5.232  1.5741 -0.5636 -0.3752
14236TIP3   OH264122   1.236   0.050   3.357  0.4626 -0.2007 -0.2626
14236TIP3    H164123   1.331   0.051   3.348  0.4740  0.6790 -0.0877
14236TIP3    H264124   1.217   0.114   3.426 -0.0454 -2.5221  1.9341
14237TIP3   OH264125   4.089   2.018   1.643 -0.2349  0.4793  0.5499
14237TIP3    H164126   4.059   2.087   1.703 -1.2626 -0.1720  0.8048
14237TIP3    H264127   4.021   1.951   1.647  1.4986 -1.3224  1.5545
14238TIP3   OH264128   3.633   4.963   5.019 -0.0186 -0.0737  0.1176
14238TIP3    H164129   3.678   5.017   4.954  2.5566 -2.3625 -0.1556
14238TIP3    H264130   3.695   4.955   5.092 -0.3972 -2.3582  0.2740
14239TIP3   OH264131   4.624   0.731  13.860  0.4157 -0.3885  0.4656
14239TIP3    H164132   4.538   0.757  13.894  0.2298  0.7342 -0.7758
14239TIP3    H264133   4.660   0.811  13.822  1.6945 -1.0217  0.2962
14240TIP3   OH264134   4.618   1.159   2.896 -0.4865 -0.0844  0.0804
14240TIP3    H164135   4.624   1.247   2.859 -1.5730  0.9811  2.3050
14240TIP3    H264136   4.530   1.130   2.874  0.0754 -0.9318 -1.1913
14241TIP3   OH264137   1.436   3.060   5.414  0.1968  0.1585 -0.7651
14241TIP3    H164138   1.476   2.986   5.459  0.3408 -0.4676 -1.8910
14241TIP3    H264139   1.501   3.130   5.421 -1.1003  1.2312  2.8748
14242TIP3   OH264140   3.691   6.346  12.602  0.1545  0.0439 -0.2489
14242TIP3    H164141   3.770   6.331  12.551 -0.3307  0.3763 -1.1251
14242TIP3    H264142   3.657   6.258  12.620  0.8236 -0.1024  0.2949
14243TIP3   OH264143   5.616   4.527  11.090  0.4027 -0.1000 -0.0037
14243TIP3    H164144   5.556   4.591  11.129  1.0224  0.7914 -0.4854
14243TIP3    H264145   5.562   4.449  11.077 -0.3375  0.2771  0.6982
14244TIP3   OH264146   0.616   0.113   6.097  0.5791 -0.4332 -0.7791
14244TIP3    H164147   0.683   0.154   6.153 -0.3218 -0.3488  0.2698
14244TIP3    H264148   0.592   0.181   6.035  2.4768 -0.9082 -2.1360
14245TIP3   OH264149   5.240   4.536   6.715 -0.0228 -0.4306  0.4760
14245TIP3    H164150   5.180   4.598   6.672  1.3109  0.5664 -0.0407
14245TIP3    H264151   5.197   4.451   6.708 -1.2790  0.2232 -0.0371
14246TIP3   OH264152   4.517   3.275   0.276 -0.3971 -0.4413 -0.2202
14246TIP3    H164153   4.461   3.203   0.247 -0.0051 -1.1977  0.8212
14246TIP3    H264154   4.479   3.302   0.360  0.1855 -0.2494 -0.0148
14247TIP3   OH264155   6.405   2.976   2.892 -0.2857  0.2640  0.1391
14247TIP3    H164156   6.441   2.910   2.833 -0.1612  0.1904  0.2965
14247TIP3    H264157   6.313   2.983   2.868 -0.1850  0.3942 -0.2124
14248TIP3   OH264158   1.212   5.530  14.211  0.1297  0.4805  0.4998
14248TIP3    H164159   1.207   5.523  14.306  0.7153  0.1707  0.5188
14248TIP3    H264160   1.130   5.493  14.179  0.5457 -0.7868  0.8413
14249TIP3   OH264161   3.854   3.760  15.929  0.2682  0.3604  0.6868
14249TIP3    H164162   3.826   3.668  15.925  1.3430  0.0579 -0.5200
14249TIP3    H264163   3.795   3.799  15.994  0.8070 -1.5225  2.4338
14250TIP3   OH264164   2.337   2.025   5.273 -0.0832  0.1793 -0.4198
14250TIP3    H164165   2.369   1.989   5.190 -0.9410 -1.4388 -0.1040
14250TIP3    H264166   2.383   1.974   5.340 -0.0221  0.8967  0.0908
14251TIP3   OH264167   0.031   0.050  12.107  0.8667  0.6922 -0.3765
14251TIP3    H164168   0.065  -0.014  12.170  0.8348  1.5463  0.5418
14251TIP3    H264169   0.103   0.064  12.046  1.5386  1.1547  0.5075
14252TIP3   OH264170   3.823   3.495  11.688 -0.1986  0.6063 -0.0214
14252TIP3    H164171   3.776   3.577  11.674 -0.6969  0.3439  0.0697
14252TIP3    H264172   3.909   3.509  11.649 -1.1871  0.2328 -2.5705
14253TIP3   OH264173   6.721   2.312  11.418 -0.0730  0.2479  0.1570
14253TIP3    H164174   6.723   2.395  11.465 -2.2914  1.4543 -1.6304
14253TIP3    H264175   6.673   2.252  11.476  0.3580  0.6161  0.8961
14254TIP3   OH264176   5.977   4.762  11.203 -0.3586 -0.0834  0.2070
14254TIP3    H164177   5.931   4.713  11.134 -1.2204  0.2122  0.5542
14254TIP3    H264178   6.054   4.799  11.159 -1.0928  0.4195 -0.6941
14255TIP3   OH264179   6.381   5.074  13.453  0.3048  0.0763  0.0071
14255TIP3    H164180   6.348   5.049  13.367 -0.9049 -0.7764  0.6951
14255TIP3    H264181   6.350   5.005  13.512  3.3580 -0.8323  0.7288
14256TIP3   OH264182   3.236   4.393  12.945  0.1172  0.0786 -0.0481
14256TIP3    H164183   3.189   4.474  12.964  1.1270  0.5010  0.6911
14256TIP3    H264184   3.327   4.410  12.970  0.2908 -1.3885  0.4611
14257TIP3   OH264185   6.065   2.208  14.030 -0.5510 -0.0705 -0.1136
14257TIP3    H164186   6.085   2.166  14.114  1.6847  0.9039 -0.0748
14257TIP3    H264187   6.011   2.284  14.054 -1.0678 -0.5462  0.2686
14258TIP3   OH264188   0.716   1.053   6.281 -0.1233  0.4017  0.1773
14258TIP3    H164189   0.758   1.030   6.365 -0.1885 -1.5759 -0.2674
14258TIP3    H264190   0.693   1.145   6.290 -0.7090  0.1007  2.5975
14259TIP3   OH264191   6.674   0.483  14.093  0.4848  0.0389 -0.3838
14259TIP3    H164192   6.613   0.458  14.162  1.7535 -1.7426  0.1749
14259TIP3    H264193   6.699   0.573  14.115  1.1029 -0.5813  1.6979
14260TIP3   OH264194   5.875   1.075  15.567  0.1979  0.0026  0.3966
14260TIP3    H164195   5.854   1.072  15.473  1.1476 -1.1444  0.1896
14260TIP3    H264196   5.921   1.158  15.578 -0.9796  0.7185  0.1046
14261TIP3   OH264197   0.266   2.760   3.584  0.0146  0.2828 -0.4345
14261TIP3    H164198   0.340   2.734   3.529 -0.5505  1.0907 -1.6093
14261TIP3    H264199   0.235   2.678   3.622 -0.1458 -0.4403 -2.0540
14262TIP3   OH264200   4.031   6.279  15.160 -0.2109 -0.1679  0.0167
14262TIP3    H164201   4.102   6.343  15.150 -1.9994  1.6384 -2.9277
14262TIP3    H264202   4.046   6.216  15.090 -0.7101 -0.6066  0.3008
14263TIP3   OH264203   6.281   6.730  13.464 -0.5537 -0.1820 -0.3962
14263TIP3    H164204   6.279   6.635  13.477 -0.9685 -0.3946 -1.8164
14263TIP3    H264205   6.343   6.742  13.393 -1.5006  0.4788 -1.1324
14264TIP3   OH264206   2.923   4.149  12.916 -0.4557  0.3358 -0.1336
14264TIP3    H164207   2.911   4.244  12.915 -0.4045  0.3541  0.5881
14264TIP3    H264208   3.018   4.137  12.908 -0.2536  0.4168  1.7566
14265TIP3   OH264209   2.832   6.534  12.887 -0.4555 -0.1746 -0.1337
14265TIP3    H164210   2.918   6.572  12.868 -0.7101  0.8088  0.5894
14265TIP3    H264211   2.781   6.550  12.808 -0.5997  1.1583  0.2065
14266TIP3   OH264212   3.746   0.064   0.254 -0.2702 -0.4719  0.2639
14266TIP3    H164213   3.792   0.129   0.307  0.6679  0.7724 -1.9506
14266TIP3    H264214   3.790  -0.019   0.275  2.3327  0.4987 -0.9319
14267TIP3   OH264215   4.553   4.655   3.659  0.2069 -0.1013  0.4638
14267TIP3    H164216   4.550   4.568   3.619 -0.6221 -1.0584  2.4642
14267TIP3    H264217   4.644   4.667   3.685  0.3575 -0.2894  0.0298
14268TIP3   OH264218   6.466   3.998   1.169  0.3727 -0.0511 -0.4437
14268TIP3    H164219   6.425   4.067   1.221 -0.3438 -0.3082 -0.6548
14268TIP3    H264220   6.436   3.917   1.210 -0.8586 -0.2752 -1.7240
14269TIP3   OH264221   4.440   1.871   3.053  0.3108 -0.3488 -0.1963
14269TIP3    H164222   4.470   1.792   3.097  1.3083 -0.1785 -0.5566
14269TIP3    H264223   4.519   1.912   3.020 -0.1114  1.1462  0.5391
14270TIP3   OH264224   1.100   2.964   2.443  0.3614  0.8156 -0.0629
14270TIP3    H164225   1.139   2.976   2.530 -1.1181  0.6074  0.6614
14270TIP3    H264226   1.018   2.918   2.460  0.3898  0.1376 -1.6580
14271TIP3   OH264227   0.063   5.062   1.690  0.3085  0.6297 -0.2925
14271TIP3    H164228   0.027   4.981   1.726  1.9929  0.0492  0.1973
14271TIP3    H264229   0.094   5.037   1.603  1.7832  0.4445  0.2590
14272TIP3   OH264230   0.553   3.425  17.263  0.1400 -0.2855 -0.0905
14272TIP3    H164231   0.641   3.396  17.287 -0.3179 -1.6831  0.0261
14272TIP3    H264232   0.500   3.410  17.342 -0.0707  1.2254  0.0777
14273TIP3   OH264233   3.832   5.110   4.885  0.0902  0.1176 -0.2684
14273TIP3    H164234   3.842   5.121   4.790 -1.5114 -1.0382 -0.6212
14273TIP3    H264235   3.834   5.198   4.920  1.8301  0.5110 -1.2300
14274TIP3   OH264236   4.160   3.781   2.421 -0.5817 -0.1556  0.2204
14274TIP3    H164237   4.162   3.695   2.463 -0.9900  0.3888  1.3871
14274TIP3    H264238   4.198   3.766   2.334 -1.4581 -1.6898  0.0707
14275TIP3   OH264239   3.854   1.287  12.423  0.5851 -0.7966 -0.1795
14275TIP3    H164240   3.940   1.323  12.401  0.4645 -0.8741 -0.7826
14275TIP3    H264241   3.801   1.301  12.345  0.0745 -0.8439  0.1525
14276TIP3   OH264242   6.505   1.789  12.599  0.1231  0.1151 -0.1614
14276TIP3    H164243   6.554   1.734  12.538 -0.5855  0.3827 -0.9877
14276TIP3    H264244   6.554   1.782  12.681  0.9499 -0.4531 -0.6809
14277TIP3   OH264245   3.925   2.216  10.789  0.3901  0.0916  0.3567
14277TIP3    H164246   3.833   2.202  10.811 -0.2494 -0.6608 -2.4678
14277TIP3    H264247   3.962   2.128  10.783  1.2869  0.3835  1.3162
14278TIP3   OH264248   3.351   5.218  15.439 -0.6070  0.4334 -0.4194
14278TIP3    H164249   3.406   5.280  15.488 -1.1194 -1.1332  2.3395
14278TIP3    H264250   3.400   5.136  15.442 -2.0750 -0.4498  0.1844
14279TIP3   OH264251   2.741   4.466   3.822 -0.0478  0.3494 -0.1413
14279TIP3    H164252   2.737   4.384   3.872 -2.1899 -0.1999 -1.0772
14279TIP3    H264253   2.802   4.521   3.871  0.1354 -1.1908  1.4690
14280TIP3   OH264254   0.252   5.909  16.522 -0.0318 -0.2437  0.3232
14280TIP3    H164255   0.289   5.996  16.538 -2.5836  0.7268  1.5297
14280TIP3    H264256   0.247   5.869  16.609 -0.0300 -1.1124 -0.0654
14281TIP3   OH264257   1.181   0.727   5.455 -0.1388 -0.2885 -0.3172
14281TIP3    H164258   1.187   0.647   5.507 -0.8032 -1.3679 -1.8354
14281TIP3    H264259   1.090   0.755   5.464 -0.6045 -1.1682 -1.7785
14282TIP3   OH264260   6.150   4.691   3.473 -0.1359 -0.3040  0.2063
14282TIP3    H164261   6.147   4.748   3.550 -0.0187 -0.2315  0.1577
14282TIP3    H264262   6.105   4.611   3.501 -1.2417  0.2137 -0.0690
14283TIP3   OH264263   3.298   2.841   1.175  0.5645 -0.3749 -0.6888
14283TIP3    H164264   3.261   2.911   1.228 -1.8908  0.1795 -2.9384
14283TIP3    H264265   3.392   2.862   1.169  0.3385  1.2754  0.7323
14284TIP3   OH264266   1.369   1.778   4.849  0.3155  0.0392  0.3265
14284TIP3    H164267   1.346   1.866   4.818 -2.6780 -0.5812  0.5369
14284TIP3    H264268   1.418   1.739   4.776 -0.7839  0.9347 -0.9466
14285TIP3   OH264269   0.861   1.442   4.330 -0.4875  0.4694  0.0330
14285TIP3    H164270   0.834   1.521   4.377  0.2171  1.4675 -1.1596
14285TIP3    H264271   0.817   1.448   4.246  0.1973  0.0075 -0.3710
14286TIP3   OH264272   5.652   3.054  10.452  0.1579  0.1082 -0.2674
14286TIP3    H164273   5.693   3.075  10.368 -0.8155  0.3890 -0.6848
14286TIP3    H264274   5.722   3.066  10.517  0.7942  0.3406 -0.9845
14287TIP3   OH264275   3.022   2.913  15.393 -0.1973 -0.1878 -0.0163
14287TIP3    H164276   3.074   2.989  15.422 -0.4893 -0.0286  0.1021
14287TIP3    H264277   2.976   2.885  15.472 -2.1606  1.1674 -0.6091
14288TIP3   OH264278   2.171   2.015  14.681  0.3797  0.1129 -0.4997
14288TIP3    H164279   2.140   1.984  14.596  1.5432 -2.2246 -0.1301
14288TIP3    H264280   2.172   2.111  14.672 -1.8452  0.0465 -2.2495
14289TIP3   OH264281   1.971   1.159  15.663 -0.1626 -0.3766 -0.0163
14289TIP3    H164282   1.877   1.143  15.653 -0.4556  1.2831 -0.0861
14289TIP3    H264283   1.982   1.180  15.756 -0.1002  0.8773 -0.2995
14290TIP3   OH264284   5.499   0.398   4.988  0.5654 -0.0312 -0.0901
14290TIP3    H164285   5.479   0.361   5.074  1.7756  1.3142  0.8272
14290TIP3    H264286   5.419   0.444   4.962  0.2607 -0.2854  0.3835
14291TIP3   OH264287   5.472   1.395  13.121  0.3673  0.1349  0.3851
14291TIP3    H164288   5.399   1.378  13.062  0.3112  0.8643  0.2348
14291TIP3    H264289   5.515   1.473  13.084  0.2023  0.7381  1.4224
14292TIP3   OH264290   0.454   1.020  14.357  0.0624  0.0221  0.1640
14292TIP3    H164291   0.478   0.972  14.436 -0.4260 -2.2669 -0.9552
14292TIP3    H264292   0.364   0.993  14.339  0.0242  0.8008 -0.9424
14293TIP3   OH264293   1.497   5.339   6.158  0.0485  0.2007 -0.2042
14293TIP3    H164294   1.502   5.249   6.189  1.8487  0.5265  0.5101
14293TIP3    H264295   1.479   5.330   6.064 -0.9629 -0.8473  0.0562
14294TIP3   OH264296   0.411   3.844   0.696  0.3866 -0.3684  0.3342
14294TIP3    H164297   0.463   3.882   0.626  0.8827 -2.0446 -0.2531
14294TIP3    H264298   0.400   3.752   0.671 -0.3581 -0.7456  1.9079
14295TIP3   OH264299   2.994   2.254   1.340 -0.6089  0.3719  0.7509
14295TIP3    H164300   3.054   2.301   1.398  0.2437  0.0447  0.1593
14295TIP3    H264301   3.006   2.297   1.255  2.7655 -2.9068 -0.7148
14296TIP3   OH264302   0.239   3.244  17.079  0.3681 -0.2089 -0.1320
14296TIP3    H164303   0.297   3.206  17.013 -0.3515 -0.8555 -0.4057
14296TIP3    H264304   0.229   3.176  17.145 -0.6872 -0.4142 -0.4732
14297TIP3   OH264305   0.123   3.051   4.738 -0.0034 -0.0987  0.0325
14297TIP3    H164306   0.118   2.974   4.681 -0.5393  0.4990 -0.7464
14297TIP3    H264307   0.157   3.120   4.682 -1.5410  0.7703  0.1325
14298TIP3   OH264308   0.527   6.346  14.098 -0.1584  0.0696  0.0294
14298TIP3    H164309   0.593   6.277  14.089 -0.1942  0.3157 -3.2578
14298TIP3    H264310   0.447   6.307  14.062 -1.5224  0.2764  2.6188
14299TIP3   OH264311   1.032   5.800  11.886  0.1457  0.4036 -0.2230
14299TIP3    H164312   0.940   5.817  11.870 -0.6518 -0.9728  2.2831
14299TIP3    H264313   1.075   5.885  11.879 -1.3394  1.0964 -1.1742
14300TIP3   OH264314   3.857   1.417   5.463 -0.1453 -0.5850 -0.3788
14300TIP3    H164315   3.809   1.406   5.545  1.8317 -0.1954  0.8858
14300TIP3    H264316   3.917   1.343   5.460  1.4332  0.6427 -0.2666
14301TIP3   OH264317   5.361   3.793  11.254 -0.4936  0.0101  0.6171
14301TIP3    H164318   5.293   3.861  11.256 -0.1343  0.4361 -0.7770
14301TIP3    H264319   5.315   3.712  11.277 -1.3430  0.3927  0.3005
14302TIP3   OH264320   1.300   4.730   3.086  0.7119  0.2079 -0.2360
14302TIP3    H164321   1.326   4.643   3.117  0.4705 -0.4768 -1.8408
14302TIP3    H264322   1.382   4.778   3.077  0.9526 -0.2307 -0.4007
14303TIP3   OH264323   0.738   1.265   4.775  0.5937 -0.0149 -0.0576
14303TIP3    H164324   0.799   1.199   4.807  1.3558  0.2445 -0.9318
14303TIP3    H264325   0.793   1.331   4.734 -0.1812  1.0114  0.5018
14304TIP3   OH264326   6.373   3.146   5.093  0.4481  0.6224 -0.7622
14304TIP3    H164327   6.347   3.202   5.166 -0.6793  0.2376 -0.8474
14304TIP3    H264328   6.464   3.125   5.110 -0.1529 -0.5945  1.3034
14305TIP3   OH264329   2.989   1.852   5.042  0.2155 -0.6087 -0.0507
14305TIP3    H164330   3.012   1.883   5.130 -2.2703 -0.0141  0.4589
14305TIP3    H264331   3.023   1.763   5.039 -1.1034 -1.2566  2.1813
14306TIP3   OH264332   3.981   3.966  14.474  0.0092  0.4398 -0.2352
14306TIP3    H164333   3.978   3.958  14.569  0.0536  0.3894 -0.2378
14306TIP3    H264334   4.019   3.884  14.444  2.2439  1.3938 -0.1507
14307TIP3   OH264335   5.376   4.161  13.088  0.1200 -0.5448 -0.3622
14307TIP3    H164336   5.335   4.218  13.023  1.0253 -1.6316 -1.9794
14307TIP3    H264337   5.355   4.072  13.058  0.7533 -1.0722  0.7110
14308TIP3   OH264338   0.624   5.662  12.700 -1.1307  0.3497 -0.3706
14308TIP3    H164339   0.717   5.681  12.707 -1.4303  1.8878 -0.0378
14308TIP3    H264340   0.619   5.575  12.661  0.4349  0.1625 -0.2036
14309TIP3   OH264341   5.717   3.153  15.241 -0.6090  0.1529 -0.1795
14309TIP3    H164342   5.776   3.108  15.180 -2.1949 -1.5600 -0.5381
14309TIP3    H264343   5.639   3.172  15.189 -1.3359  0.1603  0.8853
14310TIP3   OH264344   2.417   2.759  13.145  0.5461 -0.0269 -0.1436
14310TIP3    H164345   2.336   2.805  13.123 -0.1196 -0.2135  1.6998
14310TIP3    H264346   2.424   2.689  13.080  1.0661  1.9914 -2.4089
14311TIP3   OH264347   2.504   6.306   3.575 -0.4433 -0.9631  0.0204
14311TIP3    H164348   2.568   6.315   3.505 -0.7749 -2.2650 -0.4884
14311TIP3    H264349   2.552   6.261   3.645  0.1534  1.1477  1.0472
14312TIP3   OH264350   2.268   1.640   4.081  0.0384  0.0563  0.8362
14312TIP3    H164351   2.230   1.559   4.114 -0.9923  0.3266  0.3410
14312TIP3    H264352   2.345   1.612   4.031 -1.8752 -0.9272 -1.7633
14313TIP3   OH264353   0.560   4.501   1.388 -0.2509  0.7584  0.2106
14313TIP3    H164354   0.581   4.430   1.328  0.7148  0.8978  0.3694
14313TIP3    H264355   0.527   4.457   1.467  3.2371  0.2204  1.5333
14314TIP3   OH264356   1.713   1.104  11.927  0.1056  0.3014 -0.0660
14314TIP3    H164357   1.667   1.020  11.930  2.0041 -0.7629  0.3190
14314TIP3    H264358   1.647   1.167  11.957 -0.8149 -1.2916  1.5136
14315TIP3   OH264359   1.623   3.435  15.932  0.1018 -0.2089  0.4428
14315TIP3    H164360   1.671   3.355  15.953 -0.4110 -1.0460 -1.3515
14315TIP3    H264361   1.533   3.418  15.961 -0.9685 -1.9442 -3.1865
14316TIP3   OH264362   4.925   0.695   0.440  0.0833 -0.2630 -0.1688
14316TIP3    H164363   4.842   0.726   0.476  1.6523  0.4837  3.2096
14316TIP3    H264364   4.973   0.776   0.418  0.8217 -0.5819  0.2317
14317TIP3   OH264365   2.696   3.967   1.961  0.7052 -0.0920  0.2691
14317TIP3    H164366   2.628   3.900   1.951 -0.3829  0.4146  3.2959
14317TIP3    H264367   2.658   4.044   1.919  0.7148 -0.5709 -0.6546
14318TIP3   OH264368   0.134   3.882   4.636 -0.2201  0.0104 -0.0158
14318TIP3    H164369   0.075   3.958   4.631 -1.5595 -1.0548 -2.5671
14318TIP3    H264370   0.090   3.822   4.696  0.6254  1.0107  1.6700
14319TIP3   OH264371   4.090   2.821   2.347 -0.2717  0.3155 -0.7191
14319TIP3    H164372   4.044   2.895   2.307 -2.7525  0.8697  2.7311
14319TIP3    H264373   4.147   2.861   2.412 -0.8654 -0.6984  0.4574
14320TIP3   OH264374   2.549   5.963   0.801  0.0905 -0.2309  0.0824
14320TIP3    H164375   2.525   5.917   0.720  0.5258  0.3061 -0.3518
14320TIP3    H264376   2.470   6.012   0.824 -0.1986 -0.7634  0.2554
14321TIP3   OH264377   6.070   1.889   0.526  0.1554 -0.4484 -0.1223
14321TIP3    H164378   6.059   1.821   0.460 -0.2984  1.0370 -1.6402
14321TIP3    H264379   6.070   1.971   0.477 -1.2501  0.7941  1.8039
14322TIP3   OH264380   0.328   0.414   6.224  0.3518  0.8511  0.6004
14322TIP3    H164381   0.273   0.470   6.168  0.1231  0.6224  0.5944
14322TIP3    H264382   0.298   0.325   6.205 -1.1584  0.8658  2.5765
14323TIP3   OH264383   0.186   1.843   0.454 -0.2415 -0.8373 -0.1395
14323TIP3    H164384   0.137   1.835   0.372  1.1165 -1.2630 -0.9599
14323TIP3    H264385   0.247   1.768   0.452  0.5990 -0.1988  0.6890
14324TIP3   OH264386   3.813   5.651  16.247 -0.3892 -0.5019  0.3339
14324TIP3    H164387   3.823   5.743  16.274  1.2666 -0.9211  1.3066
14324TIP3    H264388   3.903   5.617  16.247 -0.9472 -2.0249 -0.3796
14325TIP3   OH264389   5.753   2.630   1.712 -0.3145  0.3451 -0.1689
14325TIP3    H164390   5.720   2.672   1.792  0.2354  2.1101 -0.8186
14325TIP3    H264391   5.839   2.670   1.698  0.1430 -0.8562 -0.9850
14326TIP3   OH264392   5.836   2.831   1.006  0.1615  0.4927 -0.2355
14326TIP3    H164393   5.743   2.842   1.026  0.3523  1.5111  0.1327
14326TIP3    H264394   5.872   2.920   1.009  1.5228 -0.0544  1.5701
14327TIP3   OH264395   1.039   0.644  12.887 -0.7271 -0.1318  0.0764
14327TIP3    H164396   1.050   0.607  12.974  0.5138  0.4675  0.1940
14327TIP3    H264397   0.947   0.667  12.882 -1.4172 -2.5884  0.2398
14328TIP3   OH264398   0.423   5.525  12.064  0.3006  0.8983 -0.0266
14328TIP3    H164399   0.492   5.514  12.130 -0.6023 -0.6253  0.7191
14328TIP3    H264400   0.459   5.589  12.002  2.1114  0.6271  0.6814
14329TIP3   OH264401   0.900   4.442   4.418 -0.1105  0.3999 -0.0322
14329TIP3    H164402   0.838   4.496   4.468  0.0890  0.6890 -0.0952
14329TIP3    H264403   0.919   4.494   4.340 -0.3834 -0.0292 -0.3905
14330TIP3   OH264404   2.178   0.268   3.028  0.0265  0.4578 -0.2135
14330TIP3    H164405   2.219   0.198   2.978  0.5608  1.1084 -0.7142
14330TIP3    H264406   2.244   0.293   3.093 -0.6130 -0.2936  0.7407
14331TIP3   OH264407   2.458   1.652  12.356  0.0834 -0.1407 -0.0257
14331TIP3    H164408   2.446   1.699  12.439 -0.5663 -0.1682 -0.0994
14331TIP3    H264409   2.474   1.561  12.383 -0.7000 -0.2606  0.0614
14332TIP3   OH264410   3.282   2.808  11.672 -0.0827  0.1083 -0.1618
14332TIP3    H164411   3.248   2.719  11.675 -0.2644  0.1789 -0.0519
14332TIP3    H264412   3.351   2.806  11.606  1.2667 -0.5816  1.1998
14333TIP3   OH264413   1.370   4.721  12.752 -0.3063  0.0718  0.1405
14333TIP3    H164414   1.438   4.679  12.805 -0.7310  1.2796  1.7318
14333TIP3    H264415   1.411   4.802  12.720  0.1533 -0.9304 -1.9847
14334TIP3   OH264416   5.264   2.498  14.447  0.0443 -0.2270  0.8661
14334TIP3    H164417   5.184   2.550  14.441 -0.2717 -0.6777  1.1602
14334TIP3    H264418   5.334   2.563  14.456 -0.1776  0.2108 -0.3716
14335TIP3   OH264419   3.429   4.211  14.399  0.2052  0.0062 -0.4682
14335TIP3    H164420   3.347   4.258  14.384  0.3076  0.1130 -0.7102
14335TIP3    H264421   3.496   4.280  14.398  0.3582 -0.1439 -0.8578
14336TIP3   OH264422   1.077   1.966  12.994 -0.0073 -0.1038 -0.0961
14336TIP3    H164423   0.986   1.986  13.018  0.1290 -0.7924  1.0668
14336TIP3    H264424   1.075   1.875  12.965  0.1325  0.2176 -1.1651
14337TIP3   OH264425   2.099   2.951  11.541  0.2356 -0.2523 -0.3058
14337TIP3    H164426   2.039   2.935  11.468  1.8212  0.1682 -1.7877
14337TIP3    H264427   2.058   2.910  11.616 -2.6008  1.2516 -0.8892
14338TIP3   OH264428   1.041   1.319   4.495 -0.3706  0.3311 -0.5022
14338TIP3    H164429   1.059   1.228   4.472 -3.9518 -0.8080  0.5485
14338TIP3    H264430   1.010   1.359   4.414  0.3644  0.3878 -0.7619
14339TIP3   OH264431   2.718   1.882   5.121  0.1287 -0.0350 -0.3845
14339TIP3    H164432   2.804   1.864   5.084 -0.8727 -0.3110 -2.7755
14339TIP3    H264433   2.687   1.797   5.152  0.8970  0.1648  1.0354
14340TIP3   OH264434   5.407   5.217  13.741 -0.0806  0.4919 -0.7022
14340TIP3    H164435   5.415   5.135  13.692 -2.1211  0.0886 -0.4783
14340TIP3    H264436   5.446   5.283  13.684 -0.4397 -0.2973 -1.9048
14341TIP3   OH264437   1.677   6.365  16.737  0.1884  0.1077 -0.1032
14341TIP3    H164438   1.711   6.302  16.672 -0.1300 -1.9365  1.6010
14341TIP3    H264439   1.703   6.328  16.821 -2.3802  0.8432  1.0805
14342TIP3   OH264440   4.491   5.050   5.659 -0.5460  0.2406 -0.0402
14342TIP3    H164441   4.498   5.141   5.630 -0.2086  0.1637 -0.2088
14342TIP3    H264442   4.581   5.019   5.663 -0.7062 -0.3931 -1.0023
14343TIP3   OH264443   1.945   5.564   6.477 -0.0416 -0.5634  0.1699
14343TIP3    H164444   2.017   5.506   6.502  1.0697  0.8914  0.4085
14343TIP3    H264445   1.931   5.620   6.552 -0.5728  0.0349 -0.3576
14344TIP3   OH264446   6.433   3.386   1.418 -0.1902 -0.0858 -0.2587
14344TIP3    H164447   6.469   3.434   1.493 -1.4607  0.6505 -0.0935
14344TIP3    H264448   6.416   3.298   1.452 -1.5568  0.4720  0.6108
14345TIP3   OH264449   4.157   2.408  16.617  0.4261 -0.2560 -0.5112
14345TIP3    H164450   4.247   2.440  16.607  0.6172 -0.6777 -0.1532
14345TIP3    H264451   4.118   2.464  16.684  1.2365 -1.7064  1.2603
14346TIP3   OH264452   6.311   6.264   5.407  0.7085  0.2371 -0.1560
14346TIP3    H164453   6.371   6.333   5.436 -0.5739  2.2807 -2.0335
14346TIP3    H264454   6.240   6.311   5.364 -2.2932 -2.0595  1.9106
14347TIP3   OH264455   6.235   4.864   4.477  0.1148 -0.3764 -0.1961
14347TIP3    H164456   6.185   4.857   4.395 -0.0370  0.9185 -0.2272
14347TIP3    H264457   6.204   4.790   4.530  0.3521 -1.3514 -1.3585
14348TIP3   OH264458   1.662   2.571   4.344  0.3182  0.1814 -0.0910
14348TIP3    H164459   1.668   2.528   4.259  1.3510 -0.3705  0.2566
14348TIP3    H264460   1.750   2.566   4.381 -0.3556 -0.6053  1.5053
14349TIP3   OH264461   3.744   0.457  16.138  0.6214  0.0030 -0.2504
14349TIP3    H164462   3.796   0.464  16.058 -0.2566  1.5594 -0.7139
14349TIP3    H264463   3.767   0.535  16.188 -1.4741  0.9325 -0.6291
14350TIP3   OH264464   0.487   5.165  17.109  0.2603 -0.1164 -0.1433
14350TIP3    H164465   0.465   5.248  17.152  1.1870 -0.1888  0.5124
14350TIP3    H264466   0.579   5.176  17.084  0.4269 -0.9962  0.0697
14351TIP3   OH264467   2.219   4.961  12.688 -0.4859  0.3476 -0.2619
14351TIP3    H164468   2.216   4.901  12.763 -0.1601  1.1475  0.4089
14351TIP3    H264469   2.243   5.045  12.726  0.6687  0.5625 -1.3987
14352TIP3   OH264470   6.146   2.742  16.577  0.3526  0.0932 -0.1427
14352TIP3    H164471   6.228   2.763  16.533  0.7735  1.2628  1.0999
14352TIP3    H264472   6.107   2.827  16.598 -0.9760 -0.4375 -0.3322
14353TIP3   OH264473   3.854   0.830  15.968 -0.7774 -0.0921 -0.0310
14353TIP3    H164474   3.838   0.781  16.048 -0.9588 -0.7795 -0.4803
14353TIP3    H264475   3.784   0.804  15.909 -0.5291  0.2537 -0.4900
14354TIP3   OH264476   4.969   5.833   4.528  0.4197  0.0159  0.1315
14354TIP3    H164477   4.961   5.920   4.568  0.1281 -0.4331  1.0683
14354TIP3    H264478   4.904   5.779   4.574  1.7727 -1.1347  0.7636
14355TIP3   OH264479   3.858   1.741  15.108  0.1588 -0.1404  0.2441
14355TIP3    H164480   3.781   1.689  15.083 -1.7853  2.5701  0.0888
14355TIP3    H264481   3.933   1.686  15.084 -1.6559 -1.3603 -3.4433
14356TIP3   OH264482   1.124   5.054  11.755 -0.1960  0.1207  0.2823
14356TIP3    H164483   1.201   4.998  11.767  0.5835  0.5893 -2.0047
14356TIP3    H264484   1.056   5.014  11.809  1.9445  0.4146  3.4314
14357TIP3   OH264485   2.805   5.377  13.648  0.3699 -0.1693 -0.0550
14357TIP3    H164486   2.710   5.376  13.661  0.2691  2.0726 -0.1327
14357TIP3    H264487   2.816   5.402  13.556  1.0889 -3.3765 -0.9438
14358TIP3   OH264488   3.765   5.374   2.785  0.5976 -0.4231 -0.1145
14358TIP3    H164489   3.829   5.325   2.733  1.3878  0.9059 -0.4293
14358TIP3    H264490   3.733   5.310   2.849  2.7860 -0.9493  0.5410
14359TIP3   OH264491   2.980   0.243  11.343 -0.0184 -0.0989  0.7668
14359TIP3    H164492   2.933   0.161  11.350 -0.3807 -0.0861 -1.0017
14359TIP3    H264493   2.913   0.311  11.345  0.0055 -0.0126 -0.4572
14360TIP3   OH264494   4.033   2.943  14.175 -0.1872 -0.3192  0.1684
14360TIP3    H164495   4.127   2.945  14.156 -0.2730 -1.9660 -0.5702
14360TIP3    H264496   3.993   2.915  14.093 -1.1370 -1.6073  1.0424
14361TIP3   OH264497   3.081   6.592   6.207  0.1096 -0.5552  0.0343
14361TIP3    H164498   3.127   6.585   6.291  0.6759 -0.7279 -0.2858
14361TIP3    H264499   3.092   6.684   6.181 -1.6430 -0.0252  1.0272
14362TIP3   OH264500   2.412   5.907   0.280 -0.3634  0.5011  0.1138
14362TIP3    H164501   2.363   5.958   0.215 -0.0598  0.3649 -0.2306
14362TIP3    H264502   2.416   5.964   0.357  0.3969  1.2211 -0.4260
14363TIP3   OH264503   5.803   1.836  11.674  0.1692  0.5615 -0.2681
14363TIP3    H164504   5.862   1.910  11.662  0.4793  0.4884  0.7377
14363TIP3    H264505   5.826   1.800  11.760  0.7341 -1.3312 -1.1689
14364TIP3   OH264506   3.574   4.284   1.815 -0.3925 -0.2583  0.0912
14364TIP3    H164507   3.584   4.190   1.806  1.7999 -0.0797 -0.0218
14364TIP3    H264508   3.557   4.298   1.909  0.8939 -0.7106  0.4188
14365TIP3   OH264509   0.404   5.685   2.688  0.0571 -0.9849 -0.2248
14365TIP3    H164510   0.383   5.618   2.753  0.6031 -0.1214  0.8548
14365TIP3    H264511   0.318   5.719   2.661 -0.1875  0.8457  2.4150
14366TIP3   OH264512   0.996   1.024   0.530 -0.0798  0.2165  0.0157
14366TIP3    H164513   1.085   0.989   0.533 -0.0395  0.3253  0.1141
14366TIP3    H264514   0.950   0.979   0.600 -0.1818 -0.0505 -0.2187
14367TIP3   OH264515   5.098   0.457  16.960  0.1855  0.4769  0.4203
14367TIP3    H164516   5.160   0.453  16.887  0.1513  1.7748  0.3012
14367TIP3    H264517   5.067   0.547  16.960  2.4742  1.4835  3.8905
14368TIP3   OH264518   3.812   0.983  11.984 -0.6912  0.0624 -0.2720
14368TIP3    H164519   3.777   1.072  11.980 -1.2870 -0.1054  0.9113
14368TIP3    H264520   3.746   0.929  11.939 -0.2645  0.2190 -1.1116
14369TIP3   OH264521   3.905   3.987   4.348 -0.4848 -0.2880 -0.0269
14369TIP3    H164522   3.915   4.077   4.376 -0.5863 -0.8882  2.0945
14369TIP3    H264523   3.829   3.988   4.290 -3.2453  0.3931  3.3133
14370TIP3   OH264524   3.882   0.580  15.501 -0.1082 -0.4016 -0.3817
14370TIP3    H164525   3.934   0.600  15.423 -1.1256 -0.9010 -1.2202
14370TIP3    H264526   3.839   0.663  15.523 -0.2789 -0.4032 -0.7097
14371TIP3   OH264527   4.407   0.836  12.383  0.4760 -0.0918 -0.4508
14371TIP3    H164528   4.398   0.790  12.300  0.4857  2.1114 -1.7694
14371TIP3    H264529   4.380   0.926  12.364  1.8010  0.8428  1.5920
14372TIP3   OH264530   2.223   3.666  11.790  0.0459 -0.6233  0.2816
14372TIP3    H164531   2.131   3.640  11.799  0.2820 -0.9254  2.0958
14372TIP3    H264532   2.269   3.585  11.768 -0.2040 -0.3042 -1.6351
14373TIP3   OH264533   5.490   5.617  13.162 -0.4623 -0.2068  0.1934
14373TIP3    H164534   5.507   5.558  13.088  1.8664  0.9504 -0.2833
14373TIP3    H264535   5.410   5.663  13.138 -0.2913 -0.5584 -1.1491
14374TIP3   OH264536   4.882   1.189   0.460 -0.1785 -0.0703  0.2194
14374TIP3    H164537   4.798   1.171   0.501  0.4725 -0.7116  1.3325
14374TIP3    H264538   4.933   1.109   0.473  0.4366  0.1148 -0.8929
14375TIP3   OH264539   1.196   2.236   5.349  0.4650 -0.4016 -0.2030
14375TIP3    H164540   1.268   2.174   5.348  0.6430 -0.1942 -0.8338
14375TIP3    H264541   1.214   2.292   5.425  0.4869 -0.9000  0.1634
14376TIP3   OH264542   4.034   2.290  12.099  0.6319 -1.0578 -0.3015
14376TIP3    H164543   3.943   2.290  12.071  1.0432 -0.0472 -1.7583
14376TIP3    H264544   4.030   2.277  12.194 -1.1188  0.3842 -0.1262
14377TIP3   OH264545   6.031   4.414   0.194 -0.6372  0.2578 -0.1397
14377TIP3    H164546   6.000   4.348   0.257 -1.6759  0.5335 -0.3395
14377TIP3    H264547   6.014   4.498   0.237  0.4578  0.4205  0.0129
14378TIP3   OH264548   4.003   1.877  17.174  0.0863 -0.4255  0.1209
14378TIP3    H164549   3.914   1.906  17.158 -0.8884 -2.2023  1.8649
14378TIP3    H264550   4.039   1.942  17.235  0.3197  0.7582 -1.2350
14379TIP3   OH264551   4.816   3.745  11.452  0.4191 -0.4108 -0.5141
14379TIP3    H164552   4.782   3.789  11.375 -0.2504 -1.3840 -0.7922
14379TIP3    H264553   4.894   3.796  11.477 -0.3872  0.9636 -0.7415
14380TIP3   OH264554   4.441   4.387   2.049  0.6566  0.5343  0.2684
14380TIP3    H164555   4.448   4.356   1.959  0.5158 -0.0699  0.4634
14380TIP3    H264556   4.454   4.309   2.103 -0.2776  0.7031  0.7595
14381TIP3   OH264557   2.853   1.759   5.762  0.0260 -0.2118 -0.0297
14381TIP3    H164558   2.909   1.783   5.835  1.6231 -0.1364 -1.2322
14381TIP3    H264559   2.770   1.734   5.803  0.0905  2.0163  1.6532
14382TIP3   OH264560   2.760   4.102  15.789  0.1217  0.1800  0.2214
14382TIP3    H164561   2.798   4.164  15.852  0.2962  0.3133 -0.0134
14382TIP3    H264562   2.677   4.076  15.830  0.4600 -0.1126  0.7332
14383TIP3   OH264563   1.702   6.455  12.069 -0.6709 -0.3771 -0.0419
14383TIP3    H164564   1.634   6.496  12.016  0.9584  2.7232  0.0187
14383TIP3    H264565   1.686   6.487  12.158 -0.3849 -1.3622  0.3740
14384TIP3   OH264566   1.751   2.126   1.153 -0.2574 -0.3131  0.4408
14384TIP3    H164567   1.825   2.120   1.214 -0.1519  1.8183  0.6225
14384TIP3    H264568   1.676   2.096   1.204  0.3884 -2.1580  0.3708
14385TIP3   OH264569   0.251   2.229   3.042 -0.2231 -0.2003  0.5141
14385TIP3    H164570   0.233   2.141   3.075 -0.5182  0.1184  1.2080
14385TIP3    H264571   0.345   2.229   3.023 -0.4230 -1.0181 -0.5646
14386TIP3   OH264572   2.025   1.990   4.797 -0.8215 -0.5187  0.5082
14386TIP3    H164573   2.082   2.056   4.758 -1.3623  0.5290  1.4405
14386TIP3    H264574   2.077   1.909   4.794 -0.5460 -0.3247 -1.6108
14387TIP3   OH264575   6.422   4.075  12.849 -0.2603 -0.9202 -0.3947
14387TIP3    H164576   6.444   4.140  12.781 -1.5177 -0.7284 -0.6396
14387TIP3    H264577   6.496   4.080  12.910 -0.3322  0.7854 -0.3803
14388TIP3   OH264578   3.719   5.805   2.976 -0.5178  0.1923 -0.4184
14388TIP3    H164579   3.799   5.753   2.968 -0.1339  0.7938 -0.5331
14388TIP3    H264580   3.748   5.889   3.011 -1.5647 -0.8597  3.5035
14389TIP3   OH264581   5.643   2.801  10.693 -0.2106 -0.3613  0.1981
14389TIP3    H164582   5.660   2.771  10.604 -0.1879 -1.9441  0.6992
14389TIP3    H264583   5.731   2.815  10.730 -0.2195  0.2603 -0.0085
14390TIP3   OH264584   1.417   4.895   4.198 -0.3535 -0.5094 -0.2904
14390TIP3    H164585   1.380   4.813   4.230 -0.5704  0.5451  2.3987
14390TIP3    H264586   1.483   4.919   4.263  0.5630  0.8742 -1.6495
14391TIP3   OH264587   6.574   0.706  12.866  0.0869 -0.4803  0.3291
14391TIP3    H164588   6.668   0.691  12.873  0.2885  0.4413 -0.2245
14391TIP3    H264589   6.565   0.802  12.861 -1.0132 -0.4183  2.3886
14392TIP3   OH264590   1.115   1.083  16.206 -0.0086 -0.3014 -0.2330
14392TIP3    H164591   1.057   1.155  16.184 -0.8943 -0.9635 -0.1195
14392TIP3    H264592   1.203   1.114  16.182 -0.3780  0.7824 -0.2168
14393TIP3   OH264593   3.569   3.649  11.656 -0.3038 -0.0154  0.0671
14393TIP3    H164594   3.564   3.731  11.608 -0.0848 -0.4149 -0.6538
14393TIP3    H264595   3.489   3.647  11.709 -0.9324  0.0903 -0.8523
14394TIP3   OH264596   3.702   2.926   3.632 -0.2280 -0.5771 -0.5941
14394TIP3    H164597   3.746   2.842   3.646 -0.0925 -0.2511  1.2600
14394TIP3    H264598   3.766   2.991   3.660 -0.2618  0.1888 -2.1952
14395TIP3   OH264599   6.690   1.259   4.508  0.2563 -0.1737 -0.6257
14395TIP3    H164600   6.712   1.177   4.463 -0.1782  0.1597 -1.4688
14395TIP3    H264601   6.705   1.327   4.442  0.3194  0.3952 -0.0271
14396TIP3   OH264602   0.922   6.227  15.306  0.4307  0.0373 -0.2754
14396TIP3    H164603   0.851   6.243  15.368 -0.0575 -2.8529  0.0548
14396TIP3    H264604   0.892   6.267  15.224 -0.7086  0.4804  0.3355
14397TIP3   OH264605   4.380   2.827  15.872 -0.0937 -0.1881 -0.1133
14397TIP3    H164606   4.457   2.809  15.818  0.0214  0.1224 -0.0581
14397TIP3    H264607   4.408   2.897  15.932  1.0736 -3.1478  3.1200
14398TIP3   OH264608   4.487   2.040   1.071 -0.1536 -0.0971 -0.2349
14398TIP3    H164609   4.449   2.106   1.013  0.8626 -0.3692 -1.2431
14398TIP3    H264610   4.443   1.958   1.046  0.7560 -0.3348 -1.1058
14399TIP3   OH264611   0.953   1.419  13.547  0.1736  0.1516 -0.0573
14399TIP3    H164612   0.917   1.375  13.470  0.9401  0.3741 -0.5531
14399TIP3    H264613   1.043   1.386  13.553  0.4449  0.9208  0.1318
14400TIP3   OH264614   2.892   2.259   4.192 -0.0407  0.2733  0.4658
14400TIP3    H164615   2.958   2.191   4.186  0.2634  0.6963 -3.4553
14400TIP3    H264616   2.809   2.216   4.171  0.3468  1.1208 -3.5818
14401TIP3   OH264617   6.469   6.560   5.148 -0.2917 -0.0330 -0.1353
14401TIP3    H164618   6.475   6.500   5.222 -1.5401  0.8790  0.7563
14401TIP3    H264619   6.424   6.510   5.080  1.4078 -1.0825 -0.5547
14402TIP3   OH264620   5.065   6.393   3.113  0.3921  0.4906 -0.0991
14402TIP3    H164621   5.046   6.462   3.176 -0.1998  0.3293 -0.0943
14402TIP3    H264622   5.000   6.325   3.132 -0.2304  0.7209 -1.3013
14403TIP3   OH264623   4.006   1.889  13.329 -0.5915 -0.0951 -0.1718
14403TIP3    H164624   3.941   1.852  13.389  0.7896 -1.4241  0.5859
14403TIP3    H264625   4.090   1.879  13.375  0.1035  2.3013 -0.7568
14404TIP3   OH264626   0.737   1.323   1.079 -0.2270  0.8113  0.2077
14404TIP3    H164627   0.642   1.333   1.074 -0.3394  0.6104  1.6120
14404TIP3    H264628   0.753   1.232   1.052 -0.5308  0.5404  0.9261
14405TIP3   OH264629   4.139   2.070   3.777 -0.1421  0.7451 -0.0595
14405TIP3    H164630   4.077   2.135   3.744  1.3781  1.4762 -1.6017
14405TIP3    H264631   4.120   1.991   3.726 -1.3563  0.2069  1.1561
14406TIP3   OH264632   4.414   4.585  11.854 -0.4551  0.1689  0.3210
14406TIP3    H164633   4.434   4.660  11.797 -0.4984  0.6475  0.9185
14406TIP3    H264634   4.322   4.564  11.834 -0.6854  0.7769  0.6949
14407TIP3   OH264635   4.893   1.965  13.465  0.1345 -0.1210 -0.5414
14407TIP3    H164636   4.856   1.903  13.527  2.3611  1.0740  2.1760
14407TIP3    H264637   4.820   1.986  13.406 -1.9857 -1.6411  1.3670
14408TIP3   OH264638   1.436   3.985   3.141 -0.2515  0.0076 -0.2896
14408TIP3    H164639   1.448   4.079   3.150  0.5657 -0.0164 -0.9897
14408TIP3    H264640   1.359   3.975   3.085  1.2063  0.3379 -2.4740
14409TIP3   OH264641   6.218   2.435   3.906  0.4542 -0.5122 -0.4461
14409TIP3    H164642   6.170   2.358   3.874  2.0807 -1.2230 -1.3146
14409TIP3    H264643   6.175   2.509   3.864  0.9387 -1.2357 -2.3322
14410TIP3   OH264644   6.111   4.631  11.562 -0.2159 -0.0939 -0.1902
14410TIP3    H164645   6.164   4.630  11.482 -0.1790  1.4552 -0.2160
14410TIP3    H264646   6.047   4.700  11.547  1.3043  1.9355  2.0273
14411TIP3   OH264647   3.746   3.188  12.995 -0.4060 -0.4599  0.0539
14411TIP3    H164648   3.700   3.239  12.929 -2.5042 -1.2889  0.7756
14411TIP3    H264649   3.749   3.246  13.072 -0.4437 -0.4735  0.0657
14412TIP3   OH264650   5.252   1.335   0.725 -0.0476 -0.2015  0.5703
14412TIP3    H164651   5.185   1.399   0.703  0.8112  0.3133 -0.6504
14412TIP3    H264652   5.202   1.258   0.753 -1.1900 -0.0668 -0.9429
14413TIP3   OH264653   1.647   3.320  11.280 -0.6041  0.2718  0.1723
14413TIP3    H164654   1.553   3.323  11.263 -0.6684 -0.2492  0.4277
14413TIP3    H264655   1.685   3.372  11.210 -0.8715 -1.7137 -1.5452
14414TIP3   OH264656   4.088   3.953  13.258  0.4013 -0.5081  0.6926
14414TIP3    H164657   4.089   3.992  13.171  2.9345 -1.2676  0.3120
14414TIP3    H264658   4.102   4.027  13.318  1.9764 -0.3629  0.1895
14415TIP3   OH264659   4.550   3.958   5.174  0.1053 -0.3122 -0.4093
14415TIP3    H164660   4.581   3.973   5.085  1.3271  0.4174  0.1239
14415TIP3    H264661   4.627   3.927   5.222 -0.2767  0.3297  0.6484
14416TIP3   OH264662   2.482   5.061  11.560 -0.0681 -0.3368 -0.5073
14416TIP3    H164663   2.449   5.130  11.618 -1.7609 -0.8259 -0.8318
14416TIP3    H264664   2.552   5.103  11.511  0.8452  0.3297  1.2818
14417TIP3   OH264665   0.248   5.595  17.148 -0.2132 -0.6743  0.4642
14417TIP3    H164666   0.320   5.644  17.189 -0.7122 -2.0873  3.3204
14417TIP3    H264667   0.212   5.654  17.082  2.7501  0.5323 -0.1936
14418TIP3   OH264668   4.568   3.726   0.314 -0.3540  0.3335 -0.3687
14418TIP3    H164669   4.516   3.763   0.243 -0.1000  0.9018 -0.2624
14418TIP3    H264670   4.504   3.705   0.382 -0.4830  0.7043 -0.3777
14419TIP3   OH264671   1.704   3.677   4.681  0.5295  0.5080  0.9267
14419TIP3    H164672   1.635   3.640   4.626  3.4137 -1.6211 -1.5697
14419TIP3    H264673   1.728   3.606   4.741  0.8578  1.1008  1.5198
14420TIP3   OH264674   2.769   3.977   5.941 -0.0417 -0.1237 -0.6137
14420TIP3    H164675   2.841   3.937   5.988  0.8938  2.3108  0.1955
14420TIP3    H264676   2.737   4.046   5.999  0.9157  2.7881 -3.2437
14421TIP3   OH264677   4.974   5.226  12.030  0.5264  0.0875  0.4766
14421TIP3    H164678   5.013   5.310  12.056 -0.0124  0.6056 -0.3289
14421TIP3    H264679   4.944   5.187  12.112  0.7396  0.7087  0.8592
14422TIP3   OH264680   2.843   0.330   2.550 -0.1534  0.4542 -0.2931
14422TIP3    H164681   2.902   0.405   2.560 -0.6640  1.0725 -1.6553
14422TIP3    H264682   2.756   0.366   2.569 -0.3171  0.0171 -0.2065
14423TIP3   OH264683   2.397   4.676  13.077  0.3624 -0.0164  0.1233
14423TIP3    H164684   2.409   4.632  12.993 -0.5082  0.5037 -0.2809
14423TIP3    H264685   2.321   4.733  13.064  0.8425  0.8375  0.9572
14424TIP3   OH264686   0.012   0.595   6.577 -0.0795 -0.0094 -0.2324
14424TIP3    H164687   0.062   0.675   6.589 -1.5607  1.0920 -1.0693
14424TIP3    H264688   0.054   0.531   6.635  1.7391  1.0686 -0.2871
14425TIP3   OH264689   0.841   5.291   1.443 -0.8390  0.3023 -0.2457
14425TIP3    H164690   0.805   5.207   1.469  1.7621 -0.7602  0.2095
14425TIP3    H264691   0.855   5.283   1.348  1.1119 -0.5657  0.0609
14426TIP3   OH264692   4.527   6.500  12.798 -0.0531  0.1562  0.2392
14426TIP3    H164693   4.568   6.426  12.843  0.4884  0.7675  0.7662
14426TIP3    H264694   4.590   6.525  12.730 -0.1232  0.2909  0.2228
14427TIP3   OH264695   0.165   6.624  12.287  0.4181 -0.6675 -0.6383
14427TIP3    H164696   0.250   6.630  12.243  0.8085  0.6993  0.2542
14427TIP3    H264697   0.183   6.647  12.378 -0.6580 -1.8805 -0.0838
14428TIP3   OH264698   3.430   2.095   2.886 -0.4611  0.7155 -0.2197
14428TIP3    H164699   3.487   2.118   2.959  0.8001  1.2803 -1.3306
14428TIP3    H264700   3.468   2.141   2.811 -1.4060 -0.2568 -1.3359
14429TIP3   OH264701   4.253   1.355  15.550  0.1534  0.8811 -0.4068
14429TIP3    H164702   4.189   1.424  15.528  0.3886  1.3527  0.3476
14429TIP3    H264703   4.321   1.400  15.599  1.3467  0.4781 -1.6164
14430TIP3   OH264704   0.609   5.354  12.786 -0.2607 -0.0456  0.1113
14430TIP3    H164705   0.653   5.421  12.839  0.5343  0.1057 -0.7091
14430TIP3    H264706   0.604   5.278  12.844 -0.4799  0.4748  0.7977
14431TIP3   OH264707   3.894   4.286  16.762 -0.5741  0.2058  0.3138
14431TIP3    H164708   3.866   4.194  16.759 -0.3939  0.1192  1.0158
14431TIP3    H264709   3.982   4.283  16.798 -0.9466  0.7299  1.2999
14432TIP3   OH264710   1.354   0.608   3.299 -0.1746 -0.0559 -0.2954
14432TIP3    H164711   1.444   0.626   3.271 -0.4640  2.3756  0.0697
14432TIP3    H264712   1.334   0.678   3.362 -2.5416 -0.1022 -0.8878
14433TIP3   OH264713   2.092   5.067   0.931  0.3566 -0.0106  0.0855
14433TIP3    H164714   2.067   5.159   0.925 -1.0717 -0.3119  0.9867
14433TIP3    H264715   2.166   5.067   0.993 -0.4595  0.4059  1.0899
14434TIP3   OH264716   2.829   6.328   1.843 -0.5061 -0.0950  0.5391
14434TIP3    H164717   2.889   6.348   1.915 -0.8565 -0.9138  1.0777
14434TIP3    H264718   2.795   6.413   1.815  0.4635  0.3228  0.6116
14435TIP3   OH264719   6.276   5.274  13.639  0.2808  0.2033 -0.0162
14435TIP3    H164720   6.293   5.227  13.557  0.1286  0.5875 -0.2643
14435TIP3    H264721   6.362   5.277  13.682 -0.4193 -5.0393  2.5687
14436TIP3   OH264722   4.405   1.520  15.750  0.1735  0.2766 -0.0774
14436TIP3    H164723   4.408   1.609  15.717  0.6122 -0.1447 -1.2305
14436TIP3    H264724   4.377   1.529  15.842  0.6429  1.6147 -0.0461
14437TIP3   OH264725   4.551   2.358   0.661  0.1520  0.1587 -0.2037
14437TIP3    H164726   4.582   2.289   0.603 -0.2791  0.4969 -0.8398
14437TIP3    H264727   4.586   2.334   0.747  2.4065  0.6651 -0.9340
14438TIP3   OH264728   1.111   0.368  10.928  0.4853  0.1982  0.0648
14438TIP3    H164729   1.195   0.322  10.937 -0.4673 -2.3362 -2.6327
14438TIP3    H264730   1.130   0.442  10.872  0.8705 -0.6502 -0.9494
14439TIP3   OH264731   0.059   4.702   3.920  0.4856  0.0901  0.4793
14439TIP3    H164732  -0.010   4.700   3.986  1.4109 -0.2627  1.4774
14439TIP3    H264733   0.060   4.613   3.884  0.4684  0.0682  0.5316
14440TIP3   OH264734   6.403   1.826   2.168  0.1049 -0.3586  0.5576
14440TIP3    H164735   6.367   1.806   2.081  1.3649 -1.0316  0.1637
14440TIP3    H264736   6.478   1.883   2.150  1.7421 -2.2514  0.9633
14441TIP3   OH264737   1.136   3.854  13.563 -0.1078  0.1725  0.1669
14441TIP3    H164738   1.045   3.842  13.590 -0.7785  0.7078 -1.6961
14441TIP3    H264739   1.158   3.943  13.590  0.1814 -0.2446  1.3834
14442TIP3   OH264740   0.223   6.414  15.146 -0.3740  0.3419 -0.1376
14442TIP3    H164741   0.275   6.338  15.173  0.1897  1.4799  2.3153
14442TIP3    H264742   0.284   6.468  15.096 -0.3682 -0.1720 -0.6908
14443TIP3   OH264743   0.957   6.444   1.147 -0.2532  0.1161 -0.0658
14443TIP3    H164744   0.959   6.350   1.165 -0.3869  0.2097  0.4588
14443TIP3    H264745   0.902   6.453   1.070 -0.2509 -0.2357 -0.1078
14444TIP3   OH264746   5.174   0.712  15.585 -0.1492 -0.2324  0.0030
14444TIP3    H164747   5.136   0.624  15.591 -0.0902 -0.2837 -0.3846
14444TIP3    H264748   5.228   0.720  15.664  0.2042 -0.7120 -0.1866
14445TIP3   OH264749   3.184   0.163  15.773 -0.1011 -0.0184  0.3435
14445TIP3    H164750   3.129   0.148  15.850 -0.4096  1.0986  0.3642
14445TIP3    H264751   3.162   0.252  15.745  1.1595  0.1752 -0.0950
14446TIP3   OH264752   6.237   5.250  14.324  0.0767  0.1044  0.1885
14446TIP3    H164753   6.326   5.267  14.358  0.1113  1.2405 -0.4052
14446TIP3    H264754   6.245   5.262  14.229 -0.8796  1.0309  0.2088
14447TIP3   OH264755   0.405   3.072   4.546  0.0573 -0.1784 -0.2295
14447TIP3    H164756   0.476   3.121   4.504 -0.2718 -1.1986 -2.0824
14447TIP3    H264757   0.398   2.992   4.495 -0.2262 -1.6432  1.9811
14448TIP3   OH264758   0.874   1.623   1.797  0.3421  0.4252 -0.9275
14448TIP3    H164759   0.932   1.588   1.864 -2.1081 -2.9662 -0.2885
14448TIP3    H264760   0.913   1.597   1.714  1.0589  0.5483 -0.6316
14449TIP3   OH264761   6.450   3.143  16.288 -0.5337  0.1853  0.0017
14449TIP3    H164762   6.512   3.083  16.330 -0.4224 -0.5741 -1.1948
14449TIP3    H264763   6.427   3.206  16.357 -0.0443 -0.7552  1.0651
14450TIP3   OH264764   0.040   4.823  14.229 -0.3313  0.7218  0.1836
14450TIP3    H164765  -0.046   4.780  14.223  0.3175 -0.4025 -2.1687
14450TIP3    H264766   0.100   4.753  14.256 -0.0233  1.3750  1.2718
14451TIP3   OH264767   6.108   3.052   2.423 -0.4434  0.0267  0.1139
14451TIP3    H164768   6.175   3.108   2.462 -0.7861  0.5283 -0.0129
14451TIP3    H264769   6.039   3.112   2.394 -0.9211 -0.4725  0.1803
14452TIP3   OH264770   5.808   3.812   4.065 -0.0431 -0.3106 -0.0022
14452TIP3    H164771   5.730   3.862   4.041 -0.1438 -0.4573  0.0175
14452TIP3    H264772   5.832   3.844   4.152 -2.1695 -2.7157  1.6125
14453TIP3   OH264773   6.455   2.984  17.309 -0.3524  0.7504 -0.5212
14453TIP3    H164774   6.477   3.013  17.398  0.0220 -0.9423 -0.0294
14453TIP3    H264775   6.473   3.060  17.254  1.1951  1.2558  0.6190
14454TIP3   OH264776   3.289   5.476   0.019 -0.0486  0.6836 -0.1352
14454TIP3    H164777   3.262   5.551  -0.034 -1.8048 -0.0360 -0.3288
14454TIP3    H264778   3.269   5.501   0.109 -0.3282  0.5882 -0.1687
14455TIP3   OH264779   2.941   2.705   0.047 -0.1889  0.8177 -0.0940
14455TIP3    H164780   2.870   2.757   0.086 -0.6671 -0.5722  0.9885
14455TIP3    H264781   2.961   2.639   0.113  1.3762  0.4922 -0.8448
14456TIP3   OH264782   1.628   2.242  14.847 -0.4122 -0.1639  0.2099
14456TIP3    H164783   1.688   2.306  14.884 -1.5574  1.6734 -0.9376
14456TIP3    H264784   1.669   2.158  14.864  1.3694  0.8769  1.4050
14457TIP3   OH264785   3.259   4.396   5.845  0.2684 -0.7585 -0.0092
14457TIP3    H164786   3.298   4.348   5.918  2.1730  1.9178  0.9170
14457TIP3    H264787   3.326   4.394   5.776 -1.5662 -3.3983 -1.9327
14458TIP3   OH264788   6.386   5.488   1.007 -0.2109 -0.7769 -0.8509
14458TIP3    H164789   6.446   5.548   1.053  0.0789 -1.0235 -0.9040
14458TIP3    H264790   6.366   5.533   0.925 -0.3043 -0.5767 -0.7193
14459TIP3   OH264791   0.687   5.308   3.937 -0.4127 -0.1611 -0.5203
14459TIP3    H164792   0.698   5.225   3.892  3.7044 -0.3385  0.4039
14459TIP3    H264793   0.730   5.296   4.022  1.5783  3.1423 -0.8472
14460TIP3   OH264794   3.566   0.091  11.666 -0.1383  0.4871  0.7094
14460TIP3    H164795   3.546   0.140  11.587  1.5311  0.0632 -0.0279
14460TIP3    H264796   3.481   0.062  11.700 -0.8700  0.4996 -1.0394
14461TIP3   OH264797   2.203   5.854   6.232  0.4668  0.0491  0.5208
14461TIP3    H164798   2.249   5.936   6.214  1.2452 -0.4518  0.1914
14461TIP3    H264799   2.161   5.869   6.317  3.0439 -0.1965  1.9541
14462TIP3   OH264800   5.175   5.348   1.816 -0.0289 -0.5481  0.5013
14462TIP3    H164801   5.214   5.292   1.749  1.5565  0.2206  0.7195
14462TIP3    H264802   5.140   5.422   1.767  0.6991 -0.2224  0.4511
14463TIP3   OH264803   5.863   3.312  12.425 -0.3812  0.0801 -0.5546
14463TIP3    H164804   5.884   3.269  12.508 -0.6234 -0.4234 -0.7477
14463TIP3    H264805   5.865   3.406  12.445  1.8482  0.0775 -0.5303
14464TIP3   OH264806   5.598   1.609   0.939 -0.0206 -0.2525  0.5962
14464TIP3    H164807   5.674   1.560   0.906 -0.5684 -1.1023  0.5541
14464TIP3    H264808   5.632   1.658   1.013 -0.1099 -3.4229  2.9566
14465TIP3   OH264809   0.761   6.201   0.121  0.0573 -0.3765  0.0505
14465TIP3    H164810   0.678   6.174   0.160  0.8541 -2.2647  0.5382
14465TIP3    H264811   0.746   6.196   0.026 -0.3364 -0.8741  0.1384
14466TIP3   OH264812   4.263   6.664  12.796  0.5199  0.5865 -0.4167
14466TIP3    H164813   4.292   6.754  12.817 -0.5240  1.0219 -0.8077
14466TIP3    H264814   4.341   6.610  12.814  1.6250  1.7332 -1.5430
14467TIP3   OH264815   1.661   6.318  15.347  0.4211 -0.8243 -0.4892
14467TIP3    H164816   1.722   6.279  15.284  0.6530 -1.0937 -0.1076
14467TIP3    H264817   1.579   6.269  15.335  0.5523 -1.0755 -0.3861
14468TIP3   OH264818   4.866   2.879  16.794 -0.1572 -0.2002 -0.5363
14468TIP3    H164819   4.899   2.848  16.709 -2.0581 -0.5096 -1.2108
14468TIP3    H264820   4.880   2.806  16.854 -0.1093 -0.5184 -0.9320
14469TIP3   OH264821   3.143   6.477  12.223  0.4310  0.5987 -0.2463
14469TIP3    H164822   3.082   6.549  12.206 -0.7027  0.3273  2.2985
14469TIP3    H264823   3.209   6.514  12.281  0.1523 -0.2496  0.6341
14470TIP3   OH264824   4.998   1.166  15.450 -0.3119 -0.5062 -0.1740
14470TIP3    H164825   5.027   1.088  15.402 -1.4642  0.4898 -2.6787
14470TIP3    H264826   5.048   1.238  15.410 -2.0935  0.5049 -0.6792
14471TIP3   OH264827   2.737   5.281   2.873 -0.2943  0.6225 -0.0822
14471TIP3    H164828   2.718   5.336   2.797 -2.3233  0.5411  0.3063
14471TIP3    H264829   2.738   5.341   2.947 -0.7730  0.3949  0.1181
14472TIP3   OH264830   5.889   4.681   1.682 -0.3795 -0.6245 -0.3359
14472TIP3    H164831   5.798   4.705   1.700  0.0075 -0.0067  0.9099
14472TIP3    H264832   5.939   4.758   1.709  0.6502 -1.6225  0.6904
14473TIP3   OH264833   3.770   6.305  13.069  0.4029  0.3334  0.9172
14473TIP3    H164834   3.784   6.360  12.992  0.5031 -0.3078  0.4686
14473TIP3    H264835   3.827   6.343  13.136  0.3772  0.8464  0.6558
14474TIP3   OH264836   5.350   2.561   1.652 -0.7383  0.4051  0.2949
14474TIP3    H164837   5.325   2.512   1.731  0.5749 -0.6480  0.1090
14474TIP3    H264838   5.414   2.625   1.683  0.3721 -0.5215  0.0310
14475TIP3   OH264839   4.809   5.684  16.341 -0.5121  0.2514  0.1344
14475TIP3    H164840   4.764   5.606  16.307  0.4604 -0.2000 -0.1361
14475TIP3    H264841   4.830   5.735  16.263  4.1572 -2.0491 -0.4850
14476TIP3   OH264842   5.443   5.242  14.048  0.3973 -0.2785  0.0725
14476TIP3    H164843   5.524   5.289  14.027  1.2023 -2.3629 -2.0261
14476TIP3    H264844   5.413   5.208  13.963 -1.7847 -0.9544  1.0470
14477TIP3   OH264845   6.151   4.832  16.177  0.0994  0.5009 -0.7430
14477TIP3    H164846   6.120   4.828  16.267  0.6091 -0.8436 -0.5980
14477TIP3    H264847   6.123   4.918  16.145  1.1309  1.6034  1.1289
14478TIP3   OH264848   1.469   3.753  16.380 -0.0153 -0.3517  0.2354
14478TIP3    H164849   1.375   3.735  16.388  0.1562 -1.1637  0.4743
14478TIP3    H264850   1.483   3.829  16.436 -0.7041  0.4056 -0.5844
14479TIP3   OH264851   5.216   4.440   1.642 -0.4070 -0.0257  0.8311
14479TIP3    H164852   5.212   4.391   1.560 -0.1501  1.6872 -0.2616
14479TIP3    H264853   5.131   4.484   1.648 -0.5785 -0.4551  1.7076
14480TIP3   OH264854   5.875   1.983  10.725 -0.3250  0.3303 -0.0702
14480TIP3    H164855   5.822   1.911  10.759  0.3387 -0.7623 -1.2745
14480TIP3    H264856   5.922   2.016  10.802 -0.9247 -0.2625  0.5666
14481TIP3   OH264857   3.084   2.678   5.749  0.1192 -0.0420 -0.6057
14481TIP3    H164858   3.048   2.723   5.672  0.4282 -1.0572 -1.3640
14481TIP3    H264859   3.019   2.694   5.818 -0.9474 -0.3980 -1.4898
14482TIP3   OH264860   3.581   6.554  11.186 -0.0026  0.5233  0.4274
14482TIP3    H164861   3.651   6.489  11.176  0.6231  0.9885  1.5768
14482TIP3    H264862   3.549   6.569  11.097  0.6882 -0.4323  0.0024
14483TIP3   OH264863   4.079   2.192  17.045  0.0765  0.4669  0.4484
14483TIP3    H164864   4.082   2.198  16.950  1.2503  0.4459  0.4673
14483TIP3    H264865   4.060   2.100  17.063  0.1741  0.4023  0.2271
14484TIP3   OH264866   2.175   4.769  16.524  0.4795  0.2398 -0.4201
14484TIP3    H164867   2.199   4.859  16.501 -0.5889  1.1255  1.6406
14484TIP3    H264868   2.087   4.758  16.490  0.9384 -0.3681 -1.4455
14485TIP3   OH264869   4.415   5.457   2.070 -0.5820  0.5379  0.6071
14485TIP3    H164870   4.350   5.516   2.108 -1.0853  0.8062 -0.6280
14485TIP3    H264871   4.482   5.448   2.138 -0.1996  2.9792  0.6142
14486TIP3   OH264872   5.713   0.951   0.294  0.5700  0.0855 -0.6342
14486TIP3    H164873   5.652   0.948   0.221  1.4859  3.6107 -1.7558
14486TIP3    H264874   5.668   0.907   0.366 -1.0829 -1.9638 -2.7780
14487TIP3   OH264875   6.195   5.582   3.475  0.2822  0.1670 -0.7212
14487TIP3    H164876   6.147   5.538   3.406 -1.0530  0.6399 -0.1399
14487TIP3    H264877   6.135   5.651   3.505  1.3854  0.8646 -0.0464
14488TIP3   OH264878   5.488   1.189   2.043 -0.1280  0.0586  0.0043
14488TIP3    H164879   5.399   1.189   2.076  0.1507 -0.9983  0.8217
14488TIP3    H264880   5.529   1.265   2.084  0.2485 -1.2937  2.3228
14489TIP3   OH264881   6.565   2.168  11.564  0.5354 -0.6708  0.1354
14489TIP3    H164882   6.471   2.155  11.556  0.5947 -1.7966  1.0558
14489TIP3    H264883   6.590   2.122  11.644  1.1490  3.3905  2.6033
14490TIP3   OH264884   6.440   5.709  16.588 -0.3641  0.9030 -0.5236
14490TIP3    H164885   6.417   5.705  16.681 -0.8253  0.7930 -0.6436
14490TIP3    H264886   6.478   5.622  16.569  0.1673  1.0862 -0.3273
14491TIP3   OH264887   0.943   5.790  13.944  0.5961  0.0671  0.0936
14491TIP3    H164888   0.971   5.741  14.021  0.8510  0.7297  0.4267
14491TIP3    H264889   0.972   5.736  13.870  2.4221  0.5192  0.4204
14492TIP3   OH264890   3.318   2.468   0.381  0.6060 -0.2480 -0.2759
14492TIP3    H164891   3.227   2.484   0.406  0.4692  2.1982 -1.9396
14492TIP3    H264892   3.312   2.407   0.308  0.5718 -2.2750  1.3299
14493TIP3   OH264893   4.380   4.486  14.558 -0.0864 -0.1980 -0.6267
14493TIP3    H164894   4.431   4.565  14.574  0.5289 -0.3092 -1.9197
14493TIP3    H264895   4.413   4.452  14.474  0.0429 -2.1228  0.1498
14494TIP3   OH264896   5.866   3.138   2.773  0.1391  0.4880  0.1144
14494TIP3    H164897   5.941   3.194   2.796 -0.9608  1.9006  0.4103
14494TIP3    H264898   5.828   3.179   2.696  0.4866 -1.0479 -0.9225
14495TIP3   OH264899   3.180   3.142  15.420 -0.1529  0.3076  0.3248
14495TIP3    H164900   3.237   3.210  15.385 -1.4409  1.0828 -0.3538
14495TIP3    H264901   3.221   3.115  15.502  1.4897  0.3932 -0.4454
14496TIP3   OH264902   4.187   1.149  16.731 -0.0151 -0.7047 -0.0500
14496TIP3    H164903   4.239   1.071  16.747  3.3851  1.4037  0.0706
14496TIP3    H264904   4.225   1.188  16.653 -1.3863  0.9997  0.0776
14497TIP3   OH264905   3.608   4.695   4.477 -0.5673  0.4294  0.1224
14497TIP3    H164906   3.568   4.649   4.551  1.8115  1.3371  2.0900
14497TIP3    H264907   3.684   4.642   4.455 -0.0062  1.3453 -0.1786
14498TIP3   OH264908   6.012   5.416  17.215  0.1538 -0.1302  0.5521
14498TIP3    H164909   5.955   5.425  17.291 -0.8604 -1.6359  0.0153
14498TIP3    H264910   6.101   5.419  17.251 -0.2625  0.7944  1.5714
14499TIP3   OH264911   1.145   2.560   3.304 -0.0041  0.1725  0.1404
14499TIP3    H164912   1.085   2.615   3.353  2.0403  1.5726  1.1901
14499TIP3    H264913   1.209   2.621   3.266  0.0671 -1.1268 -2.0293
14500TIP3   OH264914   2.994   5.602   1.377 -0.0458 -0.2755  0.3879
14500TIP3    H164915   3.071   5.545   1.374 -0.6747 -1.1286  0.0081
14500TIP3    H264916   2.968   5.603   1.469 -1.9097 -3.2379  0.0037
14501TIP3   OH264917   2.268   1.128   5.822 -0.6898 -0.8644  0.3723
14501TIP3    H164918   2.224   1.081   5.893 -1.6615 -0.3763  0.1163
14501TIP3    H264919   2.362   1.117   5.840 -0.9178 -0.6513  1.8040
14502TIP3   OH264920   0.962   0.017   3.553 -0.2176 -0.8032 -0.5741
14502TIP3    H164921   0.973   0.012   3.648 -2.5647  0.5265 -0.1694
14502TIP3    H264922   1.003   0.099   3.528 -1.3534 -0.1649 -0.3843
14503TIP3   OH264923   3.492   2.411  15.824  0.2954 -0.5803 -0.6166
14503TIP3    H164924   3.415   2.433  15.876 -0.6358 -0.5495 -1.9450
14503TIP3    H264925   3.546   2.359  15.882  0.2338  1.0698  1.0082
14504TIP3   OH264926   2.388   3.526  12.130  0.3616  0.2741 -0.2439
14504TIP3    H164927   2.418   3.525  12.221  1.2994  1.3979 -0.5229
14504TIP3    H264928   2.293   3.528  12.136  0.3956 -0.3274  0.6954
14505TIP3   OH264929   1.343   1.451  12.804  0.2450  0.3291  0.3400
14505TIP3    H164930   1.335   1.546  12.819  1.5780  0.4922  0.1766
14505TIP3    H264931   1.411   1.423  12.867  2.2155  0.0998 -1.7592
14506TIP3   OH264932   6.571   3.206   5.805  0.9483  0.5626  0.1766
14506TIP3    H164933   6.617   3.236   5.727 -1.1617 -1.5575 -2.0820
14506TIP3    H264934   6.580   3.110   5.803 -1.0235  0.3009  1.2620
14507TIP3   OH264935   0.859   5.032   5.180  0.1669  0.2040 -0.6959
14507TIP3    H164936   0.840   4.939   5.181  1.0835  0.0033  0.5466
14507TIP3    H264937   0.951   5.038   5.206 -0.3785  1.5186  1.2048
14508TIP3   OH264938   0.667   5.003   4.910 -0.0214  0.2141 -0.8166
14508TIP3    H164939   0.601   5.020   4.978  0.1089 -1.6289 -0.1868
14508TIP3    H264940   0.746   5.047   4.943 -0.4002  0.7509 -0.6048
14509TIP3   OH264941   5.985   5.013   5.552 -0.5446  0.2661  0.1720
14509TIP3    H164942   5.928   5.090   5.546 -1.7742 -0.6965 -1.1151
14509TIP3    H264943   5.941   4.947   5.499 -1.4806 -2.6173  4.1014
14510TIP3   OH264944   1.626   5.962  14.175  0.5257 -0.1641 -0.9215
14510TIP3    H164945   1.616   5.867  14.163 -0.1595 -0.0764 -1.1175
14510TIP3    H264946   1.569   5.982  14.250 -1.0330  0.3959 -2.1932
14511TIP3   OH264947   1.425   4.337  13.403  0.2995 -0.1035 -0.7912
14511TIP3    H164948   1.473   4.322  13.484  3.2307  1.5977 -2.0391
14511TIP3    H264949   1.432   4.254  13.355 -0.5588 -0.7793  0.2120
14512TIP3   OH264950   5.883   2.700   4.865 -0.4833 -0.2876 -0.0331
14512TIP3    H164951   5.900   2.628   4.805 -1.2140 -0.6223  0.1406
14512TIP3    H264952   5.899   2.663   4.952  0.4299  0.1523  0.0008
14513TIP3   OH264953   2.612   3.111  11.532  0.0354 -0.1657  0.4367
14513TIP3    H164954   2.537   3.051  11.529  0.1955 -0.3396 -0.4324
14513TIP3    H264955   2.646   3.103  11.621 -0.6898 -0.4425  0.6945
14514TIP3   OH264956   1.886   0.799  15.188 -0.0272  0.7709 -0.2341
14514TIP3    H164957   1.864   0.891  15.202  3.6812  1.7117  0.7298
14514TIP3    H264958   1.893   0.762  15.276  3.1047  0.9836 -0.2834
14515TIP3   OH264959   4.079   1.402   2.188  0.2274 -0.2191 -0.6678
14515TIP3    H164960   4.112   1.348   2.260 -2.6698  1.1397  1.9453
14515TIP3    H264961   4.126   1.485   2.196 -0.6694  0.2238  0.2977
14516TIP3   OH264962   3.018   1.969  13.162 -0.3972 -0.2803 -0.3426
14516TIP3    H164963   3.005   1.877  13.186 -0.5102  0.0604  0.9717
14516TIP3    H264964   2.930   2.006  13.159 -0.3998 -0.3533 -1.5115
14517TIP3   OH264965   1.426   3.947  16.594  0.3015 -0.6916 -0.0107
14517TIP3    H164966   1.342   3.970  16.632  0.8830  0.6620  0.5110
14517TIP3    H264967   1.488   3.949  16.667  0.8144 -1.5937 -0.3970
14518TIP3   OH264968   2.094   1.286   4.479 -0.1614 -0.2822  0.1221
14518TIP3    H164969   2.070   1.377   4.496  1.9480  0.2236  0.7120
14518TIP3    H264970   2.132   1.287   4.392  1.9658 -0.0858  0.9867
14519TIP3   OH264971   3.564   1.260  15.899 -0.0749  0.5424 -0.1136
14519TIP3    H164972   3.586   1.220  15.984 -5.5146 -1.0202  0.9438
14519TIP3    H264973   3.558   1.354  15.918  0.1317  0.3723  0.8778
14520TIP3   OH264974   5.858   4.203   0.634  0.3635 -0.2541  0.1888
14520TIP3    H164975   5.874   4.273   0.697 -0.4480 -1.0283  1.2910
14520TIP3    H264976   5.946   4.172   0.611  0.7589  1.2743 -0.5380
14521TIP3   OH264977   0.607   0.856   5.478 -0.0242 -0.0726 -0.1829
14521TIP3    H164978   0.648   0.875   5.562  1.1432 -1.6969 -0.3157
14521TIP3    H264979   0.646   0.918   5.417  1.0440 -0.5108  0.0263
14522TIP3   OH264980   6.081   1.021  15.263  0.4312  0.5929 -0.8361
14522TIP3    H164981   6.022   1.084  15.221 -1.0055 -0.4074 -0.3908
14522TIP3    H264982   6.116   0.969  15.190  2.0116  2.1476 -1.2615
14523TIP3   OH264983   5.775   5.196   3.198 -0.4774 -0.5230  0.2284
14523TIP3    H164984   5.828   5.229   3.271  0.7499 -1.6105 -0.1244
14523TIP3    H264985   5.693   5.246   3.203  0.8531  1.8007  0.3322
14524TIP3   OH264986   5.510   5.810  16.529  0.4286  0.5569 -0.3282
14524TIP3    H164987   5.573   5.795  16.459  0.3959  0.5926 -0.3649
14524TIP3    H264988   5.562   5.842  16.603  0.2793  2.0733 -0.8467
14525TIP3   OH264989   2.991   1.062   2.717 -0.1665  0.3107  0.8908
14525TIP3    H164990   3.021   1.133   2.775 -0.5094  1.0605  0.1709
14525TIP3    H264991   3.045   1.071   2.639  0.3029 -0.7092  1.0878
14526TIP3   OH264992   4.785   2.984  15.996 -0.0698 -0.1556 -0.3454
14526TIP3    H164993   4.808   3.003  16.087 -2.2234  0.2524  0.1746
14526TIP3    H264994   4.865   3.003  15.947  0.9127  0.3702  1.3659
14527TIP3   OH264995   1.752   5.113  14.900  0.2428 -0.1406  0.5581
14527TIP3    H164996   1.755   5.151  14.988  0.3776  0.8680  0.1323
14527TIP3    H264997   1.706   5.179  14.847 -0.4824 -1.0486  0.0161
14528TIP3   OH264998   3.890   1.281  15.876  0.2216  0.2563 -0.0625
14528TIP3    H164999   3.890   1.199  15.825  0.1168  0.3881 -0.2762
14528TIP3    H265000   3.833   1.340  15.826 -0.4014  0.1779  0.5437
14529TIP3   OH265001   1.608   0.546  13.217 -0.0821  0.7255  0.5560
14529TIP3    H165002   1.555   0.589  13.149 -1.5058  1.8197  2.2470
14529TIP3    H265003   1.562   0.464  13.233  0.4305  0.3251  0.0015
14530TIP3   OH265004   5.914   6.566  13.339 -0.3194 -0.1927  0.4238
14530TIP3    H165005   5.984   6.563  13.404  1.0773  1.3319 -0.9327
14530TIP3    H265006   5.848   6.624  13.378 -1.0248 -1.8736  1.8350
14531TIP3   OH265007   6.287   5.200  11.548 -0.3719 -0.1049 -0.0062
14531TIP3    H165008   6.263   5.282  11.505 -0.5481  1.4497  2.8710
14531TIP3    H265009   6.207   5.172  11.593 -0.5133 -2.2978 -1.4495
14532TIP3   OH265010   3.067   3.774  14.075  0.7999 -0.2673  0.1909
14532TIP3    H165011   3.106   3.860  14.093 -1.6324  0.4318  3.0325
14532TIP3    H265012   2.986   3.793  14.029  0.8034 -1.1509 -0.2028
14533TIP3   OH265013   4.321   2.923   5.989  0.4992 -0.4080  0.0181
14533TIP3    H165014   4.365   2.919   6.074 -0.7187  0.8292  0.7476
14533TIP3    H265015   4.336   2.837   5.950  1.8177 -0.7053  1.0989
14534TIP3   OH265016   1.528   5.285  16.159  0.1907 -0.2109 -0.5609
14534TIP3    H165017   1.487   5.281  16.245  1.8862 -0.8352  0.2682
14534TIP3    H265018   1.555   5.376  16.149 -1.2539  0.1957 -1.0934
14535TIP3   OH265019   3.604   5.413   5.142  0.2480  0.0022  0.1633
14535TIP3    H165020   3.508   5.414   5.144  0.1685 -2.4121  0.0746
14535TIP3    H265021   3.629   5.374   5.226  1.1619  0.4061  0.0916
14536TIP3   OH265022   6.608   0.321   1.055 -0.1752 -0.2129 -0.1953
14536TIP3    H165023   6.656   0.364   1.126 -1.5779  0.3214  0.4721
14536TIP3    H265024   6.630   0.229   1.063 -0.6427 -0.2210  1.2340
14537TIP3   OH265025   1.146   4.504   6.356 -0.0839 -0.0193 -0.1893
14537TIP3    H165026   1.072   4.553   6.392 -0.0459 -0.1723  0.0940
14537TIP3    H265027   1.204   4.489   6.430  0.1021 -0.1397 -0.3569
14538TIP3   OH265028   1.854   5.550   2.648  0.2369  0.3515  0.6186
14538TIP3    H165029   1.767   5.530   2.615  0.0130 -1.1585  2.0189
14538TIP3    H265030   1.839   5.610   2.721  0.4937  1.1477  0.0331
14539TIP3   OH265031   6.243   6.312  13.067 -0.0828 -0.6329 -0.8538
14539TIP3    H165032   6.169   6.287  13.123  1.2322 -2.0991  0.3058
14539TIP3    H265033   6.252   6.407  13.082  0.6337 -1.0587  2.0159
14540TIP3   OH265034   6.251   2.752   1.249  0.1281  0.2168 -0.3735
14540TIP3    H165035   6.261   2.662   1.281  1.4548  0.4518 -0.0723
14540TIP3    H265036   6.215   2.799   1.324  0.7784  0.2209 -0.0529
14541TIP3   OH265037   5.188   5.371   0.127 -0.0080 -0.4759  0.1119
14541TIP3    H165038   5.272   5.418   0.128 -0.0077 -0.4598  1.1703
14541TIP3    H265039   5.187   5.325   0.044  0.5000  0.5179 -0.4608
14542TIP3   OH265040   2.454   6.500   6.044  0.3922  0.4838  0.4504
14542TIP3    H165041   2.431   6.429   6.104 -0.9725  1.7475  1.4982
14542TIP3    H265042   2.499   6.565   6.100  3.6912 -0.4224 -0.9025
14543TIP3   OH265043   0.056   6.526  13.000 -0.0395 -0.1345 -0.0525
14543TIP3    H165044   0.061   6.456  13.065 -0.1627 -1.0632 -1.0192
14543TIP3    H265045  -0.032   6.518  12.963  0.2360 -0.0033 -0.7529
14544TIP3   OH265046   3.649   2.426  11.515  0.2475  0.1449 -0.1418
14544TIP3    H165047   3.612   2.479  11.444 -0.2085 -0.8713 -0.6722
14544TIP3    H265048   3.724   2.382  11.476 -1.6737 -2.7018 -0.9049
14545TIP3   OH265049   3.561   1.023  16.848 -0.0990 -0.4016 -0.3414
14545TIP3    H165050   3.611   0.942  16.835 -1.7781 -1.3957 -0.9336
14545TIP3    H265051   3.600   1.086  16.787  0.8760 -0.9345 -0.2803
14546TIP3   OH265052   0.364   5.912   2.865 -0.0176 -0.8820 -0.7307
14546TIP3    H165053   0.398   5.852   2.799  0.9806 -1.9022  0.6494
14546TIP3    H265054   0.432   5.914   2.933 -1.7084 -1.1920  1.0631
14547TIP3   OH265055   6.666   1.574   5.747  0.3708 -0.4179  0.4190
14547TIP3    H165056   6.605   1.504   5.767 -0.1343  0.1940  1.0606
14547TIP3    H265057   6.640   1.604   5.660 -0.1172 -0.2963  0.6037
14548TIP3   OH265058   4.806   3.241   2.567 -0.2553  0.4179 -0.2788
14548TIP3    H165059   4.783   3.243   2.474  1.2653 -0.6639 -0.7132
14548TIP3    H265060   4.812   3.148   2.589  3.7328  0.4891 -0.2996
14549TIP3   OH265061   4.749   1.656   1.577 -0.5527 -0.0119  0.5882
14549TIP3    H165062   4.670   1.603   1.589  0.1741 -1.2942 -0.0864
14549TIP3    H265063   4.722   1.728   1.520 -1.6778  0.6982  1.9331
14550TIP3   OH265064   0.958   5.690   4.489  0.0842 -0.6323 -0.1107
14550TIP3    H165065   0.950   5.679   4.584 -1.1548 -0.3554 -0.1650
14550TIP3    H265066   0.951   5.785   4.476 -1.1181 -0.7660 -0.5709
14551TIP3   OH265067   2.330   5.398   4.666  0.4881 -0.2680 -0.3376
14551TIP3    H165068   2.400   5.448   4.623  0.1791 -0.7898 -1.4603
14551TIP3    H265069   2.342   5.418   4.759  1.5686  0.3673 -0.5854
14552TIP3   OH265070   1.995   2.101  14.108  0.1977  0.1951  0.1007
14552TIP3    H165071   2.028   2.164  14.044 -0.2527 -0.0236 -0.3547
14552TIP3    H265072   1.908   2.132  14.129 -0.1961 -0.4964 -0.4481
14553TIP3   OH265073   2.808   5.903  13.372  0.1076  0.3283  0.4093
14553TIP3    H165074   2.751   5.850  13.317  1.6462 -0.6948 -0.2816
14553TIP3    H265075   2.771   5.991  13.368  0.2733  0.3564 -2.5075
14554TIP3   OH265076   0.914   6.168  11.198 -0.1477 -0.0871 -0.3831
14554TIP3    H165077   0.846   6.103  11.216  0.0265 -0.0541  0.4440
14554TIP3    H265078   0.869   6.252  11.208 -0.0257 -0.0676  0.0257
14555TIP3   OH265079   3.161   4.997  14.845  0.1602  0.0649  0.6256
14555TIP3    H165080   3.148   4.908  14.813  2.6477  0.2393 -1.2334
14555TIP3    H265081   3.077   5.040  14.832 -0.6059 -1.5599 -0.1014
14556TIP3   OH265082   0.745   4.212   4.443  0.0941  0.0093  0.0947
14556TIP3    H165083   0.800   4.290   4.437  0.5466 -0.3437 -0.4146
14556TIP3    H265084   0.797   4.150   4.493 -0.0671 -0.1338  0.0843
14557TIP3   OH265085   2.912   3.475  17.182  0.3183  0.4164 -1.1490
14557TIP3    H165086   2.927   3.539  17.113 -1.1254  0.2748 -1.6435
14557TIP3    H265087   2.828   3.500  17.220  0.8363  0.1783  0.2267
14558TIP3   OH265088   5.668   0.938  16.035 -0.1325 -0.0480  0.7591
14558TIP3    H165089   5.695   0.901  16.119 -1.3230  1.2772  1.7790
14558TIP3    H265090   5.572   0.946  16.042 -0.0538  2.0738  0.1690
14559TIP3   OH265091   1.906   5.034  13.252  0.1963  0.2292 -0.3052
14559TIP3    H165092   1.864   5.103  13.201 -0.2186  0.6044  0.5275
14559TIP3    H265093   1.895   4.955  13.198 -3.3967 -0.1511  0.6849
14560TIP3   OH265094   5.907   0.262  12.506  0.1647  0.2134 -0.2805
14560TIP3    H165095   5.859   0.341  12.483  2.0154  1.7577  0.9207
14560TIP3    H265096   5.987   0.266  12.452 -0.1767 -1.4119 -0.9814
14561TIP3   OH265097   6.240   0.591  16.571  0.4331 -0.3415 -0.5460
14561TIP3    H165098   6.258   0.497  16.561 -0.3568 -0.3393 -2.3168
14561TIP3    H265099   6.316   0.634  16.531 -0.1269 -0.2671 -1.5614
14562TIP3   OH265100   3.402   4.600   3.109 -0.3962  0.1383  0.1992
14562TIP3    H165101   3.438   4.689   3.108 -1.5049  0.6355  1.5001
14562TIP3    H265102   3.475   4.544   3.085  0.3534  1.3922 -0.5355
14563TIP3   OH265103   4.225   0.400   5.604  0.4722  0.5095  0.0269
14563TIP3    H165104   4.256   0.464   5.668 -1.3544  1.6997 -0.1963
14563TIP3    H265105   4.129   0.405   5.610  0.2805 -0.9663 -1.2376
14564TIP3   OH265106   2.702   2.208   2.568 -0.2551 -0.4451  0.0029
14564TIP3    H165107   2.782   2.168   2.603 -0.7177 -0.6373  0.8480
14564TIP3    H265108   2.649   2.134   2.539 -1.8480 -0.6845  3.0865
14565TIP3   OH265109   2.255   4.587   4.072 -0.1160 -0.6668 -0.0878
14565TIP3    H165110   2.331   4.640   4.048 -1.0338  0.4062 -0.7015
14565TIP3    H265111   2.287   4.496   4.066  0.7433 -0.3052 -1.7251
14566TIP3   OH265112   4.506   0.458   0.164  0.0502  0.2256  0.1675
14566TIP3    H165113   4.456   0.439   0.085  0.3329 -1.9350  0.4392
14566TIP3    H265114   4.577   0.393   0.164  0.6327  0.8011  1.7064
14567TIP3   OH265115   2.364   6.468   0.119 -0.0468  0.1066 -1.0611
14567TIP3    H165116   2.340   6.492   0.029 -1.0356 -1.0623 -1.1329
14567TIP3    H265117   2.460   6.465   0.118  0.0378  1.8098 -1.6027
14568TIP3   OH265118   0.679   1.274   0.647  0.3012  0.0815  0.0991
14568TIP3    H165119   0.601   1.233   0.684  0.0452  0.2889 -0.2102
14568TIP3    H265120   0.749   1.248   0.707  0.0696 -0.4478  0.1499
14569TIP3   OH265121   2.572   3.689   1.962 -0.2112  0.7113  0.0997
14569TIP3    H165122   2.578   3.656   1.873  0.3227  1.3444 -0.1072
14569TIP3    H265123   2.546   3.613   2.014  2.2793 -0.4202 -0.1604
14570TIP3   OH265124   5.781   5.613  11.748 -0.1124  0.8193 -0.0562
14570TIP3    H165125   5.749   5.575  11.830  0.8678  0.6102  0.2432
14570TIP3    H265126   5.800   5.704  11.769  2.2927  0.2269  0.5982
14571TIP3   OH265127   5.066   6.103   6.061 -0.7269  0.1738  0.3172
14571TIP3    H165128   5.068   6.075   6.153  0.7435 -1.7270 -0.2174
14571TIP3    H265129   5.065   6.021   6.011  1.1181  1.0741 -1.3559
14572TIP3   OH265130   1.038   2.312   4.281 -0.3705  0.3337 -0.5626
14572TIP3    H165131   0.995   2.360   4.210 -2.3850  0.1580  0.4453
14572TIP3    H265132   0.982   2.327   4.357  2.4357  1.6641  1.4125
14573TIP3   OH265133   0.129   2.330  13.303  0.1039  0.2613 -0.5922
14573TIP3    H165134   0.129   2.318  13.398  0.1485 -1.4804 -0.7810
14573TIP3    H265135   0.215   2.300  13.274 -0.3414 -0.3671 -1.2987
14574TIP3   OH265136   4.532   1.458   1.651  0.1256  0.2285 -0.1275
14574TIP3    H165137   4.443   1.450   1.685 -0.2521  1.0951 -0.8575
14574TIP3    H265138   4.520   1.474   1.557  0.9867  1.6270 -0.0275
14575TIP3   OH265139   2.578   1.344  15.809 -0.2191  0.0473  0.4744
14575TIP3    H165140   2.637   1.401  15.860 -1.5952  0.8872  1.1860
14575TIP3    H265141   2.494   1.389  15.812 -0.6462 -0.5370 -1.5098
14576TIP3   OH265142   0.321   5.249  12.616  0.3340  0.2449 -0.5892
14576TIP3    H165143   0.337   5.314  12.684 -0.9891 -2.3880  2.5466
14576TIP3    H265144   0.229   5.224  12.628  0.5234 -1.5143 -2.2514
14577TIP3   OH265145   3.833   4.090   0.051  0.2334 -0.8189 -0.0005
14577TIP3    H165146   3.782   4.009   0.043 -0.3906 -0.5920  1.3903
14577TIP3    H265147   3.837   4.124  -0.039  0.0866 -2.1242 -0.5297
14578TIP3   OH265148   4.204   0.266  13.446 -0.3000  0.3712 -0.0487
14578TIP3    H165149   4.173   0.176  13.449  1.8655 -0.4029  0.3812
14578TIP3    H265150   4.234   0.284  13.535  1.0978  0.8148 -0.5803
14579TIP3   OH265151   5.784   2.962   0.682  0.0398 -0.5642 -0.5881
14579TIP3    H165152   5.846   3.015   0.732  0.3491 -0.7198 -0.8052
14579TIP3    H265153   5.803   2.984   0.590 -1.4999  0.8515 -0.6245
14580TIP3   OH265154   3.990   6.548   2.687 -0.2739 -0.1321 -0.5221
14580TIP3    H165155   3.999   6.463   2.730 -1.5208  0.2825  0.5962
14580TIP3    H265156   3.898   6.571   2.697  0.0558  1.3830 -0.7668
14581TIP3   OH265157   5.769   0.366  13.970  0.0740 -0.6535  0.1294
14581TIP3    H165158   5.781   0.459  13.954  0.8940 -0.6856  0.5170
14581TIP3    H265159   5.720   0.334  13.894  0.8068 -0.1306 -0.5702
14582TIP3   OH265160   1.184   4.347   0.275 -0.1152  0.0512  0.1854
14582TIP3    H165161   1.270   4.316   0.246 -1.5161 -4.2372 -0.0763
14582TIP3    H265162   1.183   4.331   0.369 -0.2663  1.1975  0.3914
14583TIP3   OH265163   4.093   4.119   3.407  0.3847 -0.1453 -0.4136
14583TIP3    H165164   4.052   4.189   3.357 -0.4632 -2.0007 -2.4238
14583TIP3    H265165   4.064   4.135   3.497  0.9924  2.5812 -0.6011
14584TIP3   OH265166   2.020   0.287  16.510  0.0296 -0.3665 -0.5803
14584TIP3    H165167   2.109   0.266  16.537  0.5176  1.8004 -0.3728
14584TIP3    H265168   1.974   0.203  16.512  0.8625 -0.9414  3.7675
14585TIP3   OH265169   2.329   4.969  14.680 -0.3939  0.5888  0.3448
14585TIP3    H165170   2.365   4.881  14.674  1.7988  1.4281  0.2086
14585TIP3    H265171   2.308   4.994  14.590 -0.0255  0.5764  0.2549
14586TIP3   OH265172   2.063   0.537  14.921 -0.2004  0.0622 -0.1962
14586TIP3    H165173   2.134   0.601  14.915  0.0056 -0.2642 -2.4966
14586TIP3    H265174   2.105   0.454  14.900 -1.0060 -0.3377 -0.2476
14587TIP3   OH265175   4.896   2.635   6.227  0.0088  0.1917  0.5777
14587TIP3    H165176   4.808   2.661   6.257 -1.7439 -2.0063 -2.1608
14587TIP3    H265177   4.929   2.579   6.297 -1.0894  0.4623  1.3530
14588TIP3   OH265178   5.023   0.814   4.292 -0.3162  0.2007  0.3604
14588TIP3    H165179   5.014   0.889   4.233 -0.5961  1.3003  1.7388
14588TIP3    H265180   5.082   0.754   4.245 -1.6324  0.3638 -1.6311
14589TIP3   OH265181   2.782   3.562  15.355 -0.3210  0.4242 -0.3797
14589TIP3    H165182   2.831   3.486  15.387  0.1605  0.6191 -0.6478
14589TIP3    H265183   2.840   3.636  15.372 -0.2810  0.5921 -1.2249
14590TIP3   OH265184   1.699   6.277  11.838 -0.2283 -0.0052 -0.6457
14590TIP3    H165185   1.723   6.297  11.928  0.3737  0.6900 -0.9437
14590TIP3    H265186   1.618   6.227  11.844 -1.3365  1.8281  0.2036
14591TIP3   OH265187   4.433   4.317  12.889  0.4116  0.5170  0.5689
14591TIP3    H165188   4.413   4.227  12.863  1.8922  0.2929  0.1408
14591TIP3    H265189   4.348   4.354  12.913 -0.2593 -0.9035  0.4846
14592TIP3   OH265190   4.843   0.582  16.267 -0.4474  0.1082  0.0503
14592TIP3    H165191   4.907   0.653  16.264 -0.5108  0.7696  5.0940
14592TIP3    H265192   4.896   0.503  16.281 -0.4269 -1.0502 -4.8633
14593TIP3   OH265193   5.636   0.917  13.279 -0.5760 -0.2635 -0.1891
14593TIP3    H165194   5.627   0.896  13.186 -0.8563  2.9338 -1.0099
14593TIP3    H265195   5.604   1.007  13.286 -2.4130 -1.0308  3.4158
14594TIP3   OH265196   2.787   0.242  10.806 -0.4427 -0.1385 -0.1426
14594TIP3    H165197   2.712   0.230  10.748 -0.0701 -0.2624 -0.6007
14594TIP3    H265198   2.786   0.335  10.829 -0.1668  0.0642 -0.9334
14595TIP3   OH265199   6.167   2.213  16.588  0.5092  0.2824  0.5300
14595TIP3    H165200   6.142   2.305  16.601  0.9812  0.6261 -0.8580
14595TIP3    H265201   6.262   2.212  16.597  0.5558  0.0228  0.0440
14596TIP3   OH265202   2.307   2.854  13.611  0.2011  0.2985 -0.2036
14596TIP3    H165203   2.360   2.792  13.560  1.6736  1.2404  0.0945
14596TIP3    H265204   2.287   2.808  13.692 -0.0653 -0.3333 -0.6196
14597TIP3   OH265205   6.575   4.489  12.481  0.0197  0.2929 -0.4873
14597TIP3    H165206   6.537   4.402  12.494 -0.1480  0.6696  1.8812
14597TIP3    H265207   6.625   4.480  12.399  3.1050 -3.2186  1.4499
14598TIP3   OH265208   3.832   6.451  16.393  0.2506 -0.1458  0.3681
14598TIP3    H165209   3.894   6.466  16.322 -0.5221  2.5100  0.1562
14598TIP3    H265210   3.748   6.438  16.350 -0.2622  1.6785  0.7138
14599TIP3   OH265211   0.177   0.142  15.200 -0.0033 -0.5964 -0.1676
14599TIP3    H165212   0.260   0.097  15.182  0.0663 -1.3585  1.7727
14599TIP3    H265213   0.139   0.092  15.272 -1.3509  0.7519  0.0940
14600TIP3   OH265214   2.610   4.088  12.184  0.0456 -0.0872 -0.0253
14600TIP3    H165215   2.562   4.171  12.178 -0.2610 -0.3521 -1.6450
14600TIP3    H265216   2.587   4.054  12.271 -0.3638  1.1882  0.3936
14601TIP3   OH265217   4.659   4.537  10.757 -0.3462 -0.5221 -0.5775
14601TIP3    H165218   4.720   4.496  10.696  0.4501 -0.0083 -0.1309
14601TIP3    H265219   4.685   4.628  10.760 -1.0134 -0.3360 -0.2261
14602TIP3   OH265220   6.333   4.003  16.578 -0.0511 -0.0662  0.0653
14602TIP3    H165221   6.359   3.917  16.546 -1.4233 -0.2145 -0.7346
14602TIP3    H265222   6.397   4.024  16.646 -0.5580 -2.3860  1.3410
14603TIP3   OH265223   6.691   5.806   1.306 -0.1610  0.3496  0.5450
14603TIP3    H165224   6.675   5.714   1.283  0.7859  0.0304  1.1340
14603TIP3    H265225   6.675   5.854   1.224 -0.4544 -0.3571  0.1799
14604TIP3   OH265226   6.377   0.587   1.015  0.1950  0.0833  0.5038
14604TIP3    H165227   6.411   0.634   1.092  1.3993  1.8248 -1.0196
14604TIP3    H265228   6.413   0.499   1.023  0.1470  0.1680  2.0081
14605TIP3   OH265229   1.373   1.390   1.931 -0.6106  0.1300  0.5296
14605TIP3    H165230   1.455   1.433   1.905 -0.3857 -1.3659 -1.5381
14605TIP3    H265231   1.398   1.331   2.002  0.9773 -2.7776 -2.1872
14606TIP3   OH265232   3.680   3.924  12.384  0.2306 -0.1992 -0.6964
14606TIP3    H165233   3.663   4.018  12.394  2.5786  0.0721  1.8611
14606TIP3    H265234   3.771   3.919  12.354  1.5572 -1.5427  2.9794
14607TIP3   OH265235   5.177   3.607   3.790 -0.7850  0.1340  0.5098
14607TIP3    H165236   5.242   3.613   3.859  0.0152 -2.8655  0.1928
14607TIP3    H265237   5.228   3.595   3.710 -1.6852 -0.8678  0.0542
14608TIP3   OH265238   1.697   2.304  10.520 -0.0546 -0.5438  0.0775
14608TIP3    H165239   1.632   2.361  10.479 -0.2368  0.2491  1.3750
14608TIP3    H265240   1.763   2.289  10.453 -0.7781 -0.0378 -0.7617
14609TIP3   OH265241   4.314   4.926  17.349 -0.0576 -0.2676  0.1111
14609TIP3    H165242   4.385   4.909  17.287  0.2559  1.2986 -0.0102
14609TIP3    H265243   4.264   4.997  17.309 -1.9867 -1.6232 -0.0088
14610TIP3   OH265244   1.400   5.187  15.082 -0.1710 -0.0972  0.5296
14610TIP3    H165245   1.471   5.124  15.096  0.2077  0.0307 -0.7163
14610TIP3    H265246   1.329   5.135  15.043 -0.0093  0.1559 -0.1140
14611TIP3   OH265247   1.032   5.092  14.959  0.4732  0.0239  0.0446
14611TIP3    H165248   0.937   5.086  14.951  0.6273 -0.2176 -2.3234
14611TIP3    H265249   1.048   5.184  14.983 -0.4344 -0.7646  4.4565
14612TIP3   OH265250   5.332   2.638   2.831  0.0195 -0.2109 -0.6483
14612TIP3    H165251   5.347   2.691   2.909  1.0573 -1.8676  0.3129
14612TIP3    H265252   5.410   2.651   2.777 -0.8018  1.1282 -1.5844
14613TIP3   OH265253   2.526   6.262  12.901 -0.2702 -0.0826  0.2997
14613TIP3    H165254   2.577   6.324  12.848 -1.1151 -0.2674 -0.7705
14613TIP3    H265255   2.491   6.316  12.972  0.9715  0.1482  0.7607
14614TIP3   OH265256   5.936   6.415  13.701 -0.8514  0.3524  0.4947
14614TIP3    H165257   5.973   6.502  13.717 -0.6501  0.6649 -1.4400
14614TIP3    H265258   5.846   6.433  13.672 -1.1312 -0.1495  1.0364
14615TIP3   OH265259   0.193   3.614   0.761 -0.2011 -0.2850 -0.2682
14615TIP3    H165260   0.105   3.603   0.797 -0.5695 -2.1928 -1.6094
14615TIP3    H265261   0.194   3.558   0.683  1.0104  2.4772 -2.4040
14616TIP3   OH265262   2.389   2.003   6.671  0.2408 -0.3544  0.1148
14616TIP3    H165263   2.379   2.093   6.702  2.0459 -0.1939  0.3303
14616TIP3    H265264   2.303   1.979   6.637  0.0173  1.8406 -1.0044
14617TIP3   OH265265   2.436   4.206  12.577  0.0068  0.1743  0.1665
14617TIP3    H165266   2.373   4.143  12.613 -1.0710  1.6314  1.0052
14617TIP3    H265267   2.504   4.212  12.644  1.6277 -2.1173 -1.1685
14618TIP3   OH265268   2.906   5.984   2.334 -0.2082 -0.1288 -0.1782
14618TIP3    H165269   2.976   5.940   2.285  0.1780  0.6493 -0.3481
14618TIP3    H265270   2.826   5.939   2.308 -0.0112  0.2549 -1.5335
14619TIP3   OH265271   1.043   6.013  14.101 -0.1249  0.3442  0.3215
14619TIP3    H165272   1.136   5.996  14.086 -0.4240 -0.7235 -0.5048
14619TIP3    H265273   1.005   5.926  14.113 -1.2108  0.6725 -0.5752
14620TIP3   OH265274   0.246   4.409   4.815  0.2251  0.5115  0.1336
14620TIP3    H165275   0.337   4.401   4.787  0.1109 -0.1208 -0.0608
14620TIP3    H265276   0.230   4.503   4.815  0.3252  0.5592 -1.6213
14621TIP3   OH265277   5.716   4.549  13.453  0.0464  0.1471 -0.0591
14621TIP3    H165278   5.769   4.540  13.532  0.8979  0.3203 -0.6035
14621TIP3    H265279   5.732   4.467  13.405 -1.9220 -0.8148  0.7888
14622TIP3   OH265280   4.268   5.635  12.360 -0.1567 -0.9624  0.9277
14622TIP3    H165281   4.306   5.548  12.371  0.8469 -0.4202  1.8078
14622TIP3    H265282   4.214   5.648  12.438  1.4928  0.0918  1.9508
14623TIP3   OH265283   5.221   3.245  15.747 -0.5122  0.1955  0.3544
14623TIP3    H165284   5.131   3.265  15.723 -0.8147  0.1323  1.3755
14623TIP3    H265285   5.259   3.330  15.770 -0.4659  0.1593  0.4142
14624TIP3   OH265286   6.472   1.123  14.603  0.1894  0.1725  0.1754
14624TIP3    H165287   6.402   1.181  14.633  0.2379  0.0813  0.4617
14624TIP3    H265288   6.438   1.085  14.522 -0.2168 -0.1047  0.4725
14625TIP3   OH265289   3.033   2.341  15.705  1.0154  0.3852  0.0776
14625TIP3    H165290   2.996   2.349  15.793 -0.6099 -0.7431 -0.4676
14625TIP3    H265291   3.117   2.298  15.718  0.9358  0.5194  1.1100
14626TIP3   OH265292   6.312   3.825  16.951  0.0447 -0.1351  0.9701
14626TIP3    H165293   6.241   3.822  16.887 -0.3373  2.9655  1.0910
14626TIP3    H265294   6.387   3.858  16.902  1.3376 -2.7667  0.9936
14627TIP3   OH265295   0.529   6.191   6.248  0.4976 -0.5242 -0.4974
14627TIP3    H165296   0.540   6.232   6.334 -1.7110  1.2292 -0.9786
14627TIP3    H265297   0.498   6.102   6.268  2.9171 -1.2256  0.5041
14628TIP3   OH265298   2.112   0.846  12.137  0.1177 -0.2428 -0.1653
14628TIP3    H165299   2.087   0.766  12.090  0.1561 -0.7960  0.7348
14628TIP3    H265300   2.041   0.860  12.199  1.0167 -0.6669  0.9984
14629TIP3   OH265301   2.617   1.185   2.436  0.0141  0.2864 -0.1559
14629TIP3    H165302   2.613   1.126   2.361  1.3303  1.0690 -0.8871
14629TIP3    H265303   2.671   1.139   2.500  0.8626  0.5903 -0.6414
14630TIP3   OH265304   2.199   3.941   0.585 -0.4789  0.1587 -0.0796
14630TIP3    H165305   2.142   4.013   0.612 -1.5658 -0.2107 -1.2794
14630TIP3    H265306   2.142   3.864   0.584 -0.3874  0.0321 -2.6857
14631TIP3   OH265307   6.130   1.176   2.416 -0.0632 -0.0018 -0.4808
14631TIP3    H165308   6.065   1.157   2.349  0.6596 -1.3592 -0.8441
14631TIP3    H265309   6.110   1.115   2.487 -0.2422  0.7743  0.1531
14632TIP3   OH265310   3.850   3.894  13.426 -0.5385  0.1562  0.0644
14632TIP3    H165311   3.931   3.905  13.376  0.2542  2.5297  1.7539
14632TIP3    H265312   3.849   3.801  13.449  2.0051  0.1536  0.4567
14633TIP3   OH265313   2.582   1.261  13.270 -0.3204 -0.9737  0.1348
14633TIP3    H165314   2.606   1.278  13.361 -1.6428 -1.2345  0.5572
14633TIP3    H265315   2.545   1.173  13.271 -1.5867 -0.4764 -0.3792
14634TIP3   OH265316   1.188   2.641  12.465 -0.6107 -0.3274 -0.0666
14634TIP3    H165317   1.185   2.706  12.536 -2.0472  0.0156 -0.4039
14634TIP3    H265318   1.097   2.613  12.455 -0.1042 -1.9679 -0.3398
14635TIP3   OH265319   3.694   2.613  12.832  0.4656 -0.8039 -0.1118
14635TIP3    H165320   3.771   2.611  12.889  0.9592 -1.3240 -0.7761
14635TIP3    H265321   3.621   2.633  12.890  1.2356  0.7598  0.3833
14636TIP3   OH265322   0.026   1.421  11.593 -0.1069  0.5060 -0.2401
14636TIP3    H165323  -0.029   1.458  11.662 -0.5551  2.4685 -1.5440
14636TIP3    H265324  -0.031   1.419  11.516  1.0690  0.7812 -1.1561
14637TIP3   OH265325   3.121   1.756  14.125 -0.0058  0.0006 -0.4779
14637TIP3    H165326   3.059   1.687  14.149  0.3838 -0.6394 -1.2522
14637TIP3    H265327   3.067   1.824  14.083 -0.4658  0.4303  0.7720
14638TIP3   OH265328   2.077   2.682  17.083 -0.0179 -0.2504 -0.0554
14638TIP3    H165329   2.024   2.608  17.112 -1.9737  0.8731 -0.4906
14638TIP3    H265330   2.080   2.673  16.988 -0.2260  0.1777 -0.1063
14639TIP3   OH265331   4.576   4.712   1.512  0.4676 -0.6050  0.0366
14639TIP3    H165332   4.549   4.766   1.437 -0.3884  0.1443  0.8684
14639TIP3    H265333   4.591   4.625   1.474 -1.4263 -0.6263 -0.7754
14640TIP3   OH265334   4.556   3.542  13.571  0.0971  0.4722  0.2264
14640TIP3    H165335   4.647   3.541  13.542  0.4966  2.0111  1.2414
14640TIP3    H265336   4.509   3.488  13.508  1.0775  2.6459 -2.5819
14641TIP3   OH265337   6.139   0.726   5.262  0.1977  0.0464  0.4411
14641TIP3    H165338   6.122   0.816   5.235 -0.3138 -0.1389  0.1393
14641TIP3    H265339   6.069   0.675   5.221 -0.4918 -0.2697  1.9379
14642TIP3   OH265340   4.931   6.273  13.089  0.1461 -0.0919 -0.1648
14642TIP3    H165341   4.977   6.286  13.172  4.5973 -3.2608 -1.6993
14642TIP3    H265342   4.877   6.195  13.103  2.1229 -1.6162 -0.4240
14643TIP3   OH265343   5.818   4.553  11.734 -0.0784 -0.3139  0.1891
14643TIP3    H165344   5.757   4.482  11.751 -0.4985 -0.1946 -0.7701
14643TIP3    H265345   5.824   4.558  11.639  0.7661  0.2432  0.2589
14644TIP3   OH265346   2.176   5.173  15.558  0.4209 -0.1382 -0.3494
14644TIP3    H165347   2.098   5.227  15.571  0.7828  0.1317  0.8109
14644TIP3    H265348   2.185   5.124  15.639  0.3956 -1.5872 -1.2023
14645TIP3   OH265349   5.394   5.673   5.549  0.5343 -0.5649 -0.0220
14645TIP3    H165350   5.378   5.676   5.455 -1.1742  0.6046  0.2664
14645TIP3    H265351   5.468   5.733   5.562 -0.8788  1.3396 -0.3644
14646TIP3   OH265352   1.470   2.178  12.566 -0.8355  0.3539  0.2837
14646TIP3    H165353   1.448   2.151  12.477  0.3640 -0.3440  0.1766
14646TIP3    H265354   1.509   2.265  12.556 -0.5950  0.2265  0.1185
14647TIP3   OH265355   5.749   4.555   1.235  0.0862 -0.2903  0.2376
14647TIP3    H165356   5.777   4.469   1.202 -0.4327 -0.0661 -0.8288
14647TIP3    H265357   5.659   4.542   1.263 -0.1572  0.0095 -0.3835
14648TIP3   OH265358   2.887   1.312  12.284 -0.4986 -0.0417 -0.1577
14648TIP3    H165359   2.940   1.293  12.361  0.1681 -3.7773 -1.3367
14648TIP3    H265360   2.804   1.345  12.320  0.6835  0.8416  1.9649
14649TIP3   OH265361   6.673   3.339  11.958  0.6964 -0.2759 -0.2677
14649TIP3    H165362   6.768   3.348  11.948  0.7046 -0.4015 -0.2949
14649TIP3    H265363   6.646   3.424  11.994  0.7443 -0.0442 -0.7684
14650TIP3   OH265364   6.520   4.927  17.280  0.2246  0.0204 -0.7419
14650TIP3    H165365   6.586   4.859  17.274  1.5103  1.2368 -0.8841
14650TIP3    H265366   6.546   4.993  17.216 -0.3424  1.1665  0.1506
14651TIP3   OH265367   3.532   6.200  12.257 -0.1299 -0.4215 -0.2162
14651TIP3    H165368   3.468   6.211  12.327  0.6557  0.1400  0.4262
14651TIP3    H265369   3.479   6.183  12.178 -1.1052  1.0729  0.0881
14652TIP3   OH265370   0.945   0.342   0.141 -0.6258  0.2317 -0.8865
14652TIP3    H165371   1.020   0.318   0.195  0.4959  1.0802 -1.9929
14652TIP3    H265372   0.927   0.264   0.089 -1.5397 -0.4962  0.4537
14653TIP3   OH265373   6.002   4.688  12.369 -0.0167  0.6613 -0.1184
14653TIP3    H165374   6.077   4.748  12.370  0.1752  0.4251 -0.1696
14653TIP3    H265375   6.042   4.601  12.374 -0.3029  0.5472  0.1697
14654TIP3   OH265376   3.776   6.184  15.834 -0.7431 -0.8151 -0.4506
14654TIP3    H165377   3.855   6.131  15.826 -1.0672 -1.5370  0.9628
14654TIP3    H265378   3.807   6.274  15.822  0.2135 -1.1180 -0.3529
14655TIP3   OH265379   3.673   0.489   4.795  0.7081  0.5651 -0.0206
14655TIP3    H165380   3.654   0.398   4.772  1.1034 -0.0859  1.9971
14655TIP3    H265381   3.606   0.540   4.749 -0.5643 -0.9094  0.1127
14656TIP3   OH265382   5.862   0.670   6.231  0.5301 -0.1979  0.3199
14656TIP3    H165383   5.947   0.635   6.258  0.3215  0.1090  1.4070
14656TIP3    H265384   5.799   0.623   6.284 -0.0596 -0.8987 -0.9476
14657TIP3   OH265385   3.029   4.445   6.141 -0.0381 -0.1180  0.3864
14657TIP3    H165386   3.082   4.377   6.099 -1.0467 -1.4201  1.1288
14657TIP3    H265387   3.041   4.522   6.086  1.3509 -0.8077 -0.3436
14658TIP3   OH265388   3.500   6.660   4.623  0.0954  0.2214 -0.3950
14658TIP3    H165389   3.479   6.608   4.701  1.6235  0.6428  0.3285
14658TIP3    H265390   3.417   6.701   4.599 -0.7311 -1.0798  0.1138
14659TIP3   OH265391   2.524   6.692  15.448 -0.0768 -0.0342 -0.2121
14659TIP3    H165392   2.592   6.642  15.403  0.2267 -1.0044  1.2396
14659TIP3    H265393   2.443   6.671  15.401  0.4560  0.2423 -1.2674
14660TIP3   OH265394   1.061   3.758   2.391 -0.2491 -0.3172 -0.5932
14660TIP3    H165395   1.022   3.735   2.475  2.2066  0.3515  0.8164
14660TIP3    H265396   1.120   3.831   2.410  1.6988 -1.2494 -2.5227
14661TIP3   OH265397   0.998   4.027   6.008 -0.3567 -0.4120  0.3950
14661TIP3    H165398   0.956   3.942   5.992 -1.5384  0.0579  0.8784
14661TIP3    H265399   0.930   4.092   5.986  0.0756  0.3721  1.3107
14662TIP3   OH265400   2.381   6.084   3.367 -0.2325 -0.5775 -0.5639
14662TIP3    H165401   2.351   6.153   3.426  2.0723 -0.9971  1.2559
14662TIP3    H265402   2.453   6.124   3.317  1.0023 -1.5553  0.3777
14663TIP3   OH265403   0.513   2.790  15.675  0.0009 -0.5506  0.2122
14663TIP3    H165404   0.590   2.820  15.626 -0.0009 -1.7612 -0.5811
14663TIP3    H265405   0.443   2.850  15.649  0.4581  0.0143  0.2516
14664TIP3   OH265406   3.742   2.726   2.003  0.2652 -0.3181 -0.0263
14664TIP3    H165407   3.773   2.722   1.912  1.1874 -2.8777  0.3384
14664TIP3    H265408   3.778   2.648   2.044 -0.8031  0.3739  2.3665
14665TIP3   OH265409   2.528   2.490  17.179 -0.1277  0.3942 -0.0952
14665TIP3    H165410   2.476   2.462  17.255  1.5771  1.5598  1.5858
14665TIP3    H265411   2.475   2.558  17.138 -2.2160 -1.9153 -1.5444
14666TIP3   OH265412   3.564   0.079  16.948 -0.4194 -0.0586  0.2183
14666TIP3    H165413   3.542   0.009  16.886 -1.9654  0.0981  0.5601
14666TIP3    H265414   3.504   0.066  17.022 -1.2344  2.0212 -0.0021
14667TIP3   OH265415   3.252   2.376  14.658 -0.1309  0.0281  0.0691
14667TIP3    H165416   3.260   2.281  14.655 -0.4034  0.0218 -1.5415
14667TIP3    H265417   3.158   2.393  14.659 -0.0839  0.2854  1.1722
14668TIP3   OH265418   1.304   6.727   3.978  0.5356 -0.3704 -0.6535
14668TIP3    H165419   1.281   6.726   4.071 -0.6813  0.4318 -0.9049
14668TIP3    H265420   1.387   6.774   3.974 -0.1509  0.9542 -0.0778
14669TIP3   OH265421   4.235   3.380  13.689 -0.1776  0.3055 -0.3262
14669TIP3    H165422   4.153   3.340  13.659  0.4121  0.4725 -2.2737
14669TIP3    H265423   4.297   3.308  13.694 -0.3943  0.1793  1.1566
14670TIP3   OH265424   3.230   0.237  13.352 -0.1520  0.2701 -0.1260
14670TIP3    H165425   3.234   0.187  13.270  0.9610  1.8127 -1.0568
14670TIP3    H265426   3.242   0.171  13.421  2.3230 -0.6499 -1.3337
14671TIP3   OH265427   5.771   4.772   4.791 -0.1193  0.0907  0.1417
14671TIP3    H165428   5.769   4.712   4.865  0.5953  1.3387  1.2227
14671TIP3    H265429   5.680   4.781   4.763 -0.4872  0.1173  1.3163
14672TIP3   OH265430   0.220   1.593   4.825  0.0093  0.1042 -0.0611
14672TIP3    H165431   0.215   1.498   4.833 -0.8626  0.0842 -0.6929
14672TIP3    H265432   0.229   1.624   4.915 -3.3002 -0.4195  0.5915
14673TIP3   OH265433   4.468   6.082  15.226 -0.2452 -0.1307  0.5737
14673TIP3    H165434   4.526   6.158  15.221 -1.0662  0.4270 -0.8763
14673TIP3    H265435   4.381   6.118  15.239 -0.3932 -0.9368  2.0157
14674TIP3   OH265436   4.733   1.718  11.701 -0.8678  0.2282  0.0381
14674TIP3    H165437   4.776   1.633  11.695 -0.7925  0.1367  1.4843
14674TIP3    H265438   4.664   1.715  11.635 -1.8903 -1.5937  1.1168
14675TIP3   OH265439   3.409   4.859   1.471 -0.0998 -0.3588 -0.4691
14675TIP3    H165440   3.503   4.852   1.456 -0.2920 -0.2388 -1.8438
14675TIP3    H265441   3.372   4.880   1.385 -1.4263 -0.7806 -0.0326
14676TIP3   OH265442   1.780   3.387   3.715  0.0810 -0.1551  0.3459
14676TIP3    H165443   1.814   3.468   3.677  0.3101 -0.0180  0.8269
14676TIP3    H265444   1.722   3.352   3.648 -0.5234  0.7385  0.3810
14677TIP3   OH265445   4.935   0.592  12.958  0.1154  0.1786 -0.2549
14677TIP3    H165446   4.876   0.526  12.922  1.5706 -0.9644 -0.6317
14677TIP3    H265447   4.902   0.675  12.922 -3.1688  0.0721  2.0556
14678TIP3   OH265448   1.037   6.248  14.370 -0.5190 -0.0664 -0.3557
14678TIP3    H165449   0.952   6.290  14.383 -0.6545 -0.3872 -0.2098
14678TIP3    H265450   1.055   6.205  14.453  0.6210  1.5024  0.2578
14679TIP3   OH265451   2.788   2.338   3.820 -0.3024  0.8567  0.7154
14679TIP3    H165452   2.788   2.245   3.797 -1.7539  0.5100  1.8924
14679TIP3    H265453   2.880   2.362   3.826  0.1389  0.1508 -1.9722
14680TIP3   OH265454   5.914   3.917   2.900  0.3413  0.4916 -0.1138
14680TIP3    H165455   5.874   3.981   2.959 -1.0386  1.1685 -1.6917
14680TIP3    H265456   5.977   3.967   2.849  0.2895  0.2890 -0.3802
14681TIP3   OH265457   2.095   2.497   0.610  0.5714 -0.5381 -0.2312
14681TIP3    H165458   2.191   2.502   0.613  0.6142 -1.6146  1.9479
14681TIP3    H265459   2.065   2.578   0.651  0.4729  0.2908 -1.8443
14682TIP3   OH265460   0.696   2.635  12.541 -0.3249 -0.4459  0.0969
14682TIP3    H165461   0.767   2.620  12.602  0.1579  1.1368 -0.0147
14682TIP3    H265462   0.702   2.564  12.477  0.7437 -0.6827  0.4542
14683TIP3   OH265463   3.553   1.535  15.974  0.2150  0.1893  0.0077
14683TIP3    H165464   3.582   1.617  15.934 -1.4170  0.1964 -1.2747
14683TIP3    H265465   3.493   1.562  16.043  0.0523  0.0708 -0.0893
14684TIP3   OH265466   6.403   1.126   4.257 -0.2913 -0.2507 -0.4135
14684TIP3    H165467   6.391   1.156   4.167 -1.2496  0.2768 -0.1247
14684TIP3    H265468   6.391   1.031   4.252  1.6893 -0.5015 -1.1584
14685TIP3   OH265469   3.299   0.160  10.780 -0.0622 -0.7716 -0.1788
14685TIP3    H165470   3.257   0.243  10.755 -2.5164 -2.1608 -1.0312
14685TIP3    H265471   3.387   0.166  10.741 -0.8685  0.6254 -1.9806
14686TIP3   OH265472   1.476   3.266   2.920 -0.0338  0.1490  0.7117
14686TIP3    H165473   1.478   3.323   2.843  0.8110 -1.6307 -0.6468
14686TIP3    H265474   1.566   3.267   2.953 -0.7443  2.3316  2.8581
14687TIP3   OH265475   5.422   0.172   1.765  0.1928 -0.0317 -0.3800
14687TIP3    H165476   5.406   0.097   1.822  1.7596  0.6325  1.0140
14687TIP3    H265477   5.335   0.204   1.742 -0.5800 -3.1042 -2.2374
14688TIP3   OH265478   6.173   5.456  16.243  0.7193  0.1394 -0.4744
14688TIP3    H165479   6.107   5.521  16.266  1.1641  0.2632  0.4761
14688TIP3    H265480   6.148   5.378  16.294 -0.1989 -0.6892 -2.0936
14689TIP3   OH265481   3.304   1.969  11.543  0.4736 -0.4224 -0.5183
14689TIP3    H165482   3.280   1.922  11.623  0.5444  0.4194  0.0074
14689TIP3    H265483   3.378   1.920  11.507  0.3289 -0.9067 -0.1698
14690TIP3   OH265484   3.676   0.758   0.192  0.2088  0.4758  0.2262
14690TIP3    H165485   3.683   0.685   0.131  2.4288  0.5466  0.3332
14690TIP3    H265486   3.591   0.798   0.172  0.8643  0.5465 -2.8617
14691TIP3   OH265487   0.890   6.429  15.752 -0.1356  0.0941 -0.5547
14691TIP3    H165488   0.912   6.381  15.831  0.1243 -0.1271 -0.7611
14691TIP3    H265489   0.813   6.383  15.716  0.5758 -0.6471 -1.1668
14692TIP3   OH265490   0.040   0.259  13.069  0.3959  0.2192  0.6840
14692TIP3    H165491  -0.044   0.303  13.057  0.1815 -0.4131 -0.2005
14692TIP3    H265492   0.056   0.213  12.986  1.4389  0.0336  0.9675
14693TIP3   OH265493   4.495   0.182  15.997 -0.0489  0.1487 -0.8141
14693TIP3    H165494   4.456   0.190  15.910  0.7281 -0.9938 -1.2749
14693TIP3    H265495   4.437   0.121  16.043 -1.4547  2.0263  0.0988
14694TIP3   OH265496   4.597   4.236   4.789  0.5290 -0.5023 -0.0635
14694TIP3    H165497   4.600   4.151   4.834 -2.2907 -1.0240 -0.6515
14694TIP3    H265498   4.683   4.243   4.747  1.2851 -2.4984  0.9719
14695TIP3   OH265499   1.609   2.535   0.353  0.8786 -0.0614 -0.1825
14695TIP3    H165500   1.571   2.582   0.427 -0.6667  0.3116 -1.1554
14695TIP3    H265501   1.562   2.451   0.352  1.7563 -0.5686 -0.0315
14696TIP3   OH265502   2.976   1.052   2.199  0.0242 -0.0362 -0.6774
14696TIP3    H165503   2.925   0.978   2.232  1.1455 -1.6873 -2.4323
14696TIP3    H265504   2.912   1.108   2.155 -1.0303  0.7639  1.6931
14697TIP3   OH265505   0.054   0.797  16.838 -0.3543  0.5742  0.6799
14697TIP3    H165506   0.149   0.798  16.826 -0.2940  0.0932  1.1191
14697TIP3    H265507   0.019   0.810  16.749  0.1130 -1.1152  0.2068
14698TIP3   OH265508   0.544   4.160  11.933  0.2117  0.5646  0.4074
14698TIP3    H165509   0.594   4.177  12.013 -0.2704  0.0816  0.8204
14698TIP3    H265510   0.563   4.234  11.876  0.3507  1.0496  1.0750
14699TIP3   OH265511   2.501   5.115   0.110  0.1904  0.5304  0.4958
14699TIP3    H165512   2.549   5.112   0.028 -1.2149  1.9736 -0.4599
14699TIP3    H265513   2.541   5.187   0.159  0.5380  0.1670  0.7478
14700TIP3   OH265514   6.369   3.073   3.154  0.0649 -0.0204 -0.4598
14700TIP3    H165515   6.448   3.062   3.207  0.2087 -0.9864 -0.8548
14700TIP3    H265516   6.390   3.032   3.071 -0.7669 -0.0564 -0.6601
14701TIP3   OH265517   4.935   6.165   3.775  0.1846  0.0809 -0.2020
14701TIP3    H165518   4.857   6.111   3.763  0.7919 -0.8885  0.1060
14701TIP3    H265519   5.003   6.120   3.726  0.9263  0.0520  0.8180
14702TIP3   OH265520   6.205   4.769  13.451  0.3141 -0.2242 -0.0753
14702TIP3    H165521   6.189   4.791  13.359  2.0489  0.6135 -0.2128
14702TIP3    H265522   6.182   4.848  13.499  0.5094 -0.2702  0.0953
14703TIP3   OH265523   4.977   1.248  12.266 -0.0845 -0.5488 -0.1585
14703TIP3    H165524   4.945   1.171  12.313 -1.0442 -0.1069 -0.0634
14703TIP3    H265525   4.908   1.268  12.203 -0.5412  1.0582  0.7831
14704TIP3   OH265526   4.962   5.690  13.692 -0.2232 -0.1261 -0.2030
14704TIP3    H165527   4.903   5.666  13.764 -1.7711  1.7890 -0.7331
14704TIP3    H265528   5.050   5.678  13.728 -0.9477 -0.4116  1.5773
14705TIP3   OH265529   5.582   2.191  11.249  0.1946 -0.6053 -0.2304
14705TIP3    H165530   5.525   2.127  11.292  1.5017 -1.1820  0.7382
14705TIP3    H265531   5.639   2.139  11.193 -1.2019  0.1093 -2.4301
14706TIP3   OH265532   5.202   3.712   5.278  0.2704  0.1056  0.1958
14706TIP3    H165533   5.168   3.724   5.366 -1.5117 -1.3031 -0.2401
14706TIP3    H265534   5.292   3.681   5.290  0.2242  0.4354  1.4825
14707TIP3   OH265535   2.427   2.745  10.930 -0.5873  0.1374 -0.4839
14707TIP3    H165536   2.374   2.810  10.884  1.0176  0.6823 -1.6477
14707TIP3    H265537   2.484   2.797  10.987 -1.0855 -0.4162  0.5382
14708TIP3   OH265538   2.205   6.383   4.940  0.4549 -0.2261 -0.6645
14708TIP3    H165539   2.245   6.298   4.922  0.4402 -0.2815 -0.4476
14708TIP3    H265540   2.113   6.372   4.919  0.3794 -0.3833 -0.2620
14709TIP3   OH265541   0.116   4.442  16.268 -0.0960  0.3098  0.2734
14709TIP3    H165542   0.082   4.504  16.203 -1.5378  1.7418  2.2713
14709TIP3    H265543   0.125   4.493  16.348 -0.2620 -1.7988  1.7380
14710TIP3   OH265544   2.070   1.113  14.134 -0.3994 -0.5027 -0.1196
14710TIP3    H165545   1.994   1.106  14.192  0.5436  1.9233  1.5802
14710TIP3    H265546   2.144   1.081  14.186  0.4593  1.6820  0.1248
14711TIP3   OH265547   2.403   3.420   3.859  0.0051  0.1863 -0.0057
14711TIP3    H165548   2.351   3.352   3.816 -0.7928  1.5641 -1.3411
14711TIP3    H265549   2.493   3.403   3.832 -0.1884 -0.3026 -0.3497
14712TIP3   OH265550   3.892   0.965  15.223  0.0259  0.6275  0.3593
14712TIP3    H165551   3.854   1.027  15.285  0.6759  1.4443 -0.0403
14712TIP3    H265552   3.824   0.899  15.210 -1.0477  1.7448  0.0796
14713TIP3   OH265553   6.450   2.782  11.603 -0.4915  0.5504 -0.3133
14713TIP3    H165554   6.439   2.855  11.542  4.0784  1.0119 -0.9612
14713TIP3    H265555   6.519   2.811  11.662 -0.1803 -2.3921  0.9279
14714TIP3   OH265556   1.463   5.347  11.253 -0.0704  0.2146  0.0034
14714TIP3    H165557   1.502   5.401  11.184  1.3169  0.4813  0.9479
14714TIP3    H265558   1.372   5.376  11.258 -0.6176 -0.8281 -2.6718
14715TIP3   OH265559   1.910   5.262  12.463  0.9566  0.0859  1.2011
14715TIP3    H165560   1.957   5.345  12.457 -0.8889  1.1069 -3.0098
14715TIP3    H265561   1.973   5.197  12.429  1.1811  0.4359  0.9390
14716TIP3   OH265562   0.397   6.488   3.892  0.1173 -0.4933 -0.0171
14716TIP3    H165563   0.381   6.445   3.976 -0.2618 -0.9974 -0.3404
14716TIP3    H265564   0.427   6.576   3.915  0.4904 -0.7905  0.6488
14717TIP3   OH265565   2.124   6.564  16.463 -0.3669 -0.3080  0.1830
14717TIP3    H165566   2.093   6.641  16.417 -2.0434  0.4653  2.4196
14717TIP3    H265567   2.177   6.517  16.399 -1.2885  1.4462 -1.9842
14718TIP3   OH265568   1.154   5.364   2.565 -0.5468  0.0391 -0.3795
14718TIP3    H165569   1.204   5.446   2.567 -0.7532  0.1587 -0.0241
14718TIP3    H265570   1.182   5.321   2.484  0.2260  0.0455 -0.1257
14719TIP3   OH265571   1.422   3.594  12.162  0.2592  1.0201  0.0154
14719TIP3    H165572   1.336   3.609  12.122 -0.1839  0.9096  0.9068
14719TIP3    H265573   1.482   3.591  12.088 -0.6780 -0.2142 -0.7416
14720TIP3   OH265574   4.515   4.208  16.529 -0.2851 -0.5053  0.0452
14720TIP3    H165575   4.445   4.159  16.571 -0.3316 -0.6981 -0.2514
14720TIP3    H265576   4.583   4.216  16.596 -0.1428 -1.2585 -0.0017
14721TIP3   OH265577   0.031   5.222  12.119  0.3614  0.7885  1.0680
14721TIP3    H165578  -0.039   5.212  12.184 -0.0352  0.9301  0.6704
14721TIP3    H265579   0.105   5.257  12.168  0.4560 -0.2343  1.6792
14722TIP3   OH265580   2.700   1.467   1.610  0.3691 -0.1411 -0.9006
14722TIP3    H165581   2.702   1.373   1.594  0.4231 -0.1482 -0.8500
14722TIP3    H265582   2.622   1.497   1.562 -2.8930 -0.9984  3.2218
14723TIP3   OH265583   2.263   1.487   0.798 -0.2589  0.1637 -0.4489
14723TIP3    H165584   2.210   1.469   0.721 -1.2873 -0.7538  0.4411
14723TIP3    H265585   2.348   1.448   0.779 -0.9913 -1.4706 -0.5083
14724TIP3   OH265586   5.961   0.242  15.553 -0.9529  0.2357  0.4290
14724TIP3    H165587   5.915   0.314  15.597 -1.1936 -0.3839  1.2112
14724TIP3    H265588   6.028   0.214  15.616  1.7655  2.2534 -1.2961
14725TIP3   OH265589   4.601   4.854   6.467  0.5538  0.7168 -0.4761
14725TIP3    H165590   4.648   4.842   6.384  1.6750  0.4133  0.1825
14725TIP3    H265591   4.669   4.850   6.534 -0.4849 -0.4210  0.5677
14726TIP3   OH265592   3.654   4.437  13.597  1.1546 -0.3135 -0.5217
14726TIP3    H165593   3.584   4.402  13.652  2.2205 -1.5632  0.1049
14726TIP3    H265594   3.618   4.436  13.508  0.3189 -0.7674 -0.1892
14727TIP3   OH265595   6.159   0.656  13.369  0.2091  0.3168  0.1680
14727TIP3    H165596   6.121   0.569  13.360  0.8688  0.0074  0.3382
14727TIP3    H265597   6.179   0.684  13.280 -0.6702  0.6075  0.0468
14728TIP3   OH265598   3.075   5.418  15.791 -0.0393 -0.3778  0.2916
14728TIP3    H165599   3.041   5.443  15.706  1.8643 -0.1840 -0.4747
14728TIP3    H265600   3.074   5.499  15.842 -0.8302 -0.4099  0.3269
14729TIP3   OH265601   2.175   5.817   2.932 -0.5353 -0.2301  0.0631
14729TIP3    H165602   2.190   5.869   2.853  0.1185 -1.7310 -0.8368
14729TIP3    H265603   2.218   5.734   2.915 -2.0609 -1.3226  1.2038
14730TIP3   OH265604   6.665   3.078  16.524 -0.1566 -0.1178  0.4005
14730TIP3    H165605   6.753   3.109  16.546  0.1222 -1.1207  0.7613
14730TIP3    H265606   6.655   2.997  16.574 -1.3606  0.0799  0.5006
14731TIP3   OH265607   5.661   5.886   3.400  0.7026  0.8905 -0.1481
14731TIP3    H165608   5.748   5.891   3.360  0.0032 -1.2622 -2.1624
14731TIP3    H265609   5.623   5.805   3.366 -1.1470  0.3891  2.7228
14732TIP3   OH265610   5.701   5.527   1.815 -0.5232  0.0840  0.5827
14732TIP3    H165611   5.608   5.541   1.833 -0.5058  1.5104 -0.2317
14732TIP3    H265612   5.706   5.514   1.721  0.1095  0.1265  0.6021
14733TIP3   OH265613   1.476   1.543  12.086 -0.1140 -0.5484 -0.2046
14733TIP3    H165614   1.531   1.614  12.118  2.0306 -0.7679 -3.1107
14733TIP3    H265615   1.386   1.575  12.098  0.7707  2.3155 -0.6969
14734TIP3   OH265616   0.692   1.829   6.281  0.4559 -0.2316  0.2989
14734TIP3    H165617   0.702   1.876   6.364  0.3271  0.6751 -0.1890
14734TIP3    H265618   0.653   1.893   6.222  0.8648 -0.7603 -0.5628
14735TIP3   OH265619   4.146   2.673  12.914  0.1518  0.1540 -0.0689
14735TIP3    H165620   4.229   2.638  12.948  0.1938 -0.9792 -1.2663
14735TIP3    H265621   4.173   2.742  12.853  0.1756  0.2170  0.0118
14736TIP3   OH265622   5.657   5.415  13.983 -0.1113 -0.3817 -0.3368
14736TIP3    H165623   5.642   5.390  13.891  2.3610 -1.0586 -0.6247
14736TIP3    H265624   5.712   5.493  13.978  0.0738 -0.4479  0.5684
14737TIP3   OH265625   5.287   3.110  12.930  0.3353 -0.3806 -0.2903
14737TIP3    H165626   5.209   3.138  12.978 -0.3914 -1.4111 -0.8080
14737TIP3    H265627   5.358   3.112  12.995 -0.1575  0.3924  0.2386
14738TIP3   OH265628   1.534   0.924  16.234  0.0315 -0.3311 -0.2473
14738TIP3    H165629   1.497   1.001  16.190 -0.1924 -0.8552 -0.9954
14738TIP3    H265630   1.520   0.940  16.327  2.5000  1.8749 -0.1256
14739TIP3   OH265631   3.392   5.019  16.117  0.4758 -0.2526  0.0940
14739TIP3    H165632   3.444   5.016  16.036  0.5242  1.2961  0.0281
14739TIP3    H265633   3.394   5.111  16.142 -1.6238 -0.2878  0.5125
14740TIP3   OH265634   0.378   4.078   0.019  0.4130  0.2619  0.2902
14740TIP3    H165635   0.372   4.080   0.114  1.9007  5.1995  0.5119
14740TIP3    H265636   0.295   4.115  -0.011  0.4213 -0.1927 -0.3272
14741TIP3   OH265637   0.255   1.044  15.613  0.1091 -0.1138 -0.2328
14741TIP3    H165638   0.185   1.011  15.557  1.6079  1.2642 -3.1663
14741TIP3    H265639   0.273   1.132  15.580 -0.7214  2.0887  4.3458
14742TIP3   OH265640   2.295   1.096   4.514 -0.3946  0.1632  0.1370
14742TIP3    H165641   2.315   1.134   4.428  0.9192  0.8219  0.6948
14742TIP3    H265642   2.229   1.154   4.552 -0.0460  0.6070  0.0726
14743TIP3   OH265643   5.057   0.693  11.125 -0.2701 -0.4931 -0.0431
14743TIP3    H165644   4.988   0.742  11.080 -0.2189 -0.1237  0.2713
14743TIP3    H265645   5.135   0.748  11.114  0.1400 -1.2309 -0.9926
14744TIP3   OH265646   3.145   5.848  11.914 -0.3964  0.2024 -0.1439
14744TIP3    H165647   3.211   5.914  11.933 -0.4985 -0.1040  1.3375
14744TIP3    H265648   3.165   5.819  11.825  0.3942  1.3376 -0.3482
14745TIP3   OH265649   1.917   1.837   3.060  0.2639 -0.2491  0.1610
14745TIP3    H165650   1.988   1.898   3.079  1.2112 -1.6145  1.2213
14745TIP3    H265651   1.906   1.788   3.141 -1.0201 -0.9412 -0.4103
14746TIP3   OH265652   3.821   2.929   4.855  0.1539 -0.3568  0.6543
14746TIP3    H165653   3.876   2.854   4.833 -1.7655 -1.0041 -2.4630
14746TIP3    H265654   3.861   3.003   4.810 -0.2739 -0.3790  0.2311
14747TIP3   OH265655   0.646   5.657  13.975  0.2209  0.4136 -0.1545
14747TIP3    H165656   0.650   5.687  14.066  1.3972  0.2932 -0.1532
14747TIP3    H265657   0.693   5.573  13.975 -1.9576 -0.8890 -0.3880
14748TIP3   OH265658   4.262   6.389  15.073  0.2094  0.4143  0.6502
14748TIP3    H165659   4.280   6.345  15.156  1.8610  1.2856  0.7929
14748TIP3    H265660   4.344   6.382  15.024 -1.4042 -2.1656 -1.9589
14749TIP3   OH265661   0.820   6.743   1.062 -0.0458 -0.4013 -0.5297
14749TIP3    H165662   0.782   6.669   1.014  0.2639 -1.4546  0.8097
14749TIP3    H265663   0.833   6.711   1.151  1.4842  0.7943 -0.2769
14750TIP3   OH265664   6.430   2.762   3.790 -0.0581 -0.3333 -0.2046
14750TIP3    H165665   6.396   2.781   3.703  1.2403  1.0984 -0.4383
14750TIP3    H265666   6.504   2.704   3.775 -0.7559 -1.3322  0.0956
14751TIP3   OH265667   0.181   1.774  13.345 -0.4612 -0.3571  0.2007
14751TIP3    H165668   0.233   1.793  13.423  1.1857  2.3328 -1.3457
14751TIP3    H265669   0.158   1.682  13.353  1.0989 -0.6305  2.9976
14752TIP3   OH265670   1.208   0.602   4.492 -0.2620 -0.1969 -0.8248
14752TIP3    H165671   1.145   0.590   4.563 -0.6737  3.6628 -0.3215
14752TIP3    H265672   1.162   0.571   4.413 -0.8426 -1.9682  0.1523
14753TIP3   OH265673   3.053   3.359  14.258 -0.3774 -0.0415  0.4286
14753TIP3    H165674   3.097   3.410  14.190  0.7946 -0.4122  0.8833
14753TIP3    H265675   3.123   3.313  14.303 -1.0667  0.4982  2.1649
14754TIP3   OH265676   3.015   0.535   2.638  0.1328  0.0407  0.0454
14754TIP3    H165677   2.951   0.604   2.653  1.0410  1.2728 -1.4061
14754TIP3    H265678   3.097   0.569   2.675  0.3280 -0.8082  0.4300
14755TIP3   OH265679   3.493   2.737   0.016 -0.2627 -0.1824 -0.3704
14755TIP3    H165680   3.551   2.769   0.085  0.2195 -0.8169 -0.4710
14755TIP3    H265681   3.413   2.710   0.062 -0.5455  0.8309 -0.2489
14756TIP3   OH265682   1.376   5.852  16.956  0.1226  0.5826  0.6329
14756TIP3    H165683   1.323   5.830  16.879 -1.0294 -0.8181  1.7733
14756TIP3    H265684   1.465   5.828  16.931 -0.2712 -0.0756 -0.1861
14757TIP3   OH265685   4.397   1.950   6.401 -0.6503 -0.3384 -0.0609
14757TIP3    H165686   4.457   1.998   6.342  0.3058 -0.4749  0.7701
14757TIP3    H265687   4.455   1.900   6.459 -1.6044 -1.2064  0.1725
14758TIP3   OH265688   4.325   5.562  11.656  0.3251  0.2919 -0.3896
14758TIP3    H165689   4.387   5.568  11.728 -0.9508  1.0927  0.6942
14758TIP3    H265690   4.278   5.646  11.657 -0.9694 -0.3879 -0.9552
14759TIP3   OH265691   4.510   4.971   2.887 -0.8470  0.3574  0.0858
14759TIP3    H165692   4.495   4.919   2.808 -0.1039  0.3865 -0.0834
14759TIP3    H265693   4.438   4.947   2.946 -0.9207 -0.3212 -0.2663
14760TIP3   OH265694   0.435   0.689   0.236  0.0169  0.0827 -0.0640
14760TIP3    H165695   0.418   0.597   0.214 -0.2370 -0.0889  0.8090
14760TIP3    H265696   0.498   0.686   0.308 -1.3913  0.4952  1.2611
14761TIP3   OH265697   1.441   5.094  11.034 -0.1012 -0.0688  0.1712
14761TIP3    H165698   1.457   5.188  11.027  0.4593 -0.1652  0.1348
14761TIP3    H265699   1.470   5.071  11.122  0.3978 -0.3303 -0.0612
14762TIP3   OH265700   5.816   0.030  14.318 -0.0314  0.4821  0.0077
14762TIP3    H165701   5.833   0.079  14.399  1.4631  2.2282 -1.2775
14762TIP3    H265702   5.766   0.090  14.263  1.2365  0.3603 -1.3514
14763TIP3   OH265703   0.945   5.961  16.386  0.1284  0.1601  0.5022
14763TIP3    H165704   0.941   5.866  16.378  0.4676  0.0914  1.0744
14763TIP3    H265705   0.861   5.986  16.424 -0.8384  0.3280 -1.5964
14764TIP3   OH265706   5.831   1.764  11.942 -0.1641 -0.3616 -0.5524
14764TIP3    H165707   5.785   1.682  11.961 -1.4592  0.9746  2.7355
14764TIP3    H265708   5.922   1.747  11.964 -0.7373 -0.4775  1.9647
14765TIP3   OH265709   3.878   4.243   2.723  0.4115 -0.1868  0.0884
14765TIP3    H165710   3.873   4.148   2.736  0.9568 -0.1670  0.4976
14765TIP3    H265711   3.972   4.262   2.721  0.3218  0.2520 -0.7220
14766TIP3   OH265712   1.678   3.067  12.904 -0.6896 -0.5840 -0.0018
14766TIP3    H165713   1.731   3.071  12.983  0.1160  0.2696 -0.5643
14766TIP3    H265714   1.727   3.010  12.845  0.1402  0.9842 -0.8816
14767TIP3   OH265715   1.140   0.982   1.345 -0.4205 -0.3168 -0.3129
14767TIP3    H165716   1.075   1.050   1.330 -0.2505 -0.1441 -0.2799
14767TIP3    H265717   1.154   0.942   1.259 -0.0124  0.1569 -0.4730
14768TIP3   OH265718   1.544   5.887  15.221 -0.3789  0.1783  0.2595
14768TIP3    H165719   1.598   5.937  15.160 -0.8540 -0.3060 -0.5713
14768TIP3    H265720   1.480   5.950  15.254 -2.0125 -0.1783 -1.9983
14769TIP3   OH265721   3.196   4.548  15.661  0.0752 -0.2999 -0.9917
14769TIP3    H165722   3.172   4.458  15.685 -0.1836 -0.1266 -0.5777
14769TIP3    H265723   3.277   4.540  15.611  0.4072 -0.7137 -0.3971
14770TIP3   OH265724   4.440   4.211   3.729 -0.0173 -0.3893 -0.5315
14770TIP3    H165725   4.428   4.260   3.648 -0.1595  2.8205  1.2664
14770TIP3    H265726   4.524   4.168   3.718  1.5672  2.5858 -1.2738
14771TIP3   OH265727   1.683   5.502  12.185 -0.1367 -0.4375 -0.1401
14771TIP3    H165728   1.652   5.537  12.269 -0.4391  1.6055 -1.0503
14771TIP3    H265729   1.603   5.482  12.136  0.0103  0.1152 -0.6170
14772TIP3   OH265730   6.479   0.726  16.411 -0.2686 -0.5603  0.2698
14772TIP3    H165731   6.531   0.646  16.402 -0.8984 -0.9437 -0.0980
14772TIP3    H265732   6.513   0.784  16.343 -1.9162 -1.7272 -1.6869
14773TIP3   OH265733   6.434   4.277  14.020  0.5242 -0.1824 -0.2952
14773TIP3    H165734   6.403   4.364  13.992 -0.4057 -0.3066  0.2993
14773TIP3    H265735   6.506   4.257  13.960 -0.1196  0.4211 -1.3066
14774TIP3   OH265736   5.576   1.375   2.201  0.6925  0.1703  0.1355
14774TIP3    H165737   5.502   1.415   2.247  2.0925  1.3002  1.4875
14774TIP3    H265738   5.618   1.319   2.266  1.2958 -0.1119 -0.4871
14775TIP3   OH265739   3.603   0.330  12.890 -0.1981  0.0558  0.1430
14775TIP3    H165740   3.688   0.359  12.857  0.9345 -0.7264  2.1947
14775TIP3    H265741   3.613   0.235  12.901 -0.7168  0.1881  2.0571
14776TIP3   OH265742   4.865   0.569  15.030  0.6093 -0.4861  0.3018
14776TIP3    H165743   4.884   0.653  15.073  0.7497  0.6647 -1.8845
14776TIP3    H265744   4.769   0.563  15.030  0.6110 -0.6089  0.9344
14777TIP3   OH265745   3.843   3.156  11.392 -0.3805  0.0927 -0.0759
14777TIP3    H165746   3.766   3.145  11.447  0.2590  0.3615  0.8869
14777TIP3    H265747   3.852   3.251  11.382 -0.0222  0.0689  0.0215
14778TIP3   OH265748   3.212   6.623  12.669  0.2852  0.5022 -0.5284
14778TIP3    H165749   3.291   6.592  12.625  0.4348 -0.3054  0.2716
14778TIP3    H265750   3.145   6.558  12.646  0.2315  0.3715 -0.0134
14779TIP3   OH265751   5.411   0.388   4.695  0.4031 -0.3839 -0.1171
14779TIP3    H165752   5.475   0.348   4.754  2.4084  1.6463 -0.7182
14779TIP3    H265753   5.364   0.451   4.750 -0.3991 -1.1367  0.0876
14780TIP3   OH265754   4.364   2.047  17.125  0.2087 -0.2352  0.2274
14780TIP3    H165755   4.371   1.962  17.169 -0.6819 -1.4535 -1.8664
14780TIP3    H265756   4.383   2.029  17.033  1.5443  2.1424 -0.0512
14781TIP3   OH265757   3.832   4.158   4.665 -0.4274 -0.5050 -0.2955
14781TIP3    H165758   3.760   4.200   4.618  0.0281 -1.0151 -1.4920
14781TIP3    H265759   3.861   4.224   4.728 -0.4742  0.5564 -1.3435
14782TIP3   OH265760   0.900   3.446  11.602  0.0721  0.0770 -0.4612
14782TIP3    H165761   0.881   3.356  11.576  1.6042 -0.9016  1.5397
14782TIP3    H265762   0.870   3.453  11.693 -0.0112  1.5954 -0.5700
14783TIP3   OH265763   0.107   4.328  14.771  0.4338 -0.4610 -0.4916
14783TIP3    H165764   0.145   4.413  14.793 -0.9164 -0.1310  0.6486
14783TIP3    H265765   0.021   4.328  14.813 -1.3597 -0.7511 -3.8590
14784TIP3   OH265766   0.511   3.853  16.674 -0.0671  0.4488 -0.1873
14784TIP3    H165767   0.461   3.895  16.604 -0.4010  0.4986  0.0794
14784TIP3    H265768   0.596   3.896  16.671  0.5993 -0.8688 -1.8202
14785TIP3   OH265769   3.468   4.489  12.455  0.4146  0.0894  0.5065
14785TIP3    H165770   3.392   4.492  12.512  1.0227 -0.2436  1.3443
14785TIP3    H265771   3.523   4.419  12.489  0.2204 -0.9777 -1.2352
14786TIP3   OH265772   4.554   4.031   0.463 -0.3118  0.2088  0.1451
14786TIP3    H165773   4.521   4.121   0.468 -0.2582  0.2099  0.4709
14786TIP3    H265774   4.551   3.999   0.553 -0.3487 -0.1239  0.0284
14787TIP3   OH265775   0.195   3.058   2.798 -0.6889 -0.2043 -1.3801
14787TIP3    H165776   0.284   3.037   2.767 -0.0212  0.7882 -0.2430
14787TIP3    H265777   0.179   2.994   2.867  0.5547  1.6482  0.7384
14788TIP3   OH265778   6.529   3.888  16.784  0.0105 -0.3565 -0.0670
14788TIP3    H165779   6.603   3.949  16.778 -1.0910  1.1253  0.6951
14788TIP3    H265780   6.569   3.804  16.803  1.5170  0.3843  0.2050
14789TIP3   OH265781   5.426   0.595  12.774 -0.8813  0.2602 -0.4670
14789TIP3    H165782   5.424   0.646  12.854  0.6032  1.1017 -0.9123
14789TIP3    H265783   5.493   0.528  12.790 -0.2479  0.7124 -1.1282
14790TIP3   OH265784   2.634   3.238   4.765 -0.3051  0.5267  0.3387
14790TIP3    H165785   2.660   3.328   4.785 -1.0810  0.2129  3.1595
14790TIP3    H265786   2.547   3.246   4.725  0.4569  1.0841 -1.2890
14791TIP3   OH265787   4.547   0.168   6.097  0.0621  0.6499 -0.6769
14791TIP3    H165788   4.561   0.163   6.002  0.1139  1.0145 -0.6875
14791TIP3    H265789   4.573   0.082   6.129  0.7835  0.7811 -0.8940
14792TIP3   OH265790   0.385   6.193  15.117 -0.4088  0.6018 -0.9679
14792TIP3    H165791   0.463   6.224  15.072 -0.1433  2.1454  0.4467
14792TIP3    H265792   0.395   6.098  15.119  2.4673  0.8127  0.8018
14793TIP3   OH265793   1.471   2.558   2.113  0.2684  0.1845  0.1372
14793TIP3    H165794   1.470   2.648   2.083  1.9455  0.7698  1.6373
14793TIP3    H265795   1.383   2.541   2.145  0.1566  1.5635  0.5842
14794TIP3   OH265796   1.800   1.360  12.075  0.3280 -0.1675 -0.1186
14794TIP3    H165797   1.705   1.350  12.084  0.0650  2.8776  2.4936
14794TIP3    H265798   1.811   1.447  12.035  1.9681  0.2954  1.2085
14795TIP3   OH265799   4.351   4.327   3.211  0.0616  0.0338  0.3898
14795TIP3    H165800   4.356   4.419   3.188 -3.6954  0.8866  2.0822
14795TIP3    H265801   4.297   4.288   3.142 -1.9277  0.1644  1.7796
14796TIP3   OH265802   6.189   5.734   3.756 -0.1196 -0.3709 -0.3845
14796TIP3    H165803   6.123   5.701   3.695  0.2124  0.6405 -1.3190
14796TIP3    H265804   6.151   5.815   3.791 -0.0392 -0.6186  0.2988
14797TIP3   OH265805   6.734   1.310  14.079  0.6379 -0.0567 -0.2601
14797TIP3    H165806   6.701   1.221  14.069  1.2643 -0.2713 -0.4656
14797TIP3    H265807   6.673   1.352  14.140  0.2871 -0.5971 -0.2393
14798TIP3   OH265808   1.652   1.014   3.432  0.1695 -0.5160 -0.0145
14798TIP3    H165809   1.714   0.943   3.416  0.3389 -0.6540  1.1723
14798TIP3    H265810   1.652   1.025   3.527 -0.3990  0.5858 -0.1241
14799TIP3   OH265811   4.717   0.662   1.479 -0.2903 -0.3301 -0.5134
14799TIP3    H165812   4.793   0.657   1.536  0.7791 -1.6986 -1.9638
14799TIP3    H265813   4.680   0.749   1.494  0.7291 -0.1714  1.2335
14800TIP3   OH265814   6.001   6.380  15.026  0.3725  0.1937 -0.2822
14800TIP3    H165815   6.067   6.310  15.031 -0.6824 -0.8729 -0.9647
14800TIP3    H265816   6.026   6.440  15.096  1.6700 -0.5346 -0.0748
14801TIP3   OH265817   6.702   5.553   4.418 -0.8496 -0.6777  0.0943
14801TIP3    H165818   6.739   5.466   4.405  0.2167 -0.3597  0.9362
14801TIP3    H265819   6.716   5.573   4.510 -0.0268  0.8531 -0.3274
14802TIP3   OH265820   2.489   2.690   1.733 -0.0403  0.1376  0.0980
14802TIP3    H165821   2.567   2.648   1.695 -0.7574  0.3853 -1.7288
14802TIP3    H265822   2.484   2.655   1.822  1.4115 -0.8866 -0.1903
14803TIP3   OH265823   0.197   2.085   6.273 -0.7251 -0.4129 -0.2587
14803TIP3    H165824   0.149   2.090   6.356 -0.7600  0.4660 -0.3163
14803TIP3    H265825   0.181   2.170   6.232 -0.3860 -0.7008 -0.9879
14804TIP3   OH265826   3.586   2.579  12.192  0.0663  0.0450  0.0121
14804TIP3    H165827   3.523   2.587  12.264 -0.7606  0.4116 -0.7274
14804TIP3    H265828   3.635   2.499  12.212  0.3144  0.5064  1.3258
14805TIP3   OH265829   2.155   2.948  15.624 -0.4923  0.2816 -0.3311
14805TIP3    H165830   2.142   3.029  15.574 -1.8795  0.2394 -0.0662
14805TIP3    H265831   2.128   2.879  15.564 -0.7137  0.1170 -0.0397
14806TIP3   OH265832   0.880   0.164   2.047 -0.4864  0.5371 -0.3919
14806TIP3    H165833   0.903   0.092   1.988 -1.0729  0.1932 -0.2108
14806TIP3    H265834   0.786   0.157   2.058 -0.4585  0.9358  0.1549
14807TIP3   OH265835   2.871   4.045   2.955  0.1100  0.2351 -0.0940
14807TIP3    H165836   2.839   4.073   3.041  0.8586  1.1524 -0.0975
14807TIP3    H265837   2.807   3.981   2.925 -0.1932 -0.0480  1.1203
14808TIP3   OH265838   1.986   1.367  15.458 -0.0133  0.2263  0.0178
14808TIP3    H165839   2.065   1.378  15.404  1.1953  0.7876  1.8102
14808TIP3    H265840   2.013   1.307  15.527 -1.1290  0.5325  0.7382
14809TIP3   OH265841   5.056   4.865  14.971 -0.2748 -0.6027  0.0527
14809TIP3    H165842   5.067   4.822  15.056 -0.3382  1.7597  1.3290
14809TIP3    H265843   4.962   4.879  14.963 -0.4435 -2.0451 -1.1308
14810TIP3   OH265844   0.613   0.111  17.375 -0.1492  0.3834  0.7241
14810TIP3    H165845   0.625   0.114  17.469 -0.0948 -1.4501  0.8154
14810TIP3    H265846   0.676   0.173  17.340  0.1023  0.7903  1.8673
14811TIP3   OH265847   0.606   6.679   4.221 -0.4986  0.3456 -0.2141
14811TIP3    H165848   0.627   6.586   4.230  0.9183  0.7907  1.5868
14811TIP3    H265849   0.687   6.720   4.190 -0.0450  1.4014  2.1398
14812TIP3   OH265850   5.988   0.038  11.679  0.2318 -0.2882 -0.5294
14812TIP3    H165851   5.911   0.081  11.716 -0.0189 -1.8328  0.8724
14812TIP3    H265852   6.047   0.110  11.656 -1.5005  0.9286 -1.4345
14813TIP3   OH265853   1.961   2.383   3.601 -0.2568 -0.2538 -0.6196
14813TIP3    H165854   1.919   2.400   3.686  2.5819 -0.3762  0.9319
14813TIP3    H265855   2.008   2.301   3.614  0.8587  0.1174 -2.0884
14814TIP3   OH265856   1.901   4.804  14.490  0.1449 -0.2838  0.0726
14814TIP3    H165857   1.883   4.835  14.579 -0.6013 -0.1628 -0.1126
14814TIP3    H265858   1.817   4.769  14.460 -0.2653  1.8705 -1.4588
14815TIP3   OH265859   3.167   4.626  10.680 -0.2835 -0.1576 -0.3087
14815TIP3    H165860   3.163   4.531  10.665  0.8047 -0.2401 -0.1177
14815TIP3    H265861   3.202   4.635  10.769 -2.0058  0.4103  0.3509
14816TIP3   OH265862   2.822   4.642   4.028 -0.3818  0.6863 -0.0273
14816TIP3    H165863   2.770   4.628   4.107 -1.6006 -0.9671 -1.0606
14816TIP3    H265864   2.790   4.725   3.993  0.4491  1.6445  1.3746
14817TIP3   OH265865   2.233   4.066  15.961  0.2970 -0.1777 -0.3101
14817TIP3    H165866   2.223   4.037  16.051 -0.9564  1.1744  0.0137
14817TIP3    H265867   2.176   4.007  15.911 -0.1542 -0.0047 -0.0086
14818TIP3   OH265868   3.064   2.661  13.035  0.4467  0.0767 -0.2345
14818TIP3    H165869   3.014   2.705  13.104 -1.1232 -4.3074  1.8253
14818TIP3    H265870   3.000   2.643  12.966  0.5140 -0.7059 -0.1049
14819TIP3   OH265871   4.684   3.241   5.036 -0.1644 -0.4351 -0.3120
14819TIP3    H165872   4.590   3.251   5.021 -0.0769  0.9840  0.0306
14819TIP3    H265873   4.691   3.175   5.105 -0.8712 -0.9589 -0.7282
14820TIP3   OH265874   1.798   6.209  14.170  0.2582  0.0347 -0.3929
14820TIP3    H165875   1.812   6.221  14.076  1.3272 -1.2940 -0.4294
14820TIP3    H265876   1.720   6.155  14.177  0.6225 -0.5187 -0.5561
14821TIP3   OH265877   3.488   6.700   5.064  0.6708 -0.3909 -0.1235
14821TIP3    H165878   3.499   6.788   5.028  1.9079 -0.7711 -0.7270
14821TIP3    H265879   3.400   6.700   5.101  0.5139  0.9787 -0.4506
14822TIP3   OH265880   0.237   1.338  14.035 -0.1533  0.1598 -0.6091
14822TIP3    H165881   0.274   1.332  14.123  0.8181  0.9407 -0.9429
14822TIP3    H265882   0.142   1.331  14.048 -0.0058  0.0526  0.4728
14823TIP3   OH265883   6.428   4.318  15.520  0.4485  0.5050  0.0051
14823TIP3    H165884   6.408   4.412  15.531  2.3379  0.9542 -0.0878
14823TIP3    H265885   6.520   4.310  15.545  0.2128 -1.4234  0.4054
14824TIP3   OH265886   3.391   3.300   5.558 -0.1184 -0.5555 -0.5441
14824TIP3    H165887   3.364   3.333   5.644 -0.1082  0.9675 -1.0956
14824TIP3    H265888   3.355   3.363   5.496  0.6970 -1.1005 -1.6068
14825TIP3   OH265889   0.534   6.269   0.530  0.4081 -0.0998 -0.4873
14825TIP3    H165890   0.524   6.231   0.617 -1.9848 -1.3914 -1.2269
14825TIP3    H265891   0.483   6.350   0.532 -1.7930 -1.3769 -1.2989
14826TIP3   OH265892   1.432   1.402  13.321  0.5382 -0.2869  0.0404
14826TIP3    H165893   1.506   1.453  13.352  0.1028  0.6798 -0.4442
14826TIP3    H265894   1.439   1.318  13.367  2.6150 -0.6976 -0.8904
14827TIP3   OH265895   3.319   1.326  13.003 -0.0460  0.2788 -0.1583
14827TIP3    H165896   3.362   1.335  12.917 -1.5553  1.0430 -0.8782
14827TIP3    H265897   3.296   1.416  13.027  0.0182  0.0288  0.8854
14828TIP3   OH265898   1.764   3.879  16.447 -0.2445  0.3849 -0.1074
14828TIP3    H165899   1.700   3.922  16.389 -2.6719 -0.6136  1.6438
14828TIP3    H265900   1.793   3.803  16.397  0.0733  1.1831 -1.1797
14829TIP3   OH265901   0.907   4.930  12.244  0.5326  0.3130 -0.0034
14829TIP3    H165902   0.971   4.909  12.312 -0.8841 -2.5240  0.6482
14829TIP3    H265903   0.822   4.926  12.289 -0.5274 -2.3819 -1.8996
14830TIP3   OH265904   4.451   0.948   2.088 -0.1275 -0.3462  0.1255
14830TIP3    H165905   4.392   0.881   2.055  1.3634 -2.5810  1.7173
14830TIP3    H265906   4.504   0.973   2.012 -0.0478 -1.7194 -0.2935
14831TIP3   OH265907   2.969   6.402   4.074  0.2129  0.2863 -0.5591
14831TIP3    H165908   3.013   6.456   4.008  0.5021  1.1224  0.2930
14831TIP3    H265909   2.877   6.399   4.046  0.3502  0.5496 -1.0435
14832TIP3   OH265910   5.005   2.926  12.237  0.1296 -0.4141 -0.2343
14832TIP3    H165911   4.928   2.904  12.186 -0.3112 -1.2730  0.7557
14832TIP3    H265912   5.020   2.848  12.292  0.7276  0.3652  0.7404
14833TIP3   OH265913   0.948   0.279  12.530  0.2440 -0.1834  0.3224
14833TIP3    H165914   1.020   0.340  12.513 -0.5834  0.9890  0.8148
14833TIP3    H265915   0.870   0.324  12.498 -0.8189  0.4070  3.3231
14834TIP3   OH265916   5.898   1.706   0.763 -0.6086  0.0273  0.5830
14834TIP3    H165917   5.836   1.773   0.794 -1.3164  0.3422 -1.3818
14834TIP3    H265918   5.845   1.649   0.707  0.3154 -1.3287  1.0390
14835TIP3   OH265919   4.802   3.861   4.761 -0.0668  0.0059  0.4852
14835TIP3    H165920   4.840   3.913   4.691 -0.2041  0.3471  0.6609
14835TIP3    H265921   4.829   3.771   4.742 -0.6038  0.0091 -0.3347
14836TIP3   OH265922   1.018   4.660  13.041 -0.2892 -0.2167 -0.0476
14836TIP3    H165923   0.969   4.601  13.098 -1.3478  0.5595 -0.1201
14836TIP3    H265924   0.973   4.654  12.956  0.0257  0.1567 -0.2440
14837TIP3   OH265925   3.082   5.959  13.751 -0.0725  0.3911 -0.0371
14837TIP3    H165926   3.008   5.906  13.720  0.1056  0.7441 -1.0957
14837TIP3    H265927   3.156   5.928  13.699 -0.5615  3.8965 -3.2010
14838TIP3   OH265928   0.496   1.417   0.339 -0.1837  0.4199 -0.0227
14838TIP3    H165929   0.590   1.412   0.319 -0.4059  0.3876 -1.1255
14838TIP3    H265930   0.461   1.331   0.318 -0.5314  0.5450  0.0272
14839TIP3   OH265931   0.866   2.332   0.241  0.3832 -0.2284  0.0771
14839TIP3    H165932   0.863   2.419   0.201 -2.1941 -0.5042 -0.5423
14839TIP3    H265933   0.780   2.323   0.283  0.2957 -2.7453 -0.5142
14840TIP3   OH265934   4.448   5.729  16.142 -0.2375  0.1390 -0.7019
14840TIP3    H165935   4.427   5.638  16.163 -0.3799  0.0668 -1.1347
14840TIP3    H265936   4.521   5.723  16.080  1.6814  0.4163  1.4247
14841TIP3   OH265937   6.367   3.026  11.474  0.4161  0.4112 -0.3039
14841TIP3    H165938   6.298   3.061  11.418 -0.0261  0.9829  0.5791
14841TIP3    H265939   6.442   3.083  11.457  1.5405 -1.6715 -3.1307
14842TIP3   OH265940   0.583   6.595  13.030  0.2656  0.6987 -0.2872
14842TIP3    H165941   0.563   6.665  12.969  1.2925 -0.1228 -1.6223
14842TIP3    H265942   0.679   6.596  13.037  0.1883  0.6807  1.2254
14843TIP3   OH265943   5.996   5.785  16.525  0.0953 -0.0001  0.7271
14843TIP3    H165944   6.041   5.781  16.441 -0.9079  1.3002  0.0849
14843TIP3    H265945   6.036   5.715  16.578  0.3462 -1.2187 -1.0089
14844TIP3   OH265946   4.284   6.629   6.100 -0.1433  0.0130 -0.0094
14844TIP3    H165947   4.339   6.648   6.025 -0.0752  1.2612  0.3340
14844TIP3    H265948   4.221   6.701   6.102 -0.3713 -0.2011  0.9110
14845TIP3   OH265949   4.433   1.926   0.320 -0.2944  0.3705 -0.4598
14845TIP3    H165950   4.489   1.859   0.360 -2.8536 -1.4109  0.3904
14845TIP3    H265951   4.494   1.980   0.270  2.2868 -0.8834  1.0705
14846TIP3   OH265952   2.832   1.797   0.483 -0.8747  1.0226 -0.0440
14846TIP3    H165953   2.826   1.815   0.389 -0.6854 -2.5409 -0.8730
14846TIP3    H265954   2.743   1.775   0.509 -0.8645  1.6805  0.5839
14847TIP3   OH265955   5.901   1.403  14.008  0.5137  0.2674 -0.1557
14847TIP3    H165956   5.892   1.314  13.973  0.1082 -0.3462  1.4034
14847TIP3    H265957   5.886   1.460  13.933  0.0562 -0.9748 -1.0458
14848TIP3   OH265958   5.812   4.915  10.818 -0.1761 -0.3929  0.4206
14848TIP3    H165959   5.749   4.888  10.750  0.3827  1.6538 -1.0041
14848TIP3    H265960   5.887   4.858  10.804  0.1284  0.3039 -1.0710
14849TIP3   OH265961   0.352   1.744  15.137 -0.1372 -0.6842  0.2170
14849TIP3    H165962   0.423   1.779  15.190 -1.1770  0.4740  0.8987
14849TIP3    H265963   0.395   1.712  15.058  0.9316  2.6410 -0.7437
14850TIP3   OH265964   6.240   0.920  17.026 -0.6877  0.0358  0.5257
14850TIP3    H165965   6.208   1.007  17.048 -1.4602  0.1211 -0.8428
14850TIP3    H265966   6.174   0.884  16.967 -0.3724 -1.4852  1.0560
14851TIP3   OH265967   1.450   2.983  17.146 -0.5544  0.4329 -0.5518
14851TIP3    H165968   1.468   2.916  17.211  0.2101  2.3458  1.3115
14851TIP3    H265969   1.356   3.001  17.155 -0.4773  0.5946 -0.0450
14852TIP3   OH265970   5.055   5.280  12.672  0.2542  0.4481 -0.4902
14852TIP3    H165971   4.971   5.269  12.626 -1.0783 -0.1908  1.9154
14852TIP3    H265972   5.032   5.326  12.752  2.6050  2.1942 -0.7179
14853TIP3   OH265973   1.927   5.316  15.662 -0.0066  0.0209 -0.4524
14853TIP3    H165974   1.951   5.393  15.612  0.8806 -0.1483 -0.2921
14853TIP3    H265975   1.903   5.349  15.749  0.5091  0.0981 -0.3410
14854TIP3   OH265976   1.754   6.608  12.997  0.6116 -0.6318  0.3582
14854TIP3    H165977   1.727   6.684  12.945 -0.9097 -1.1001  0.4004
14854TIP3    H265978   1.687   6.541  12.977  1.0824 -1.4555  1.4485
14855TIP3   OH265979   3.016   5.673   4.397 -0.2584  0.3523 -0.1300
14855TIP3    H165980   2.937   5.655   4.346 -0.0601  0.2930 -0.4148
14855TIP3    H265981   2.984   5.720   4.474 -0.6559 -0.2764  0.0955
14856TIP3   OH265982   4.931   2.292  14.526 -0.3873  0.6278 -0.2075
14856TIP3    H165983   4.851   2.245  14.549 -0.1351  0.6907  0.8835
14856TIP3    H265984   4.982   2.294  14.608  1.2478 -0.4151 -1.1376
14857TIP3   OH265985   0.169   4.855  16.878 -0.0963 -0.3226  0.3601
14857TIP3    H165986   0.112   4.908  16.822 -0.6577 -1.6176 -0.3287
14857TIP3    H265987   0.233   4.918  16.913  0.1074  0.5771 -1.5013
14858TIP3   OH265988   6.642   0.546   2.718 -0.8447  0.4669  0.1045
14858TIP3    H165989   6.669   0.465   2.761 -2.0136 -0.4674 -0.8357
14858TIP3    H265990   6.721   0.600   2.717 -0.3924 -0.0629  2.0237
14859TIP3   OH265991   4.475   5.053  16.146 -0.2105  0.2072  1.0407
14859TIP3    H165992   4.564   5.055  16.109 -0.0396 -1.7041  1.2664
14859TIP3    H265993   4.422   5.099  16.081  0.4178 -1.3544 -0.6754
14860TIP3   OH265994   3.311   1.089  13.962 -0.3180  0.0126  0.1461
14860TIP3    H165995   3.238   1.143  13.993  0.1715 -0.0772  1.5024
14860TIP3    H265996   3.379   1.098  14.029  1.2206  0.6443 -1.4169
14861TIP3   OH265997   3.075   5.261   2.121  0.3182  0.7124 -0.3706
14861TIP3    H165998   3.005   5.326   2.127 -0.2883  0.0991 -0.6058
14861TIP3    H265999   3.119   5.281   2.038 -1.1163 -0.3656 -1.4464
14862TIP3   OH266000   6.489   0.035   1.589  0.6191  0.2098 -0.1045
14862TIP3    H166001   6.566   0.054   1.643  1.3692 -0.6495 -0.8350
14862TIP3    H266002   6.469   0.117   1.544 -0.2500  1.0457  1.7238
14863TIP3   OH266003   3.265   1.421   2.778 -0.3910 -0.5248 -0.0989
14863TIP3    H166004   3.258   1.472   2.697  0.4982 -0.4280 -0.1302
14863TIP3    H266005   3.179   1.380   2.789  0.1551 -2.5058 -2.3938
14864TIP3   OH266006   6.150   0.484   6.559  0.4225  0.0603 -0.4462
14864TIP3    H166007   6.126   0.553   6.620 -0.8317  0.0422 -0.8784
14864TIP3    H266008   6.182   0.413   6.614 -2.2734 -0.6134  0.3961
14865TIP3   OH266009   3.135   1.600  16.598  0.0281  0.0656 -0.3098
14865TIP3    H166010   3.095   1.674  16.553  2.4502  1.0289 -1.0232
14865TIP3    H266011   3.103   1.607  16.689  0.0574  1.8655 -0.4106
14866TIP3   OH266012   6.319   4.293  11.952 -0.1471  0.0819 -0.1830
14866TIP3    H166013   6.381   4.355  11.913  0.7313 -0.8468 -0.2850
14866TIP3    H266014   6.314   4.319  12.044  0.3535  0.1984 -0.1845
14867TIP3   OH266015   5.732   6.668  17.200 -0.2763 -0.4088 -0.4607
14867TIP3    H166016   5.755   6.586  17.156  0.1853 -0.8661  0.5941
14867TIP3    H266017   5.816   6.713  17.211 -0.5884  0.4869 -1.5354
14868TIP3   OH266018   0.740   2.301   3.701  0.1358 -0.5279  0.5587
14868TIP3    H166019   0.702   2.319   3.787  1.1016  0.0681  0.8777
14868TIP3    H266020   0.812   2.363   3.693  0.6861 -1.2389 -0.2631
14869TIP3   OH266021   4.814   1.245  16.005  0.3476 -0.2274  0.5287
14869TIP3    H166022   4.750   1.201  15.950  2.4966 -2.0971 -0.6806
14869TIP3    H266023   4.804   1.204  16.091 -2.2900  1.9434  1.3884
14870TIP3   OH266024   0.987   1.163   4.822 -0.0562 -0.4303 -0.0832
14870TIP3    H166025   1.067   1.213   4.807  0.2408 -1.2956 -1.6258
14870TIP3    H266026   0.998   1.125   4.909  0.5645  0.5966  0.3043
14871TIP3   OH266027   3.837   2.063  11.908 -0.1967 -0.0936  0.0624
14871TIP3    H166028   3.809   2.133  11.966 -0.6448  1.0496 -1.4573
14871TIP3    H266029   3.931   2.055  11.923 -0.1694  0.7216  0.3729
14872TIP3   OH266030   0.220   3.358   4.272  0.0147 -0.4671  0.2169
14872TIP3    H166031   0.230   3.375   4.178 -0.0317 -1.7995 -0.0522
14872TIP3    H266032   0.149   3.415   4.300 -0.6832 -0.8209 -0.8011
14873TIP3   OH266033   2.091   3.038  14.207 -0.2157 -0.2702 -0.5363
14873TIP3    H166034   2.168   3.086  14.235 -0.5681  0.5290 -0.9125
14873TIP3    H266035   2.109   2.947  14.233 -0.6128  0.4039  2.4695
14874TIP3   OH266036   0.969   3.225   5.677 -0.1341  0.0462  0.1305
14874TIP3    H166037   1.017   3.305   5.698 -0.7960  0.3755  0.3947
14874TIP3    H266038   0.939   3.237   5.587 -1.1745  0.5751  0.5353
14875TIP3   OH266039   5.248   3.886   3.430  0.1941  0.9112  0.2455
14875TIP3    H166040   5.157   3.915   3.431  0.0598  0.8549 -2.5849
14875TIP3    H266041   5.248   3.807   3.375  2.1462  1.8105 -1.1844
14876TIP3   OH266042   6.168   4.515   4.941  0.2167 -0.0951  0.0535
14876TIP3    H166043   6.236   4.575   4.970 -0.7584  0.9469  0.2379
14876TIP3    H266044   6.150   4.460   5.017 -0.9729  1.3632  0.8706
14877TIP3   OH266045   1.042   3.984  14.807  0.0363  0.0713 -0.3695
14877TIP3    H166046   1.123   4.011  14.849 -0.2192  1.6808 -0.8473
14877TIP3    H266047   1.018   4.057  14.750 -2.3498  0.1510  0.6234
14878TIP3   OH266048   6.204   4.237   0.084  0.5571  0.0830 -0.0366
14878TIP3    H166049   6.135   4.299   0.104  1.8636  1.8406 -0.7201
14878TIP3    H266050   6.244   4.270   0.004  0.8074 -2.0994 -0.8770
14879TIP3   OH266051   2.045   1.011  11.892  0.0024  0.3724 -0.2324
14879TIP3    H166052   1.963   0.963  11.879  1.4388 -2.5330  0.6689
14879TIP3    H266053   2.109   0.944  11.916  2.3273  2.7098  0.5805
14880TIP3   OH266054   4.913   2.741   3.965  0.1075  0.3468 -0.1041
14880TIP3    H166055   5.001   2.779   3.968 -0.1748  1.2261 -2.1579
14880TIP3    H266056   4.900   2.716   3.874 -1.8817  0.4688  0.0989
14881TIP3   OH266057   2.601   5.766  15.051  0.0329 -0.5584  0.0433
14881TIP3    H166058   2.515   5.732  15.024 -0.4752  0.5325  0.2236
14881TIP3    H266059   2.664   5.708  15.009 -0.7734 -0.4744 -1.3581
14882TIP3   OH266060   0.613   0.759  13.476 -0.2611  0.7009  0.0729
14882TIP3    H166061   0.586   0.680  13.522 -0.3104  1.0052  0.5797
14882TIP3    H266062   0.586   0.745  13.385  0.0721 -0.0179  0.0846
14883TIP3   OH266063   6.187   6.583  12.920  0.4097  0.1557 -0.1588
14883TIP3    H166064   6.238   6.650  12.875  0.2309 -0.6811 -1.6635
14883TIP3    H266065   6.116   6.631  12.962  0.9685  1.0334 -0.1969
14884TIP3   OH266066   2.628   0.537   2.628 -0.0845  0.1517 -0.4898
14884TIP3    H166067   2.533   0.546   2.624 -0.0405  0.9590  0.0841
14884TIP3    H266068   2.645   0.507   2.717  0.0756 -2.0297 -1.1744
14885TIP3   OH266069   1.802   4.931  16.694 -0.4442  0.5783  0.3653
14885TIP3    H166070   1.809   5.017  16.735 -2.6255  1.0646 -0.1495
14885TIP3    H266071   1.847   4.940  16.610  0.4714  0.7872  0.8608
14886TIP3   OH266072   0.476   3.551   0.706 -0.4415  0.4318  0.5008
14886TIP3    H166073   0.451   3.460   0.693  0.7942  0.2160 -0.5087
14886TIP3    H266074   0.423   3.580   0.780  0.7349 -1.7516  2.3078
14887TIP3   OH266075   6.605   2.522  12.636 -0.4846 -0.3591 -0.0588
14887TIP3    H166076   6.532   2.584  12.631 -0.6705 -0.3596  1.9376
14887TIP3    H266077   6.563   2.435  12.632 -0.4529 -0.3606 -0.3697
14888TIP3   OH266078   5.585   4.821   5.175 -0.2088  0.3714 -0.1739
14888TIP3    H166079   5.599   4.757   5.105  1.2416  2.6408 -2.0954
14888TIP3    H266080   5.490   4.838   5.174 -0.4360 -0.8008 -0.4215
14889TIP3   OH266081   1.232   6.573   4.214  0.4045  0.6225  0.2172
14889TIP3    H166082   1.172   6.540   4.147  0.4430  0.6174  0.1853
14889TIP3    H266083   1.319   6.555   4.179  0.4449 -1.3115  1.1997
14890TIP3   OH266084   1.731   3.191  11.931  0.0558  0.1323 -0.5988
14890TIP3    H166085   1.786   3.221  12.003 -0.1868 -0.7113 -0.0439
14890TIP3    H266086   1.642   3.194  11.965 -0.1905  0.9470 -1.3015
14891TIP3   OH266087   2.149   5.734  16.615 -0.6973  0.1212 -0.1559
14891TIP3    H166088   2.112   5.717  16.702  0.7144  1.7425  0.8291
14891TIP3    H266089   2.237   5.696  16.619 -1.1266 -1.0655 -1.4227
14892TIP3   OH266090   3.545   4.861   0.887  0.2893  0.7593  0.6858
14892TIP3    H166091   3.627   4.819   0.861 -1.9515 -3.0270 -1.2194
14892TIP3    H266092   3.518   4.910   0.809 -0.4608 -0.2370  0.2937
14893TIP3   OH266093   6.491   5.879   2.461 -0.4037 -0.3018  0.3245
14893TIP3    H166094   6.456   5.826   2.390 -1.2649 -1.8941  1.8485
14893TIP3    H266095   6.414   5.907   2.510  0.0324  2.4472 -0.4251
14894TIP3   OH266096   5.666   0.271   4.511  0.2225 -0.2992  0.0029
14894TIP3    H166097   5.643   0.217   4.587 -1.5140 -0.2125 -0.4125
14894TIP3    H266098   5.683   0.358   4.548 -3.4785  0.5334  0.1643
14895TIP3   OH266099   2.022   3.953  16.546  0.3286  0.5063  0.0301
14895TIP3    H166100   2.093   3.955  16.482  0.7978 -2.3673  0.3347
14895TIP3    H266101   1.942   3.950  16.492  0.5118  1.5840 -0.3298
14896TIP3   OH266102   2.546   1.077   3.953 -0.1633 -0.6062 -0.5068
14896TIP3    H166103   2.552   0.983   3.939  1.0033 -0.4911 -0.8551
14896TIP3    H266104   2.619   1.114   3.904  0.1249  0.3768  0.6119
14897TIP3   OH266105   3.727   6.477   1.441  0.2120  0.2448 -0.3149
14897TIP3    H166106   3.707   6.565   1.472 -0.9436 -0.4486  1.0404
14897TIP3    H266107   3.655   6.456   1.382 -1.1848 -0.8561  1.6681
14898TIP3   OH266108   0.166   2.742  13.778 -0.1495  0.4268 -0.0885
14898TIP3    H166109   0.073   2.750  13.756 -0.2739 -0.4257  0.1090
14898TIP3    H266110   0.207   2.817  13.734 -0.8631  0.5585 -0.5482
14899TIP3   OH266111   1.907   2.067   3.316  0.1703  0.0527  0.1909
14899TIP3    H166112   1.963   2.130   3.361  1.7416 -1.1051 -0.0275
14899TIP3    H266113   1.932   2.074   3.224 -1.9513  1.3427 -0.3471
14900TIP3   OH266114   3.658   1.469  13.869 -0.1009 -0.0958  0.2011
14900TIP3    H166115   3.695   1.383  13.852 -0.8657 -0.3103 -0.4646
14900TIP3    H266116   3.730   1.521  13.904  0.2452 -1.1509  1.1097
14901TIP3   OH266117   2.503   3.906   4.012 -0.0539 -0.2880  0.4892
14901TIP3    H166118   2.555   3.890   3.932  3.1701 -3.4925  2.9064
14901TIP3    H266119   2.483   3.819   4.046 -2.5568  0.9544  2.5187
14902TIP3   OH266120   3.094   1.771  15.711 -0.1392  0.1156 -0.0561
14902TIP3    H166121   3.102   1.867  15.718 -0.2854  0.0213  2.9583
14902TIP3    H266122   3.058   1.745  15.796 -0.4706 -2.6041 -0.9638
14903TIP3   OH266123   4.617   5.788   1.303  0.1926 -0.5543  0.0838
14903TIP3    H166124   4.687   5.829   1.354  1.0964  0.7915 -2.0861
14903TIP3    H266125   4.538   5.835   1.331  1.0221  1.9161 -1.3960
14904TIP3   OH266126   3.714   0.632   3.097  0.1967  0.2075 -0.0455
14904TIP3    H166127   3.765   0.568   3.048 -0.0261 -1.0354  1.2810
14904TIP3    H266128   3.667   0.580   3.162 -0.7690  1.6180  0.4262
14905TIP3   OH266129   3.458   0.390   6.553  0.4885  0.2822  0.0753
14905TIP3    H166130   3.447   0.315   6.612 -0.8604 -0.1317 -0.6573
14905TIP3    H266131   3.395   0.374   6.483  0.4088  1.9426 -0.2579
14906TIP3   OH266132   3.321   2.549   1.304  0.1617 -0.1786 -0.0662
14906TIP3    H166133   3.290   2.635   1.276  1.3707 -0.0281 -0.9804
14906TIP3    H266134   3.331   2.499   1.223 -1.9017 -1.7031  0.5212
14907TIP3   OH266135   3.472   0.183   2.980  0.0280 -0.0406  0.2355
14907TIP3    H166136   3.458   0.123   3.053  0.2206  0.1607  0.4387
14907TIP3    H266137   3.532   0.250   3.014  1.5486 -0.9092 -0.6266
14908TIP3   OH266138   0.643   4.947   2.388  0.3761  0.4688  0.3158
14908TIP3    H166139   0.606   5.024   2.343  0.4521  1.6223  2.1133
14908TIP3    H266140   0.699   4.984   2.457  0.1913 -1.1889  1.4161
14909TIP3   OH266141   5.649   6.358   1.241  0.2616  0.3220 -0.4130
14909TIP3    H166142   5.614   6.328   1.324 -0.7572  0.7472 -0.6734
14909TIP3    H266143   5.707   6.431   1.264  0.3550  0.1327 -0.0440
14910TIP3   OH266144   3.666   2.254  16.322  0.2349 -0.4948 -0.4244
14910TIP3    H166145   3.676   2.252  16.227 -0.6827 -2.2114 -0.5284
14910TIP3    H266146   3.607   2.327  16.339  0.5992 -0.0243 -1.1445
14911TIP3   OH266147   2.864   5.713  17.006  0.0299  0.5235 -0.4955
14911TIP3    H166148   2.932   5.780  17.000  2.1354 -1.3706  0.9505
14911TIP3    H266149   2.909   5.630  16.993 -1.9668 -0.8437  0.6740
14912TIP3   OH266150   4.279   5.915  11.827 -0.5634 -0.2097  0.8095
14912TIP3    H166151   4.255   5.852  11.759 -0.5692  0.8744 -0.2253
14912TIP3    H266152   4.196   5.941  11.867 -0.9324  1.5036 -0.9317
14913TIP3   OH266153   1.634   1.195  12.258 -0.6329  0.4607 -0.1962
14913TIP3    H166154   1.625   1.100  12.252 -1.3598  0.1384  3.5760
14913TIP3    H266155   1.727   1.209  12.279 -0.7606  0.4592  0.3916
14914TIP3   OH266156   2.254   5.847   3.389  0.1720 -0.2506  0.0461
14914TIP3    H166157   2.322   5.912   3.374  0.1575 -0.5656 -1.6777
14914TIP3    H266158   2.177   5.882   3.344 -0.5558 -0.3211  1.1975
14915TIP3   OH266159   0.601   2.570   3.239  0.3178  0.1365 -0.2560
14915TIP3    H166160   0.625   2.499   3.300 -1.3996 -1.5023 -1.3819
14915TIP3    H266161   0.683   2.615   3.222  1.5421 -1.7551  0.3089
14916TIP3   OH266162   3.393   4.848   4.640 -0.4584  0.8156 -0.1350
14916TIP3    H166163   3.413   4.803   4.558 -1.2083  1.6801 -0.8084
14916TIP3    H266164   3.395   4.941   4.618  1.5989  1.1944  1.3486
14917TIP3   OH266165   0.029   6.379   4.208 -0.3514  0.4943  0.1908
14917TIP3    H166166   0.069   6.380   4.295 -0.9586 -0.2612  0.4919
14917TIP3    H266167  -0.064   6.363   4.224 -0.2534 -1.1271 -0.6588
14918TIP3   OH266168   1.888   4.680   1.339 -0.9365 -0.0811 -0.0548
14918TIP3    H166169   1.797   4.708   1.344 -0.6890  0.5694  1.1583
14918TIP3    H266170   1.933   4.751   1.293 -0.9419 -0.1622 -0.1869
14919TIP3   OH266171   5.835   3.307  11.836 -0.2962  0.2747  0.1435
14919TIP3    H166172   5.815   3.398  11.812  2.4100  0.8112 -0.3669
14919TIP3    H266173   5.846   3.309  11.931  1.4602  0.8970 -0.0452
14920TIP3   OH266174   5.548   0.336  17.127 -0.5744 -0.7473  0.1070
14920TIP3    H166175   5.642   0.339  17.146 -0.3970 -0.4193 -0.7392
14920TIP3    H266176   5.516   0.258  17.172  0.5634 -2.2122 -1.4943
14921TIP3   OH266177   2.999   3.999  14.790 -0.2130 -0.3253 -0.2004
14921TIP3    H166178   2.926   3.937  14.784 -0.6382  0.2591 -1.0705
14921TIP3    H266179   3.059   3.972  14.720  0.9149 -1.4160  1.1065
14922TIP3   OH266180   0.685   1.114   2.084  0.4424  0.4503 -0.7301
14922TIP3    H166181   0.732   1.046   2.036  0.9471 -0.1303  0.5638
14922TIP3    H266182   0.594   1.107   2.053  0.6157 -0.3738 -1.0797
14923TIP3   OH266183   6.428   1.662  15.643 -0.4236  0.0461  0.0703
14923TIP3    H166184   6.495   1.676  15.576 -0.4542  1.0192  0.2310
14923TIP3    H266185   6.476   1.661  15.726 -0.3698 -1.2781  0.0516
14924TIP3   OH266186   3.100   3.274  14.949  0.7628  0.2003  0.1704
14924TIP3    H166187   3.045   3.300  15.023  0.0954 -1.2901  0.2415
14924TIP3    H266188   3.165   3.344  14.941 -1.1030  2.0199  0.1053
14925TIP3   OH266189   3.287   4.046   4.927 -0.2051  0.0770 -0.2062
14925TIP3    H166190   3.230   4.051   5.004 -1.0595  1.8765 -0.9053
14925TIP3    H266191   3.249   4.107   4.865  0.9633 -0.7083 -1.7549
14926TIP3   OH266192   3.084   5.366   6.295 -0.5218 -0.4052 -0.2072
14926TIP3    H166193   3.114   5.433   6.356 -0.7674  2.0861 -2.6355
14926TIP3    H266194   3.133   5.383   6.214 -1.0945 -2.7641 -1.1356
14927TIP3   OH266195   2.913   4.053  14.414 -0.2835 -0.2519  0.0803
14927TIP3    H166196   2.820   4.032  14.409  0.0746 -1.9781  0.1119
14927TIP3    H266197   2.916   4.139  14.455 -1.7770 -1.5764  3.3244
14928TIP3   OH266198   1.875   5.647   1.087 -0.0220 -0.4195 -0.2539
14928TIP3    H166199   1.863   5.736   1.122 -1.6997 -0.0560 -1.6229
14928TIP3    H266200   1.949   5.612   1.137  0.0699  1.3892  0.9950
14929TIP3   OH266201   1.076   1.863   5.084 -0.9282 -0.0184 -0.2214
14929TIP3    H166202   1.106   1.936   5.030 -0.6518 -0.7691 -1.1231
14929TIP3    H266203   1.082   1.895   5.174 -1.1400  1.1697 -0.6167
14930TIP3   OH266204   6.173   3.344  14.884  0.1311 -0.4460  0.1072
14930TIP3    H166205   6.118   3.377  14.955  2.6665  0.1713  1.9457
14930TIP3    H266206   6.209   3.262  14.918  2.4170  0.5150  0.1500
14931TIP3   OH266207   1.395   4.915  12.312  0.3412 -0.3342  0.1667
14931TIP3    H166208   1.370   4.879  12.397 -0.7208 -0.5007 -0.2054
14931TIP3    H266209   1.410   5.008  12.328  1.0755 -0.5322  0.7132
14932TIP3   OH266210   1.265   3.439  11.453 -0.3473 -0.3585 -0.0537
14932TIP3    H166211   1.217   3.403  11.528  1.0211  1.5777  1.8966
14932TIP3    H266212   1.232   3.529  11.445  0.9368  0.0971 -0.4685
14933TIP3   OH266213   4.958   2.957   5.490  0.2846  0.0374  0.1503
14933TIP3    H166214   4.930   2.943   5.399  1.1534  0.0358 -0.1286
14933TIP3    H266215   4.978   3.050   5.494 -3.8071  1.0608  1.5291
14934TIP3   OH266216   1.605   3.459  12.643  0.1422 -0.2748 -0.3732
14934TIP3    H166217   1.517   3.495  12.636  0.0819  0.2664  2.2591
14934TIP3    H266218   1.596   3.384  12.701  1.2257 -1.0689 -1.1798
14935TIP3   OH266219   4.582   5.560   1.571 -0.4011  0.7195 -0.4794
14935TIP3    H166220   4.560   5.509   1.492 -0.6508 -1.9837  1.2132
14935TIP3    H266221   4.513   5.626   1.576 -2.1366 -0.9588 -0.9681
14936TIP3   OH266222   2.324   6.068   4.503 -0.2905 -0.0201 -0.5482
14936TIP3    H166223   2.414   6.093   4.523 -0.2524 -0.0604 -0.6670
14936TIP3    H266224   2.304   5.999   4.565  0.3319 -1.1865 -1.5909
14937TIP3   OH266225   3.814   1.928  13.581  0.5238  0.2268 -0.4711
14937TIP3    H166226   3.722   1.931  13.556 -0.3970  0.2600  2.5395
14937TIP3    H266227   3.856   1.996  13.527 -1.3694  0.8235 -1.2649
14938TIP3   OH266228   6.231   3.594   1.435 -0.0812 -0.3118  0.5130
14938TIP3    H166229   6.269   3.529   1.376 -1.6037  0.5940 -1.5842
14938TIP3    H266230   6.148   3.557   1.462  0.2480 -0.3672  1.5017
14939TIP3   OH266231   4.016   2.252   5.324  0.3241  0.4058  0.0770
14939TIP3    H166232   4.014   2.327   5.265  0.4826  0.1347 -0.2731
14939TIP3    H266233   3.931   2.255   5.369  0.8884  1.6362  1.1250
14940TIP3   OH266234   4.548   6.593  11.788 -0.0020 -0.4547 -0.0138
14940TIP3    H166235   4.545   6.688  11.786 -0.1837 -0.4616 -0.1858
14940TIP3    H266236   4.465   6.567  11.828  1.4737 -0.4634  3.3290
14941TIP3   OH266237   5.858   2.562   0.952 -0.0487 -0.1238  0.8662
14941TIP3    H166238   5.828   2.651   0.967 -0.4588 -0.3467  1.4122
14941TIP3    H266239   5.855   2.551   0.857 -0.4462  0.2933  0.8260
14942TIP3   OH266240   2.377   5.047   0.794 -0.6985 -0.4508 -0.6210
14942TIP3    H166241   2.454   5.024   0.743  0.3115  0.8565  0.2222
14942TIP3    H266242   2.393   5.138   0.821 -1.8604 -0.6237  0.7761
14943TIP3   OH266243   0.287   2.226  15.685  0.3781  0.1788 -0.1845
14943TIP3    H166244   0.355   2.189  15.741 -0.6905 -1.4196  0.1272
14943TIP3    H266245   0.307   2.192  15.597  0.3618  0.2648 -0.2216
14944TIP3   OH266246   2.635   4.163   1.331 -0.2426 -0.2569 -0.3048
14944TIP3    H166247   2.689   4.236   1.302 -1.2465  0.6542  0.0370
14944TIP3    H266248   2.639   4.166   1.427 -0.5275 -0.4509 -0.2825
14945TIP3   OH266249   5.031   0.494   0.813  0.2009  0.5525 -0.2535
14945TIP3    H166250   5.119   0.475   0.780  0.6175 -1.0613  1.6182
14945TIP3    H266251   4.994   0.408   0.833 -0.6615  1.3278  1.7462
14946TIP3   OH266252   5.246   4.602   3.458 -0.2955  0.0248 -0.0566
14946TIP3    H166253   5.282   4.515   3.442 -1.6563 -0.5801  0.0849
14946TIP3    H266254   5.195   4.622   3.380  0.4180  0.9301 -0.3088
14947TIP3   OH266255   5.406   1.359   1.281 -0.1369 -0.0569 -0.6888
14947TIP3    H166256   5.396   1.357   1.377 -0.5909  0.0428 -0.7327
14947TIP3    H266257   5.351   1.432   1.253  0.5889  0.3977 -0.9603
14948TIP3   OH266258   0.872   2.674  15.516  0.7167 -0.4981 -0.2542
14948TIP3    H166259   0.891   2.586  15.548  0.0939 -0.5860 -0.1198
14948TIP3    H266260   0.957   2.719  15.517  0.8508 -0.7660  0.6783
14949TIP3   OH266261   3.089   3.282  14.658  0.1892 -0.2381 -0.4671
14949TIP3    H166262   3.133   3.212  14.706  3.0251  2.4226  1.2728
14949TIP3    H266263   3.016   3.307  14.714 -0.1695 -1.0687 -0.5554
14950TIP3   OH266264   1.699   5.843  14.597 -0.5349 -0.6317  0.3045
14950TIP3    H166265   1.677   5.773  14.659 -2.2337 -0.4609 -0.0502
14950TIP3    H266266   1.761   5.802  14.537 -1.4214 -1.8460  0.1656
14951TIP3   OH266267   1.942   1.042   1.087 -0.0906 -0.6713 -0.3778
14951TIP3    H166268   1.981   1.083   1.010  0.1639 -1.5888 -0.7424
14951TIP3    H266269   1.966   1.100   1.160 -1.6663  1.0773 -1.1727
14952TIP3   OH266270   6.161   4.785   2.968  0.0339  0.2951 -0.0169
14952TIP3    H166271   6.211   4.762   2.891  1.8770  0.0672  1.1839
14952TIP3    H266272   6.144   4.702   3.012 -1.6351  0.3408 -0.5015
14953TIP3   OH266273   2.682   1.004  13.924 -0.1879 -1.3087 -0.1049
14953TIP3    H166274   2.666   1.040  13.837  2.9236 -0.2229 -0.3283
14953TIP3    H266275   2.771   0.970  13.920  0.0871 -1.1343  2.6685
14954TIP3   OH266276   0.713   3.220  15.920 -0.0474 -0.3425  0.2555
14954TIP3    H166277   0.757   3.230  15.835 -5.9352  0.5030 -3.2106
14954TIP3    H266278   0.724   3.305  15.962  0.2878  0.3830 -1.2256
14955TIP3   OH266279   2.291   2.214   3.737  0.2641 -0.2850  0.4179
14955TIP3    H166280   2.204   2.201   3.775  0.7059  2.5764  2.7806
14955TIP3    H266281   2.276   2.267   3.659 -0.0963  0.8857  1.2615
14956TIP3   OH266282   2.642   2.618   2.811  0.0409 -0.1403 -0.1532
14956TIP3    H166283   2.644   2.559   2.886 -0.2452 -0.1702 -0.1687
14956TIP3    H266284   2.681   2.567   2.740 -0.7600 -0.5351 -0.3242
14957TIP3   OH266285   2.027   5.627   0.244  0.4365  0.3534  0.5881
14957TIP3    H166286   2.119   5.642   0.224  0.0321  1.9254 -0.2152
14957TIP3    H266287   2.003   5.697   0.304 -0.4605  0.5149  0.0650
14958TIP3   OH266288   3.290   6.320   2.792  0.2400  0.0987 -0.2989
14958TIP3    H166289   3.361   6.360   2.740  0.1517 -0.6165 -0.9835
14958TIP3    H266290   3.245   6.395   2.832 -0.2120  0.7412 -1.9347
14959TIP3   OH266291   6.692   1.792  13.963  0.1431  0.2441 -0.7221
14959TIP3    H166292   6.666   1.718  14.018 -0.0054 -0.6274 -1.9421
14959TIP3    H266293   6.787   1.796  13.971  0.2297 -0.5728 -1.2461
14960TIP3   OH266294   6.323   0.191   3.727  0.1968 -0.7964  0.1443
14960TIP3    H166295   6.288   0.183   3.638  0.2114  1.8008 -0.1457
14960TIP3    H266296   6.409   0.148   3.722  0.8588  0.5840 -1.5413
14961TIP3   OH266297   5.235   3.832  13.832  0.1402  0.0571  0.4896
14961TIP3    H166298   5.306   3.775  13.860  1.1798  1.0491 -0.0216
14961TIP3    H266299   5.257   3.918  13.868 -0.1125  0.6689 -0.7261
14962TIP3   OH266300   4.820   5.298  11.415 -0.6499 -0.4457  0.6553
14962TIP3    H166301   4.798   5.263  11.329 -0.7019 -0.6390  0.7462
14962TIP3    H266302   4.842   5.390  11.399  0.4750 -0.7678  0.2685
14963TIP3   OH266303   1.990   5.569  13.326  0.1959  0.7835 -0.3047
14963TIP3    H166304   1.921   5.608  13.273  0.0212  0.8917 -0.0029
14963TIP3    H266305   2.039   5.644  13.361 -0.0561  0.7365  0.1646
14964TIP3   OH266306   5.825   1.594  12.836 -0.4138  0.0116 -0.0040
14964TIP3    H166307   5.794   1.684  12.828  1.6070  0.6847 -1.0869
14964TIP3    H266308   5.919   1.603  12.855  0.1363 -1.8286 -1.5464
14965TIP3   OH266309   2.447   1.354   6.572  0.2258 -0.0217 -0.5632
14965TIP3    H166310   2.526   1.406   6.559  0.5357 -0.0455  1.0048
14965TIP3    H266311   2.477   1.275   6.617 -0.7281  0.1851  0.4800
14966TIP3   OH266312   1.905   1.338  13.507 -0.3384 -0.3390  0.1773
14966TIP3    H166313   2.000   1.337  13.500 -0.3498  0.7302 -0.3643
14966TIP3    H266314   1.887   1.392  13.584 -0.5188  0.8659 -0.6799
14967TIP3   OH266315   2.135   2.219   0.588  0.1319  0.0045 -0.9284
14967TIP3    H166316   2.229   2.233   0.579  0.2294 -0.5094 -0.7262
14967TIP3    H266317   2.098   2.307   0.596  0.9411  0.1578  2.4345
14968TIP3   OH266318   5.204   3.063   5.880  0.1744 -0.4552 -0.2005
14968TIP3    H166319   5.271   3.087   5.944  1.1246 -0.1773 -1.2931
14968TIP3    H266320   5.152   2.996   5.925  0.3688  0.2541  1.1355
14969TIP3   OH266321   0.434   3.404   5.434  0.1070  0.2014 -0.2545
14969TIP3    H166322   0.414   3.492   5.402  1.4112  0.2171 -1.0953
14969TIP3    H266323   0.364   3.385   5.497 -0.3147  1.7508 -0.2135
14970TIP3   OH266324   2.128   6.124   3.128 -0.0351 -0.3032 -0.2258
14970TIP3    H166325   2.177   6.192   3.174 -0.1995 -0.5955  0.3992
14970TIP3    H266326   2.195   6.072   3.083  0.0196  0.8558 -1.5469
14971TIP3   OH266327   2.632   6.629   4.059  0.0268 -0.1144 -0.3040
14971TIP3    H166328   2.641   6.700   3.995 -1.9648 -0.9977 -1.6918
14971TIP3    H266329   2.537   6.613   4.062  0.3963 -2.4733  0.2070
14972TIP3   OH266330   1.236   6.000   0.937  0.0126 -0.2541 -0.2126
14972TIP3    H166331   1.299   6.056   0.893  0.7104 -2.1578 -1.7561
14972TIP3    H266332   1.156   6.009   0.886 -0.0372 -0.2724 -0.1388
14973TIP3   OH266333   5.251   1.378  12.937  0.2799 -0.4714 -0.1253
14973TIP3    H166334   5.177   1.317  12.945 -0.1757  0.0966  0.0794
14973TIP3    H266335   5.219   1.446  12.878  0.4481  0.0629  0.3898
14974TIP3   OH266336   4.205   4.213   1.277 -0.2521  0.8718  0.0810
14974TIP3    H166337   4.202   4.309   1.271 -0.4408  0.8344 -0.5676
14974TIP3    H266338   4.144   4.184   1.209 -1.7791  0.3078  1.6204
14975TIP3   OH266339   4.574   0.164   1.950  0.3013  0.6702  0.2918
14975TIP3    H166340   4.656   0.204   1.979 -0.5888  2.1219  0.9101
14975TIP3    H266341   4.574   0.077   1.990  0.8970  1.1888  1.4807
14976TIP3   OH266342   1.358   1.853  13.122  0.4266 -0.1204  0.1565
14976TIP3    H166343   1.279   1.901  13.095 -0.2340 -1.7785 -1.0010
14976TIP3    H266344   1.383   1.894  13.205 -1.7490  0.3580  0.6463
14977TIP3   OH266345   5.181   4.441   2.506  0.1892 -0.2711  0.5168
14977TIP3    H166346   5.088   4.453   2.488 -0.0717 -3.3025 -0.7306
14977TIP3    H266347   5.185   4.360   2.557  2.1825 -0.5200  0.0383
14978TIP3   OH266348   0.750   4.311   6.231  0.3084  0.4870 -0.6968
14978TIP3    H166349   0.703   4.394   6.238 -4.3516 -1.9743  1.3194
14978TIP3    H266350   0.776   4.291   6.321  0.6078 -0.6315 -1.0210
14979TIP3   OH266351   5.443   5.998   2.447 -0.4947  1.2504  0.1933
14979TIP3    H166352   5.493   6.046   2.512 -0.4344  0.4463  0.7583
14979TIP3    H266353   5.466   5.906   2.461 -1.3306  0.9595 -0.2207
14980TIP3   OH266354   6.215   6.700  12.538 -0.4094  0.7304 -0.5284
14980TIP3    H166355   6.245   6.788  12.558 -0.7643  1.2917 -2.2954
14980TIP3    H266356   6.153   6.711  12.466  0.3044 -1.0373 -1.4894
14981TIP3   OH266357   5.763   4.486  14.082 -0.1443 -0.3104  0.3397
14981TIP3    H166358   5.758   4.401  14.039 -1.0076 -0.0119 -0.1726
14981TIP3    H266359   5.726   4.548  14.019  1.0085  0.5539  0.4650
14982TIP3   OH266360   2.586   6.098  11.883  0.2339  0.1812 -0.1592
14982TIP3    H166361   2.583   6.155  11.806 -0.4640 -0.0290 -0.2943
14982TIP3    H266362   2.567   6.011  11.849 -0.9102  0.2074  0.3532
14983TIP3   OH266363   5.450   5.439  17.216  0.2535  0.7133 -0.5265
14983TIP3    H166364   5.508   5.430  17.291  0.6666  1.8066 -0.6964
14983TIP3    H266365   5.379   5.496  17.248 -0.3218  0.0205 -0.5497
14984TIP3   OH266366   4.916   4.382  14.980  0.1129  0.0454  0.0309
14984TIP3    H166367   4.940   4.470  15.011 -0.8307  1.1264 -2.0899
14984TIP3    H266368   4.999   4.335  14.976  1.2158  1.9809 -2.0800
14985TIP3   OH266369   3.264   6.387  11.583 -0.0289 -0.0596  0.4419
14985TIP3    H166370   3.264   6.318  11.649 -0.0737 -0.4212  0.0667
14985TIP3    H266371   3.194   6.363  11.523 -0.0303  0.2992  0.2983
14986TIP3   OH266372   6.589   1.833  14.454  0.2095  0.4454 -0.0560
14986TIP3    H166373   6.542   1.814  14.373  1.7897 -2.8787 -0.3607
14986TIP3    H266374   6.668   1.881  14.425  0.0294  0.6142 -0.2739
14987TIP3   OH266375   6.615   1.656  11.666  0.1470 -0.4270 -0.2561
14987TIP3    H166376   6.668   1.669  11.744 -1.0654  1.2272  0.3376
14987TIP3    H266377   6.668   1.690  11.594 -0.5560  2.5222  0.5013
14988TIP3   OH266378   3.507   6.199   3.879  0.2455 -0.3004 -0.1507
14988TIP3    H166379   3.515   6.263   3.809 -0.7643 -1.0121 -0.9643
14988TIP3    H266380   3.416   6.207   3.908  0.1884 -1.1520 -0.0661
14989TIP3   OH266381   5.898   1.527  12.428  0.5302 -0.1883 -0.2098
14989TIP3    H166382   5.868   1.594  12.489 -0.3972 -0.1509 -0.6926
14989TIP3    H266383   5.826   1.464  12.424  1.8658 -1.9367  1.2127
14990TIP3   OH266384   0.119   5.338   3.055  0.4549  0.6946  0.3846
14990TIP3    H166385   0.025   5.352   3.048  0.2790 -0.7465 -0.5187
14990TIP3    H266386   0.144   5.305   2.968  1.2903 -1.6573  1.4598
14991TIP3   OH266387   3.640   6.023   4.215 -0.4008  0.4655 -0.2177
14991TIP3    H166388   3.561   6.012   4.161 -0.0615 -0.3542 -0.5634
14991TIP3    H266389   3.610   6.012   4.305 -0.7136  0.3489 -0.3346
14992TIP3   OH266390   6.426   1.754  16.701  0.1207 -0.2226 -0.9106
14992TIP3    H166391   6.450   1.823  16.639  1.5333  0.4677  0.3616
14992TIP3    H266392   6.471   1.676  16.668  3.1909  0.7296  0.6373
14993TIP3   OH266393   4.034   5.168   1.485  0.3430 -0.3860 -0.4942
14993TIP3    H166394   4.046   5.239   1.548 -0.0819 -0.2755 -0.5299
14993TIP3    H266395   4.112   5.171   1.430  0.5605 -0.2698 -0.1778
14994TIP3   OH266396   3.639   1.256  15.212 -1.0473  0.2543 -0.1283
14994TIP3    H166397   3.567   1.209  15.254  0.8131 -2.2871  0.4881
14994TIP3    H266398   3.651   1.213  15.128  0.2923 -0.0005  0.1595
14995TIP3   OH266399   3.187   3.513  11.600 -0.1170  0.0174  0.0860
14995TIP3    H166400   3.113   3.451  11.599  0.1915 -0.3466 -0.6174
14995TIP3    H266401   3.264   3.457  11.606  0.1711  0.3368 -0.6341
14996TIP3   OH266402   1.336   5.414   2.062  0.1991 -0.1067  0.0441
14996TIP3    H166403   1.372   5.494   2.026  1.1147 -0.7799 -0.5763
14996TIP3    H266404   1.394   5.392   2.135  0.5000 -0.6841 -0.3624
14997TIP3   OH266405   2.386   5.827  16.297  0.3153  0.2306 -0.5845
14997TIP3    H166406   2.291   5.825  16.290  0.1811 -1.1262  0.9920
14997TIP3    H266407   2.406   5.910  16.340 -0.2420  0.0226  0.0781
14998TIP3   OH266408   2.508   3.806   5.003  0.3044  0.3217  0.1694
14998TIP3    H166409   2.509   3.877   4.939 -0.1108 -0.9341 -1.2954
14998TIP3    H266410   2.419   3.771   4.998  1.2307 -2.0300 -1.1761
14999TIP3   OH266411   0.216   2.822  14.409 -0.1048  0.3877 -0.0213
14999TIP3    H166412   0.136   2.843  14.456 -1.3690 -0.1580 -1.8512
14999TIP3    H266413   0.227   2.727  14.420 -0.0616  0.3585 -0.2998
15000TIP3   OH266414   6.404   3.789   3.456  0.1649  0.1351 -1.0213
15000TIP3    H166415   6.437   3.801   3.367  1.7804 -0.3263 -0.5190
15000TIP3    H266416   6.324   3.737   3.445 -0.0813  0.7448 -2.2466
15001TIP3   OH266417   0.746   2.032   4.205  0.2268 -0.6257 -0.0716
15001TIP3    H166418   0.705   2.055   4.288  0.7588  1.6264 -0.3530
15001TIP3    H266419   0.833   2.001   4.229  0.6783  0.7710  0.2402
15002TIP3   OH266420   3.567   5.645  14.597 -0.3719  0.2728  0.0123
15002TIP3    H166421   3.561   5.624  14.690 -1.2040  0.1950 -0.0506
15002TIP3    H266422   3.476   5.641  14.566 -0.2880  1.7254 -0.4811
15003TIP3   OH266423   1.774   4.161  13.408  0.3492 -0.6393 -0.6793
15003TIP3    H166424   1.721   4.106  13.467  0.5630 -0.4458 -0.3047
15003TIP3    H266425   1.831   4.211  13.466  0.0940  0.0548 -1.0099
15004TIP3   OH266426   1.629   1.384  16.900 -0.1935  0.1487  0.4000
15004TIP3    H166427   1.652   1.306  16.850 -0.1276  1.5462 -1.8650
15004TIP3    H266428   1.550   1.359  16.949 -0.1163 -1.3391 -0.1939
15005TIP3   OH266429   0.770   6.648   1.663 -0.5319  0.6133  0.6059
15005TIP3    H166430   0.707   6.652   1.591 -0.4711  0.5372  0.5480
15005TIP3    H266431   0.748   6.722   1.719 -0.9632  0.3260  0.8266
15006TIP3   OH266432   5.481   4.284  11.047  0.1402 -0.0704  0.4409
15006TIP3    H166433   5.434   4.229  10.985  1.1261 -1.0236  0.4922
15006TIP3    H266434   5.451   4.254  11.133 -0.4503  0.5334  0.4527
15007TIP3   OH266435   3.087   4.451  15.277  0.0348  0.2276  0.5372
15007TIP3    H166436   3.171   4.481  15.241  0.4098  0.2096  1.3878
15007TIP3    H266437   3.051   4.528  15.321 -0.6266  0.3663 -0.2071
15008TIP3   OH266438   1.819   5.877   5.374  0.3626 -0.1827  0.2152
15008TIP3    H166439   1.877   5.936   5.421 -0.3518  1.0165 -0.3647
15008TIP3    H266440   1.736   5.924   5.367  0.4910 -0.1966 -2.3941
15009TIP3   OH266441   2.659   4.849   1.107 -0.3595 -0.5376 -0.1986
15009TIP3    H166442   2.688   4.758   1.111 -0.8208 -0.7993 -1.8065
15009TIP3    H266443   2.564   4.844   1.096 -0.4761  0.1636  0.3788
15010TIP3   OH266444   1.447   6.398   0.622  0.4134  0.1660  0.0798
15010TIP3    H166445   1.513   6.424   0.558 -0.2876  1.1161 -0.2944
15010TIP3    H266446   1.383   6.348   0.571  1.8812 -2.6798  0.8461
15011TIP3   OH266447   4.159   1.211   3.262 -0.1880 -0.0670 -0.2666
15011TIP3    H166448   4.087   1.212   3.198 -0.8617  0.6635  0.4906
15011TIP3    H266449   4.192   1.301   3.262 -0.4565  0.0380  0.7016
15012TIP3   OH266450   0.078   1.675   1.279 -0.1033 -0.4332 -0.2103
15012TIP3    H166451   0.117   1.601   1.232  1.7016  0.6027 -0.4315
15012TIP3    H266452   0.048   1.734   1.210  2.7277  1.1817 -0.2115
15013TIP3   OH266453   1.304   6.176  10.850  0.4203  0.1115  0.1068
15013TIP3    H166454   1.264   6.250  10.804  1.7492 -0.3949 -2.0059
15013TIP3    H266455   1.248   6.162  10.927 -1.4131  1.5559 -0.8807
15014TIP3   OH266456   2.594   2.995  11.962  0.5483  0.0972 -0.1580
15014TIP3    H166457   2.510   3.016  11.921  0.1904  0.4939  0.7538
15014TIP3    H266458   2.581   2.908  12.000  0.6730 -0.0015 -0.3422
15015TIP3   OH266459   5.637   1.174  13.038 -0.6383 -0.0542  0.0896
15015TIP3    H166460   5.562   1.228  13.066 -1.0183 -1.1988  1.3696
15015TIP3    H266461   5.606   1.130  12.959 -0.7074  0.7649 -0.3517
15016TIP3   OH266462   5.742   0.051   0.118 -0.8548  0.5319  0.1060
15016TIP3    H166463   5.786   0.006   0.190  0.2418 -2.2018 -2.0899
15016TIP3    H266464   5.651   0.024   0.125 -0.4522 -1.0685 -0.4132
15017TIP3   OH266465   1.733   2.388  13.702 -0.3002 -0.3010  0.1073
15017TIP3    H166466   1.779   2.472  13.703  0.0683 -0.4808  1.7073
15017TIP3    H266467   1.780   2.336  13.638 -0.2302  0.5504 -0.5526
15018TIP3   OH266468   5.208   3.882   2.880 -0.1293  0.1028 -0.2475
15018TIP3    H166469   5.149   3.957   2.883 -1.5403 -0.9866  0.1063
15018TIP3    H266470   5.293   3.919   2.854 -1.5254  1.3443 -3.5230
15019TIP3   OH266471   1.579   0.063  12.586 -0.2342 -0.0418 -0.3585
15019TIP3    H166472   1.505   0.104  12.630  0.3850 -0.0321  0.7120
15019TIP3    H266473   1.551   0.052  12.495 -1.8121 -0.6893  0.1842
15020TIP3   OH266474   6.044   0.661   0.677  0.5813  0.3403 -0.2194
15020TIP3    H166475   5.970   0.720   0.661  0.5314  0.4813  0.4726
15020TIP3    H266476   6.039   0.642   0.771  1.0022 -0.2235 -0.3039
15021TIP3   OH266477   1.015   0.362  13.885  0.0161 -0.3196 -0.3135
15021TIP3    H166478   1.023   0.450  13.851  0.1940 -1.1085 -2.4648
15021TIP3    H266479   0.924   0.355  13.915  0.1964  0.7689  0.5619
15022TIP3   OH266480   0.153   2.386  11.733  0.5843 -0.0508 -0.1132
15022TIP3    H166481   0.213   2.457  11.710  0.1420 -0.2134 -1.8318
15022TIP3    H266482   0.180   2.312  11.678  0.9381 -1.2020  1.5264
15023TIP3   OH266483   6.109   1.667   3.763  0.5150 -0.3673 -0.3862
15023TIP3    H166484   6.053   1.597   3.798  0.9579  0.3621  1.9896
15023TIP3    H266485   6.127   1.723   3.839  0.3037  2.2648 -2.1601
15024TIP3   OH266486   4.390   4.013  17.265 -0.3904  0.0308  0.3094
15024TIP3    H166487   4.440   4.080  17.218  0.6256  0.5708  2.0672
15024TIP3    H266488   4.366   4.055  17.348  0.6158 -1.8603  1.6490
15025TIP3   OH266489   6.218   4.640   5.238 -0.5357  0.8945 -0.4044
15025TIP3    H166490   6.133   4.595   5.244 -0.9009  1.4786 -1.0580
15025TIP3    H266491   6.197   4.725   5.199  0.1992  1.4958  0.4857
15026TIP3   OH266492   3.949   0.687  13.049 -0.3297 -0.8958 -0.0414
15026TIP3    H166493   3.905   0.672  13.133  1.7609  0.6934  1.4146
15026TIP3    H266494   3.959   0.782  13.044  0.7547 -1.0643 -1.4776
15027TIP3   OH266495   5.035   3.494  14.522  0.1069 -0.0407 -0.4872
15027TIP3    H166496   5.081   3.478  14.604 -0.5248 -0.8005 -0.2658
15027TIP3    H266497   5.010   3.407  14.490  0.1455  0.2576 -1.3736
15028TIP3   OH266498   0.044   2.057  14.496  0.2357 -0.6627 -0.3974
15028TIP3    H166499   0.119   2.111  14.469  0.5142 -1.2905 -0.8941
15028TIP3    H266500  -0.032   2.106  14.466  0.4447 -0.0193  0.1079
15029TIP3   OH266501   5.947   2.077  11.717  0.3820 -0.4669  0.9456
15029TIP3    H166502   5.946   2.140  11.789 -1.0957 -1.7379  2.1235
15029TIP3    H266503   5.968   2.129  11.640  1.3173  1.0702  2.1679
15030TIP3   OH266504   1.427   0.330  13.212 -0.1414 -0.6627 -0.4097
15030TIP3    H166505   1.428   0.304  13.119  2.4721 -1.5883 -0.2109
15030TIP3    H266506   1.437   0.248  13.259 -1.4442 -0.1946  0.7387
15031TIP3   OH266507   4.138   6.742   0.614 -0.1931  0.6786 -0.3347
15031TIP3    H166508   4.198   6.816   0.618  0.0594  0.4441  0.4954
15031TIP3    H266509   4.193   6.667   0.595 -0.2697  0.5204  0.0499
15032TIP3   OH266510   4.554   3.123  15.726  0.1228  0.1670  0.1286
15032TIP3    H166511   4.573   3.180  15.800  2.4628 -0.6829  0.2428
15032TIP3    H266512   4.624   3.141  15.663  0.1306 -1.5927 -0.4027
15033TIP3   OH266513   3.143   1.976   3.379 -0.1013  0.1538 -0.3960
15033TIP3    H166514   3.232   1.966   3.344 -0.0826  1.3733 -0.7453
15033TIP3    H266515   3.092   2.010   3.305 -0.8461 -0.4335 -0.1669
15034TIP3   OH266516   2.803   4.445  16.124  0.3785  0.1411 -0.7573
15034TIP3    H166517   2.841   4.415  16.206 -2.6973 -0.3036  0.6310
15034TIP3    H266518   2.764   4.530  16.145 -1.3353 -0.4270 -1.4221
15035TIP3   OH266519   2.174   2.171  17.192  0.2081  0.3102  0.1614
15035TIP3    H166520   2.245   2.181  17.255  1.0862 -3.2108 -0.0596
15035TIP3    H266521   2.217   2.137  17.113 -1.3795  0.9078 -1.0036
15036TIP3   OH266522   0.735   5.874  14.779 -0.2810  0.1740 -0.2166
15036TIP3    H166523   0.806   5.932  14.809  0.0434 -0.3569  0.0555
15036TIP3    H266524   0.750   5.864  14.685  0.4517 -0.5222 -0.0402
15037TIP3   OH266525   3.418   3.520   4.411  0.4665 -0.3809 -0.5140
15037TIP3    H166526   3.325   3.498   4.401  0.4400 -0.7894  0.5117
15037TIP3    H266527   3.444   3.476   4.491  1.1626  0.9726  0.0373
15038TIP3   OH266528   1.253   2.556   1.674 -0.2653  0.0042 -0.2252
15038TIP3    H166529   1.344   2.527   1.680  0.0246  1.0910  1.3946
15038TIP3    H266530   1.215   2.503   1.604  0.6691 -3.0090  1.3755
15039TIP3   OH266531   2.936   2.770   5.146  1.0629 -0.5503 -0.5684
15039TIP3    H166532   2.968   2.831   5.212  1.3741 -0.5652 -0.7022
15039TIP3    H266533   2.934   2.821   5.065 -1.5102  0.1345 -0.1306
15040TIP3   OH266534   3.867   5.836  12.580  0.3589  0.4177 -0.5885
15040TIP3    H166535   3.797   5.772  12.570  0.3554  0.3478 -0.1360
15040TIP3    H266536   3.859   5.867  12.671  1.6761 -0.4841 -0.1289
15041TIP3   OH266537   3.979   3.148  14.373  0.2021  0.0365  0.8008
15041TIP3    H166538   3.999   3.081  14.308 -0.2381  0.6119  0.0535
15041TIP3    H266539   4.058   3.201  14.377  0.1417  0.1468  0.5494
15042TIP3   OH266540   1.683   4.119   3.719  0.4219  0.0774  0.2298
15042TIP3    H166541   1.746   4.164   3.776  0.5518 -1.4387  1.3419
15042TIP3    H266542   1.679   4.173   3.640  1.4384  1.3887  1.0385
15043TIP3   OH266543   1.669   1.385  16.161  0.0650 -0.0118 -0.2361
15043TIP3    H166544   1.580   1.421  16.163  1.4417  4.0273 -0.8583
15043TIP3    H266545   1.670   1.328  16.084 -1.9373 -0.1582 -0.2174
15044TIP3   OH266546   4.547   2.515   2.636 -0.5726  0.1939 -0.8207
15044TIP3    H166547   4.608   2.552   2.573  0.2753  2.4849  1.1833
15044TIP3    H266548   4.547   2.421   2.618  3.0155  0.1675 -1.3944
15045TIP3   OH266549   6.692   4.268   4.181  0.4155 -0.0366  0.0656
15045TIP3    H166550   6.749   4.200   4.217 -1.0154 -1.7969 -0.7922
15045TIP3    H266551   6.667   4.235   4.094 -2.6697  0.1082  0.7831
15046TIP3   OH266552   0.427   1.763   1.520  0.0362 -0.6523 -0.2302
15046TIP3    H166553   0.333   1.773   1.503 -0.0338  0.4203  0.6283
15046TIP3    H266554   0.439   1.802   1.607  1.3581 -0.3353 -0.5374
15047TIP3   OH266555   2.964   3.952  13.838  0.0288  0.3418 -0.2002
15047TIP3    H166556   2.893   4.014  13.853  1.2297  1.5920  0.5478
15047TIP3    H266557   2.921   3.867  13.829 -1.6514  1.2378 -1.0966
15048TIP3   OH266558   4.892   2.740  13.798  0.4900 -0.2893  0.2959
15048TIP3    H166559   4.948   2.729  13.875 -0.6103  0.3903  1.2382
15048TIP3    H266560   4.863   2.651  13.778  1.8740 -0.6482 -0.2102
15049TIP3   OH266561   4.055   2.685  15.022 -0.4077 -0.0526  0.0006
15049TIP3    H166562   4.008   2.711  14.942 -0.1334  1.8457  0.4000
15049TIP3    H266563   4.067   2.767  15.070  2.2840 -0.6353  0.4628
15050TIP3   OH266564   1.292   6.324  15.612 -0.4705 -0.4547  0.6803
15050TIP3    H166565   1.236   6.259  15.570 -1.1001  0.0923  0.6566
15050TIP3    H266566   1.246   6.407  15.600 -0.8996 -0.3289  2.8270
15051TIP3   OH266567   4.762   0.717  13.487  0.1812 -0.1382 -0.1984
15051TIP3    H166568   4.814   0.660  13.430  0.5119 -1.3287  1.2204
15051TIP3    H266569   4.684   0.666  13.508  1.2055 -0.8067  2.3614
15052TIP3   OH266570   6.119   4.455  14.656 -0.1871  0.5175 -0.3687
15052TIP3    H166571   6.087   4.462  14.565  0.0105  2.9321 -0.3318
15052TIP3    H266572   6.042   4.478  14.709 -0.2981 -0.8785  0.1028
15053TIP3   OH266573   5.536   2.550   4.145  0.2516 -0.3984  0.2286
15053TIP3    H166574   5.556   2.463   4.110  2.5419  0.1308  0.1065
15053TIP3    H266575   5.608   2.569   4.205 -0.2285  1.4158  0.2701
15054TIP3   OH266576   5.746   2.565  16.072  0.0504  0.0227 -0.2746
15054TIP3    H166577   5.694   2.550  15.993  0.3894 -0.8604 -0.3401
15054TIP3    H266578   5.799   2.487  16.081 -0.0991  0.0407  0.9321
15055TIP3   OH266579   6.130   0.372  14.520 -0.1500 -0.6103  0.1876
15055TIP3    H166580   6.154   0.411  14.436 -3.1888  1.9984  0.3531
15055TIP3    H266581   6.174   0.426  14.585 -0.1650 -0.7522  0.3157
15056TIP3   OH266582   6.456   4.024  15.499 -0.1759  0.8557 -0.1649
15056TIP3    H166583   6.447   4.012  15.593 -1.6523  0.2160 -0.3658
15056TIP3    H266584   6.524   4.091  15.490  0.1486  0.7648  1.3360
15057TIP3   OH266585   4.583   4.593  11.413  0.6194  0.9232  0.2797
15057TIP3    H166586   4.661   4.541  11.391  1.2862  0.4368  3.3261
15057TIP3    H266587   4.511   4.530  11.412  0.5476  0.9952 -0.7124
15058TIP3   OH266588   1.815   0.038   1.762  0.0713  0.2510  0.4730
15058TIP3    H166589   1.787   0.080   1.681  2.8757  0.4438 -0.5036
15058TIP3    H266590   1.865   0.106   1.808 -1.4197  0.1308  2.4182
15059TIP3   OH266591   6.279   0.118   2.527 -0.2034 -0.1615  0.3891
15059TIP3    H166592   6.271   0.106   2.432 -2.1993 -2.0405  0.7245
15059TIP3    H266593   6.373   0.109   2.544 -0.1083 -3.8870 -1.0353
15060TIP3   OH266594   2.495   0.060   1.902  0.0308 -0.3156  0.2721
15060TIP3    H166595   2.444   0.108   1.837  0.7400 -0.5846 -0.5087
15060TIP3    H266596   2.542  -0.007   1.851  1.8096  0.4551  0.8134
15061TIP3   OH266597   5.890   4.308   4.425 -0.0554 -0.4071  0.1528
15061TIP3    H166598   5.935   4.265   4.498  0.0060 -0.7596 -0.0850
15061TIP3    H266599   5.805   4.265   4.422 -0.0304 -0.4458 -0.0250
15062TIP3   OH266600   5.109   0.693  14.924 -0.0117  0.1225 -0.5070
15062TIP3    H166601   5.081   0.782  14.945  0.0013  0.5569 -2.1671
15062TIP3    H266602   5.194   0.705  14.881 -0.6552 -0.5406 -2.0214
15063TIP3   OH266603   6.227   4.623  11.822  0.0079  0.0923 -0.2456
15063TIP3    H166604   6.286   4.696  11.804  0.6290 -0.6372 -1.2264
15063TIP3    H266605   6.198   4.593  11.736 -0.8120 -0.3749  0.1699
15064TIP3   OH266606   6.268   5.175   2.409 -0.3026  0.3064 -0.2253
15064TIP3    H166607   6.210   5.141   2.478 -3.8443  1.8421 -2.2362
15064TIP3    H266608   6.249   5.120   2.333  2.9795 -0.8484 -0.3925
15065TIP3   OH266609   4.570   1.992  11.526  0.4379  0.3767  0.1472
15065TIP3    H166610   4.560   1.975  11.619  0.4544  0.4384  0.1612
15065TIP3    H266611   4.602   1.910  11.489  1.4245  0.6618  0.3557
15066TIP3   OH266612   2.668   5.789   4.079 -0.7467  0.1240 -0.3366
15066TIP3    H166613   2.652   5.883   4.070 -0.4481  0.1725 -0.3580
15066TIP3    H266614   2.581   5.752   4.096 -0.7789  0.4803  0.3033
15067TIP3   OH266615   1.288   3.733   6.530 -0.2532  0.3004  0.2396
15067TIP3    H166616   1.224   3.803   6.538 -1.9656 -1.2754  1.1646
15067TIP3    H266617   1.285   3.708   6.437  0.1077  1.1950 -0.0174
15068TIP3   OH266618   1.086   5.429   1.031  0.1619 -0.1482 -0.5528
15068TIP3    H166619   1.177   5.410   1.056  0.7064  1.4151 -1.2266
15068TIP3    H266620   1.081   5.403   0.939  0.2719  0.8065 -0.8390
15069TIP3   OH266621   0.709   0.828   3.884 -0.3852 -0.1943 -0.6342
15069TIP3    H166622   0.670   0.874   3.810  0.5293 -0.4367 -1.2746
15069TIP3    H266623   0.636   0.779   3.922 -0.9218  0.1454 -1.2001
15070TIP3   OH266624   3.507   4.798   3.857  0.1432 -0.0889 -0.1383
15070TIP3    H166625   3.509   4.851   3.777  1.7434  0.8299  0.4573
15070TIP3    H266626   3.422   4.756   3.856 -0.2037  0.5698 -1.9013
15071TIP3   OH266627   4.556   2.712   6.095  0.4362 -0.3660 -0.1751
15071TIP3    H166628   4.487   2.773   6.123 -0.3576 -1.5397  0.5161
15071TIP3    H266629   4.631   2.732   6.151  0.4837  0.5500 -0.5558
15072TIP3   OH266630   5.703   2.682  14.609 -0.2959 -0.1116 -0.0983
15072TIP3    H166631   5.752   2.693  14.691 -0.4020 -0.8498  0.0697
15072TIP3    H266632   5.758   2.628  14.554 -1.5851 -2.4225  0.7332
15073TIP3   OH266633   0.852   3.633   2.245 -0.1680 -0.5503  0.0452
15073TIP3    H166634   0.891   3.560   2.197  0.4676 -1.1859  1.4828
15073TIP3    H266635   0.921   3.662   2.305 -1.3814 -0.6794  1.5528
15074TIP3   OH266636   0.287   1.098   2.690  0.4555 -0.4981  0.4689
15074TIP3    H166637   0.370   1.138   2.667  0.5112 -1.4900 -1.2404
15074TIP3    H266638   0.309   1.035   2.759  1.0887 -0.5665  0.2099
15075TIP3   OH266639   6.046   0.654   0.387 -0.0768  0.1507 -0.2363
15075TIP3    H166640   6.064   0.741   0.352 -1.3733  0.4431 -0.2180
15075TIP3    H266641   6.047   0.665   0.482 -1.2478  0.3776 -0.2395
15076TIP3   OH266642   0.912   0.572  16.973  0.5077  0.1704  0.4545
15076TIP3    H166643   0.836   0.584  16.916  0.6807 -0.8167 -0.0040
15076TIP3    H266644   0.876   0.537  17.054  0.4528 -0.1161  0.3073
15077TIP3   OH266645   5.683   1.131  14.088 -0.0899 -0.7298  0.5445
15077TIP3    H166646   5.776   1.140  14.110 -0.0085 -0.0884 -0.0264
15077TIP3    H266647   5.669   1.036  14.080  1.0643 -0.7935 -1.5581
15078TIP3   OH266648   0.177   4.318  11.453 -0.4949 -0.6709 -0.4639
15078TIP3    H166649   0.179   4.222  11.447  1.3394 -0.8018  1.0799
15078TIP3    H266650   0.244   4.348  11.392 -0.1698 -0.4765 -0.0238
15079TIP3   OH266651   3.351   4.905  12.097  0.0090 -0.0553 -0.3099
15079TIP3    H166652   3.384   4.827  12.143 -2.0931 -0.3154  0.8736
15079TIP3    H266653   3.416   4.921  12.028  2.2860 -0.8232  1.5019
15080TIP3   OH266654   4.628   3.294   0.683  0.1024  0.0905  0.0981
15080TIP3    H166655   4.702   3.339   0.643 -0.4058  0.5078 -0.3931
15080TIP3    H266656   4.612   3.218   0.627  0.9386 -0.7093  0.9079
15081TIP3   OH266657   5.809   2.585   1.227 -0.3887  0.2157 -0.5677
15081TIP3    H166658   5.745   2.655   1.211 -1.3521 -0.5913 -0.3464
15081TIP3    H266659   5.830   2.551   1.140 -0.0751  0.6331 -0.6592
15082TIP3   OH266660   3.475   1.242  13.295 -0.0371  0.4667  0.2101
15082TIP3    H166661   3.381   1.227  13.304  0.0227 -1.9711 -1.9252
15082TIP3    H266662   3.494   1.222  13.203  2.5995  0.6266  0.6317
15083TIP3   OH266663   2.574   4.314  11.495  0.3355 -0.2616  0.0098
15083TIP3    H166664   2.528   4.375  11.437  0.1328 -0.0610  0.3778
15083TIP3    H266665   2.508   4.250  11.520  0.1731  0.1856  0.7614
15084TIP3   OH266666   2.311   4.683  14.411  0.3149  0.0980  0.7703
15084TIP3    H166667   2.311   4.622  14.485 -0.0342  1.2898  1.8103
15084TIP3    H266668   2.235   4.659  14.359  1.7056 -2.0707 -0.3986
15085TIP3   OH266669   5.107   5.160  11.186 -0.1088  0.1004 -0.4353
15085TIP3    H166670   5.033   5.207  11.148 -0.0603  1.1075  0.6540
15085TIP3    H266671   5.160   5.134  11.110 -1.3968 -0.3769 -1.2053
15086TIP3   OH266672   3.417   1.053   0.503  0.9588  0.1113  0.5387
15086TIP3    H166673   3.502   1.035   0.543  0.4970  0.5413  1.7687
15086TIP3    H266674   3.355   1.047   0.576 -0.2004 -1.1508 -0.5220
15087TIP3   OH266675   4.856   6.039  16.558  0.4387 -0.0975 -0.7165
15087TIP3    H166676   4.947   6.014  16.578  0.5386  1.3703  1.0031
15087TIP3    H266677   4.862   6.132  16.534 -0.1414 -0.9514 -4.8512
15088TIP3   OH266678   3.036   6.683   0.890  0.2014 -0.1414  0.7695
15088TIP3    H166679   3.007   6.601   0.930  0.0821 -0.3384  0.2764
15088TIP3    H266680   3.041   6.745   0.964 -0.8461 -0.2745  0.9614
15089TIP3   OH266681   0.532   3.538  12.795 -0.1716 -0.1535  0.4841
15089TIP3    H166682   0.544   3.521  12.889  1.5604  0.7123  0.4743
15089TIP3    H266683   0.602   3.488  12.753 -2.2341 -2.2980 -0.6062
15090TIP3   OH266684   6.692   0.793  14.018 -0.5126  0.5025 -0.3312
15090TIP3    H166685   6.741   0.767  13.940  1.3677  0.1032  0.9328
15090TIP3    H266686   6.600   0.792  13.990  0.0507 -0.3932 -2.3075
15091TIP3   OH266687   4.569   3.529  13.167  0.0755 -0.0761 -0.4077
15091TIP3    H166688   4.491   3.480  13.140 -0.7896 -1.7930  4.1500
15091TIP3    H266689   4.534   3.603  13.217  1.3177  0.0443  0.3258
15092TIP3   OH266690   4.513   0.983   1.495 -0.4696  0.0264 -0.5620
15092TIP3    H166691   4.488   1.050   1.559  1.9696 -0.1249  0.6325
15092TIP3    H266692   4.593   1.017   1.455  0.3059 -1.7401 -0.5707
15093TIP3   OH266693   1.027   6.175  13.754  0.3150 -0.1706  0.5683
15093TIP3    H166694   1.114   6.137  13.742 -0.1685 -1.2398  0.2992
15093TIP3    H266695   1.038   6.237  13.826  1.5872  0.7212 -0.3370
15094TIP3   OH266696   2.868   3.041  16.568 -0.2779  0.6735  0.5443
15094TIP3    H166697   2.837   3.036  16.659  0.6173  1.3093  0.9122
15094TIP3    H266698   2.822   2.972  16.522 -1.9287  1.3345  1.1376
15095TIP3   OH266699   6.505   3.647   2.247 -0.2432 -0.3843 -0.2254
15095TIP3    H166700   6.538   3.692   2.325  0.8340 -0.7943 -0.4225
15095TIP3    H266701   6.472   3.564   2.280  0.2523 -0.5762 -0.2031
15096TIP3   OH266702   3.174   4.077   0.305  0.1930  0.0075 -0.0853
15096TIP3    H166703   3.191   4.090   0.212  1.0250  1.3776  0.2403
15096TIP3    H266704   3.080   4.094   0.315  0.4504  1.7960 -0.3923
15097TIP3   OH266705   6.698   2.075  17.003 -0.0867 -0.4950  0.0456
15097TIP3    H166706   6.634   2.005  17.001 -0.2386 -0.3840 -2.0917
15097TIP3    H266707   6.651   2.151  16.969  1.1482 -0.4447 -1.6964
15098TIP3   OH266708   4.893   6.451  15.997 -0.2288  0.4246  0.0362
15098TIP3    H166709   4.829   6.514  16.028  0.0323  0.0588  1.3876
15098TIP3    H266710   4.864   6.428  15.909 -2.2955 -0.1388  0.8023
15099TIP3   OH266711   5.473   1.679   1.252  0.2960  0.3959 -0.0072
15099TIP3    H166712   5.387   1.713   1.228 -0.9903 -1.1154  2.0530
15099TIP3    H266713   5.533   1.751   1.236 -1.2588  1.3651 -1.9059
15100TIP3   OH266714   2.398   5.696  11.432 -0.8501  0.2535 -0.0519
15100TIP3    H166715   2.332   5.735  11.374 -0.4275  1.0398 -0.0207
15100TIP3    H266716   2.370   5.720  11.520 -0.7101  0.2876 -0.0164
15101TIP3   OH266717   5.887   3.590  12.649 -0.1551 -0.1016 -0.4129
15101TIP3    H166718   5.832   3.554  12.719  0.0749  0.2783 -0.0317
15101TIP3    H266719   5.870   3.685  12.652  1.3940  0.1734  0.4888
15102TIP3   OH266720   5.393   4.840  15.690  0.2608 -0.3456 -0.1251
15102TIP3    H166721   5.336   4.848  15.767  0.4919 -0.8863  0.1067
15102TIP3    H266722   5.335   4.855  15.615  0.2292  1.2313  0.1809
15103TIP3   OH266723   1.593   0.808  13.695  0.3761 -0.1035  0.1611
15103TIP3    H166724   1.552   0.812  13.781  0.6029  0.6075  0.2375
15103TIP3    H266725   1.679   0.847  13.706  0.4114 -0.0098 -0.3875
15104TIP3   OH266726   1.228   4.333   0.559  0.6065  0.1743 -0.5081
15104TIP3    H166727   1.214   4.422   0.591  0.1266  0.2912 -1.0123
15104TIP3    H266728   1.316   4.310   0.589  0.2976  0.3943  0.5859
15105TIP3   OH266729   6.242   1.866  12.879 -0.6098  0.0471 -0.3301
15105TIP3    H166730   6.283   1.934  12.825  0.4353 -0.8096 -0.6435
15105TIP3    H266731   6.265   1.889  12.969 -1.7748  1.0922 -0.2692
15106TIP3   OH266732   0.086   2.933   0.244 -0.1320 -0.0956 -0.4865
15106TIP3    H166733   0.030   3.009   0.260  0.1092 -0.1253  0.5403
15106TIP3    H266734   0.166   2.951   0.292  0.6536 -0.1806 -1.7231
15107TIP3   OH266735   4.650   0.396   5.237 -0.0339  0.2333 -0.2111
15107TIP3    H166736   4.628   0.321   5.292  0.2409 -0.1675 -0.6455
15107TIP3    H266737   4.743   0.386   5.218  0.2168  1.1586  0.4399
15108TIP3   OH266738   6.223   0.788  12.019 -0.3320 -0.0371  0.0484
15108TIP3    H166739   6.302   0.841  12.019 -0.2158 -0.1776 -1.1692
15108TIP3    H266740   6.254   0.698  12.031 -0.5309  0.1286  2.1444
15109TIP3   OH266741   5.811   1.831   4.724  1.2202 -0.2241  0.1053
15109TIP3    H166742   5.894   1.811   4.768  0.1302 -1.6828  1.6135
15109TIP3    H266743   5.748   1.841   4.795 -0.0894 -0.0696 -1.0387
15110TIP3   OH266744   0.026   2.041  16.311 -0.3003  0.1599  0.0932
15110TIP3    H166745   0.087   2.107  16.279  1.7376 -2.5059 -2.1417
15110TIP3    H266746   0.015   1.981  16.236 -0.5136 -2.9675  2.4191
15111TIP3   OH266747   4.122   5.763  14.237 -0.1559  0.7820  0.1689
15111TIP3    H166748   4.162   5.845  14.209 -0.3450  0.2480 -1.8038
15111TIP3    H266749   4.180   5.731  14.306  0.8799  1.7329 -0.2143
15112TIP3   OH266750   4.252   1.584   4.540  0.1724  0.4408  0.6181
15112TIP3    H166751   4.295   1.663   4.572  2.3116 -0.8788  1.2311
15112TIP3    H266752   4.282   1.515   4.599 -0.9097 -0.9806 -0.4213
15113TIP3   OH266753   0.004   1.141  17.286 -0.8846 -0.3810 -0.0984
15113TIP3    H166754   0.080   1.199  17.280 -0.9441 -0.2743  0.1649
15113TIP3    H266755   0.041   1.053  17.278 -0.3364 -0.5254  2.8281
15114TIP3   OH266756   2.440   5.127  12.584 -0.3798  0.2940  0.0690
15114TIP3    H166757   2.354   5.167  12.568 -1.9635 -1.3232  3.4174
15114TIP3    H266758   2.440   5.108  12.678  2.9848 -1.4085 -0.1276
15115TIP3   OH266759   4.883   5.296   5.129  0.1022  0.4054  0.3233
15115TIP3    H166760   4.915   5.208   5.113 -0.1622  0.0443  1.6803
15115TIP3    H266761   4.791   5.293   5.102 -0.4674 -0.3288  2.1996
15116TIP3   OH266762   1.647   6.075   3.452 -0.8863  0.3198 -0.4754
15116TIP3    H166763   1.631   6.130   3.376 -1.8825 -0.4795 -0.8703
15116TIP3    H266764   1.611   5.989   3.428 -0.9618 -0.0245  0.7810
15117TIP3   OH266765   4.245   4.650  17.288  0.4284 -0.3499  0.3572
15117TIP3    H166766   4.259   4.733  17.332 -1.7113  0.4913 -0.4209
15117TIP3    H266767   4.200   4.673  17.207  2.3085 -2.0264 -1.3011
15118TIP3   OH266768   4.910   4.362  11.059 -0.5565 -0.3665  0.8572
15118TIP3    H166769   4.932   4.339  10.969 -0.6747  0.8365  0.5050
15118TIP3    H266770   4.831   4.311  11.079 -1.2051  0.2238 -0.1267
15119TIP3   OH266771   3.217   5.455   1.405  0.7655  0.2421 -0.0573
15119TIP3    H166772   3.308   5.483   1.395  0.7291  0.5930  0.5875
15119TIP3    H266773   3.218   5.363   1.380  0.8143  0.8452 -2.5991
15120TIP3   OH266774   6.363   0.028  16.794  0.2979 -0.3166  0.1096
15120TIP3    H166775   6.365   0.105  16.737 -1.1309  0.0432  0.4787
15120TIP3    H266776   6.270   0.005  16.800  0.5779 -1.3352  0.9809
15121TIP3   OH266777   1.884   3.014   0.715 -0.0203  0.2473 -0.3560
15121TIP3    H166778   1.876   3.104   0.746 -0.8637 -0.1611  0.6748
15121TIP3    H266779   1.880   3.021   0.619  2.3234  1.5136 -0.4304
15122TIP3   OH266780   5.164   3.765   4.056  0.0546  0.1767 -0.9473
15122TIP3    H166781   5.137   3.711   4.130  1.8454  0.9095  0.3364
15122TIP3    H266782   5.084   3.780   4.006 -0.6632 -2.9498 -0.9519
15123TIP3   OH266783   5.531   6.051  16.982 -1.1002  0.4258 -0.3922
15123TIP3    H166784   5.438   6.073  16.984 -0.5364  3.0884 -0.0132
15123TIP3    H266785   5.563   6.088  16.900 -0.1324  0.5890  0.0445
15124TIP3   OH266786   5.785   6.361  13.059  0.4036  0.4183 -0.9076
15124TIP3    H166787   5.708   6.411  13.088  0.3740 -0.3592  0.4030
15124TIP3    H266788   5.822   6.414  12.988  0.0886  2.0570  0.0982
15125TIP3   OH266789   2.289   1.387  14.311 -0.8748 -0.1577  0.1240
15125TIP3    H166790   2.335   1.385  14.395  1.5628 -0.0172 -1.1194
15125TIP3    H266791   2.289   1.296  14.281 -0.3557 -0.0083 -0.3725
15126TIP3   OH266792   3.517   5.225  16.325 -0.2944 -0.0001 -0.0396
15126TIP3    H166793   3.544   5.145  16.370 -1.8451  0.5433  2.0381
15126TIP3    H266794   3.581   5.236  16.254  1.7271 -1.4583  1.4339
15127TIP3   OH266795   1.964   3.486  10.618 -0.2988 -0.7294  0.2208
15127TIP3    H166796   1.978   3.580  10.614  0.9410 -0.9151 -0.3422
15127TIP3    H266797   1.872   3.476  10.643 -0.4490  0.6181  0.2702
15128TIP3   OH266798   1.285   6.095   3.231 -0.6238 -0.1334 -0.2008
15128TIP3    H166799   1.269   6.004   3.256 -1.3812 -0.2477 -1.0180
15128TIP3    H266800   1.247   6.146   3.301  0.2916 -0.4408  0.5351
15129TIP3   OH266801   2.850   4.794   0.838 -0.0795 -0.3385 -0.2451
15129TIP3    H166802   2.899   4.717   0.810 -0.6833  0.1324 -2.9456
15129TIP3    H266803   2.886   4.865   0.785 -0.9869  0.8071  0.6146
15130TIP3   OH266804   4.110   6.453  14.873 -0.3339  0.6781  0.2495
15130TIP3    H166805   4.053   6.520  14.910 -0.6495  0.0808  0.8582
15130TIP3    H266806   4.172   6.433  14.943 -1.1223 -0.6727  0.5909
15131TIP3   OH266807   4.080   0.803   5.459 -0.5421 -0.6019 -0.1865
15131TIP3    H166808   4.143   0.784   5.529  0.4129  1.8871 -0.2462
15131TIP3    H266809   4.120   0.767   5.380  0.3331  0.0370 -0.0492
15132TIP3   OH266810   4.593   1.873  17.074 -0.1289  0.0540 -0.1257
15132TIP3    H166811   4.635   1.956  17.055  1.2758 -0.3494  1.0257
15132TIP3    H266812   4.665   1.813  17.095 -1.1567 -1.2015 -0.0002
15133TIP3   OH266813   5.843   1.225   0.613  0.2944 -0.4901  0.5420
15133TIP3    H166814   5.894   1.273   0.678  1.0840 -0.5793  0.0053
15133TIP3    H266815   5.873   1.259   0.529 -1.3621  0.2834  0.2124
15134TIP3   OH266816   1.778   5.116  12.647  0.1145 -0.0478 -0.2197
15134TIP3    H166817   1.839   5.175  12.603  2.5171 -0.3760  2.3968
15134TIP3    H266818   1.767   5.043  12.587  2.9838 -0.3403 -0.5129
15135TIP3   OH266819   0.111   2.589  11.932  0.3228 -0.7931  0.5709
15135TIP3    H166820   0.037   2.587  11.993  1.2287 -1.0400  1.6891
15135TIP3    H266821   0.100   2.510  11.879 -1.2737  0.1496 -0.6228
15136TIP3   OH266822   0.980   6.313  16.785 -0.1654  0.1574 -0.2725
15136TIP3    H166823   1.012   6.403  16.797  0.3599 -0.1767  0.9797
15136TIP3    H266824   1.003   6.292  16.695 -0.2931  1.2809 -0.5887
15137TIP3   OH266825   1.555   4.121  12.653  0.0920 -0.3573  0.1680
15137TIP3    H166826   1.595   4.181  12.590 -0.4685  0.2193  0.3526
15137TIP3    H266827   1.575   4.034  12.619 -0.8994 -0.0622 -1.2644
15138TIP3   OH266828   5.413   3.747  11.591  0.3174 -0.3759 -0.0700
15138TIP3    H166829   5.369   3.811  11.535  0.0700  0.0546  0.5951
15138TIP3    H266830   5.372   3.663  11.569 -1.5510  0.1479  1.1931
15139TIP3   OH266831   4.812   1.335   2.769  0.1927 -0.1891 -0.6346
15139TIP3    H166832   4.838   1.427   2.760  3.2467 -0.8855 -0.0554
15139TIP3    H266833   4.798   1.305   2.679 -0.6439  0.7511 -0.8370
15140TIP3   OH266834   3.329   3.843  11.726 -0.3746 -0.2805 -0.2207
15140TIP3    H166835   3.371   3.832  11.811 -0.6323 -2.6713 -0.3335
15140TIP3    H266836   3.239   3.869  11.746 -0.2996 -0.3602  0.2103
15141TIP3   OH266837   2.429   5.913  15.574 -0.2789 -0.3754 -0.1752
15141TIP3    H166838   2.422   5.917  15.669  1.2862 -0.9914 -0.0072
15141TIP3    H266839   2.361   5.973  15.542  2.0393  3.4095  1.4235
15142TIP3   OH266840   6.397   2.959   2.266 -0.4078  0.2306 -0.7427
15142TIP3    H166841   6.413   3.026   2.200  0.4191  0.0773 -0.7070
15142TIP3    H266842   6.383   3.008   2.347  0.1346  0.3629 -0.7291
15143TIP3   OH266843   2.870   2.045  12.664 -0.0127  0.0836  0.2184
15143TIP3    H166844   2.853   2.119  12.722  0.5386  0.5984 -0.2587
15143TIP3    H266845   2.783   2.014  12.639 -0.2837  1.4391 -0.6464
15144TIP3   OH266846   2.458   5.145   2.981  0.1375 -0.0386 -0.4770
15144TIP3    H166847   2.400   5.119   2.909 -0.9882 -0.1146  0.4475
15144TIP3    H266848   2.536   5.178   2.936  0.0113 -1.3014 -1.7357
15145TIP3   OH266849   4.808   4.521  11.259 -0.3594 -0.0473 -0.2217
15145TIP3    H166850   4.791   4.605  11.215 -0.5601 -0.2931 -0.6252
15145TIP3    H266851   4.840   4.464  11.189 -1.8519 -0.8089 -0.3196
15146TIP3   OH266852   5.652   2.379  10.391 -0.3749 -0.0953 -0.7219
15146TIP3    H166853   5.698   2.319  10.450  1.3063  0.9686 -0.8940
15146TIP3    H266854   5.561   2.375  10.419  0.1904 -0.4872  1.2029
15147TIP3   OH266855   5.249   5.048  11.877 -0.2507  0.0596 -0.0185
15147TIP3    H166856   5.191   5.006  11.814 -1.7444  0.5977  0.9374
15147TIP3    H266857   5.270   4.978  11.939 -2.8484  0.6178  1.6516
15148TIP3   OH266858   6.133   0.807  11.243 -0.1437  0.5007  0.4052
15148TIP3    H166859   6.168   0.737  11.297 -0.1683  0.6793  0.6539
15148TIP3    H266860   6.136   0.772  11.154  1.7088  0.9326  0.2703
15149TIP3   OH266861   4.997   5.599   1.336  0.5986 -0.1043  0.5350
15149TIP3    H166862   4.973   5.633   1.422  0.1126 -0.6640  0.6276
15149TIP3    H266863   4.961   5.510   1.335 -0.5664  0.3542 -0.7508
15150TIP3   OH266864   2.592   4.597  13.784 -0.6903  0.3613 -0.8072
15150TIP3    H166865   2.637   4.676  13.755 -1.1158  1.0820  0.4260
15150TIP3    H266866   2.662   4.542  13.821 -0.2310 -0.3316 -2.6280
15151TIP3   OH266867   5.243   5.325  16.007 -0.3979  0.4065 -0.7023
15151TIP3    H166868   5.170   5.353  16.061  0.2272 -0.4662  0.6568
15151TIP3    H266869   5.243   5.229  16.014  0.3219  0.3431 -1.4075
15152TIP3   OH266870   3.166   3.376   5.905 -0.1263  0.1592 -0.2372
15152TIP3    H166871   3.125   3.333   5.979  0.5485 -0.6726 -0.3258
15152TIP3    H266872   3.097   3.430   5.866 -0.5747  0.3182  0.7692
15153TIP3   OH266873   1.649   4.151   0.845 -0.0383 -0.3489 -0.5026
15153TIP3    H166874   1.599   4.146   0.927 -1.7407  0.6155 -1.4415
15153TIP3    H266875   1.719   4.214   0.864 -0.3376 -0.2254  0.2274
15154TIP3   OH266876   2.721   5.615   5.255  0.0281  0.0586 -0.0878
15154TIP3    H166877   2.698   5.526   5.281  0.8102 -0.0918  0.1183
15154TIP3    H266878   2.691   5.670   5.328  0.5901 -0.1677  0.3212
15155TIP3   OH266879   5.485   1.630   2.856  0.2814  0.3665  0.0270
15155TIP3    H166880   5.476   1.559   2.919 -0.6278 -0.6568 -1.2134
15155TIP3    H266881   5.403   1.678   2.861 -0.5791 -0.8435 -1.6638
15156TIP3   OH266882   5.604   3.242  16.019  0.3741 -0.4060 -0.1550
15156TIP3    H166883   5.671   3.309  16.026  0.9625 -0.9254 -0.6440
15156TIP3    H266884   5.593   3.229  15.925 -0.8275  0.0684 -0.0946
15157TIP3   OH266885   0.397   2.987   1.831  0.2108 -0.3515 -0.0911
15157TIP3    H166886   0.387   3.045   1.755 -0.1199 -1.0068 -0.5575
15157TIP3    H266887   0.432   2.906   1.795  1.8784 -0.0393  0.7352
15158TIP3   OH266888   1.649   4.059  16.277  0.0478 -0.0718 -0.2295
15158TIP3    H166889   1.643   3.994  16.207  0.7408 -0.5079  0.1049
15158TIP3    H266890   1.643   4.143  16.232  1.3188 -0.3248 -0.9239
15159TIP3   OH266891   1.082   6.280  14.026  0.0649 -0.0426  0.2717
15159TIP3    H166892   1.109   6.320  14.109  0.0091  0.6203 -0.0185
15159TIP3    H266893   1.050   6.193  14.050  1.5458 -0.4943  0.7467
15160TIP3   OH266894   6.004   1.614   0.382  0.0837 -0.0517 -0.8668
15160TIP3    H166895   5.948   1.600   0.458  0.5290 -1.0668 -0.7132
15160TIP3    H266896   6.016   1.527   0.344  2.3796 -0.0447 -0.3072
15161TIP3   OH266897   3.998   4.816  12.117  0.1919  0.0772 -0.2244
15161TIP3    H166898   3.997   4.722  12.135  1.1950  0.4235  1.9052
15161TIP3    H266899   4.088   4.834  12.087  1.4141  0.9455  3.4817
15162TIP3   OH266900   1.379   0.644   3.703 -0.9090  0.4360  0.0139
15162TIP3    H166901   1.423   0.567   3.667 -3.4786 -0.4231 -1.5958
15162TIP3    H266902   1.398   0.714   3.641 -0.4352  0.5241  0.2531
15163TIP3   OH266903   0.095   1.551   0.878  0.4060 -0.2607 -0.2798
15163TIP3    H166904   0.047   1.482   0.924 -1.0122 -0.4245 -1.9023
15163TIP3    H266905   0.172   1.507   0.842  0.6481 -0.4974  0.5182
15164TIP3   OH266906   5.610   4.129  13.862  0.3243  0.7279 -0.3639
15164TIP3    H166907   5.684   4.147  13.919 -0.6015  0.9143  0.8194
15164TIP3    H266908   5.638   4.159  13.775  0.6508  3.4259  0.5668
15165TIP3   OH266909   4.657   6.513  13.722  0.7079  0.2931 -0.4338
15165TIP3    H166910   4.633   6.431  13.764 -1.6771  1.0060 -0.2347
15165TIP3    H266911   4.682   6.488  13.633  0.6612 -0.6996 -0.1822
15166TIP3   OH266912   6.186   1.283   0.965  0.2211  0.0633  0.2258
15166TIP3    H166913   6.145   1.266   0.880 -0.4591 -0.7307  0.6962
15166TIP3    H266914   6.277   1.303   0.944  0.2005 -0.6822 -0.6433
15167TIP3   OH266915   6.717   3.454   6.475  0.0334  0.2530 -0.5545
15167TIP3    H166916   6.812   3.461   6.479  0.2411 -2.2029  0.6832
15167TIP3    H266917   6.686   3.508   6.548  0.2939  2.4099 -1.9406
15168TIP3   OH266918   2.567   6.287  15.493  0.2863  0.0280  0.1688
15168TIP3    H166919   2.489   6.280  15.548 -0.0556  0.2512 -0.2813
15168TIP3    H266920   2.640   6.294  15.555 -0.1963  1.4527  0.6024
15169TIP3   OH266921   4.684   1.847   1.136  0.1852 -0.3404  0.4907
15169TIP3    H166922   4.776   1.873   1.129  0.1728  0.2261  1.9731
15169TIP3    H266923   4.635   1.928   1.122  0.0819  0.1864  3.3230
15170TIP3   OH266924   4.813   0.355   3.634 -0.6269  0.0831  0.3263
15170TIP3    H166925   4.768   0.408   3.700 -1.8667  0.1891 -0.5764
15170TIP3    H266926   4.851   0.419   3.574 -2.4205 -0.0023 -0.9609
15171TIP3   OH266927   5.451   1.749   1.527 -0.3840  0.6804  0.1165
15171TIP3    H166928   5.497   1.824   1.491  2.2845 -0.6304  0.5104
15171TIP3    H266929   5.492   1.673   1.486 -1.0617 -0.6546  1.7425
15172TIP3   OH266930   5.812   4.557  17.216 -0.2740 -0.1986  0.3032
15172TIP3    H166931   5.791   4.471  17.253  0.5130 -0.7818 -0.5784
15172TIP3    H266932   5.846   4.607  17.290 -0.0460 -0.8858  0.6723
15173TIP3   OH266933   5.240   2.637  11.617  0.0933  0.3016 -0.2352
15173TIP3    H166934   5.207   2.633  11.707  0.3571 -3.0720 -0.1507
15173TIP3    H266935   5.163   2.620  11.563  0.2160  0.7976 -0.5682
15174TIP3   OH266936   3.428   1.776   3.789  0.0690 -0.2195 -0.1369
15174TIP3    H166937   3.363   1.826   3.740 -0.5068 -1.9540 -1.2509
15174TIP3    H266938   3.512   1.810   3.760 -0.3105  0.3145 -0.6306
15175TIP3   OH266939   2.323   1.632  16.646 -0.4594 -0.4183  0.4102
15175TIP3    H166940   2.316   1.543  16.682  3.6710 -0.5203  1.4539
15175TIP3    H266941   2.314   1.689  16.722  1.4545 -0.2509  0.5423
15176TIP3   OH266942   0.701   0.455  14.215 -0.4982  0.2886  0.2729
15176TIP3    H166943   0.738   0.436  14.129 -0.1564  2.1820 -0.0362
15176TIP3    H266944   0.611   0.422  14.211 -0.7379  1.0588 -1.0934
15177TIP3   OH266945   1.087   0.643   5.180 -0.2443  0.2860  0.3825
15177TIP3    H166946   1.133   0.696   5.245 -1.2364  0.9165  0.5893
15177TIP3    H266947   1.157   0.596   5.134  0.5120  0.2345  1.5360
15178TIP3   OH266948   2.987   4.230   1.840  0.1080  0.2098 -0.1588
15178TIP3    H166949   3.028   4.314   1.863  0.6179 -0.0660 -0.0548
15178TIP3    H266950   3.050   4.188   1.781  0.8102 -1.0045  1.4055
15179TIP3   OH266951   3.138   2.793  14.972 -0.3929 -0.2819 -1.0635
15179TIP3    H166952   3.089   2.711  14.965 -0.8249  0.0894 -2.7660
15179TIP3    H266953   3.226   2.766  14.999 -1.0376 -1.1057  0.3404
15180TIP3   OH266954   6.570   4.428  17.081 -0.6369 -0.3568 -0.2881
15180TIP3    H166955   6.565   4.478  16.999 -0.0319 -0.5502 -0.4462
15180TIP3    H266956   6.661   4.398  17.085 -0.3489  0.6227  1.0333
15181TIP3   OH266957   0.708   1.068   0.983  0.5531 -1.1049 -0.2929
15181TIP3    H166958   0.705   0.973   0.973 -1.4668 -1.2311  0.8482
15181TIP3    H266959   0.621   1.097   0.955  0.8877  0.3296  0.0882
15182TIP3   OH266960   6.251   1.518  15.465 -0.5100  0.3178 -0.5161
15182TIP3    H166961   6.255   1.538  15.558 -1.0004 -2.3046  0.1403
15182TIP3    H266962   6.335   1.477  15.445 -0.8794 -0.2455 -0.9397
15183TIP3   OH266963   0.965   1.598   0.565  0.3245  0.1993  0.2990
15183TIP3    H166964   1.009   1.633   0.487  2.3386 -2.8543 -0.0967
15183TIP3    H266965   0.915   1.523   0.532 -0.3457  0.0118  1.6894
15184TIP3   OH266966   1.565   5.583  11.663  0.1179  0.6121 -0.8051
15184TIP3    H166967   1.495   5.586  11.729 -0.5823 -1.5701 -1.3891
15184TIP3    H266968   1.614   5.504  11.684  1.3012  1.1391 -1.5247
15185TIP3   OH266969   2.336   6.614   2.417 -0.1156 -0.6507  0.6912
15185TIP3    H166970   2.368   6.545   2.359 -0.3442 -0.6994  0.6213
15185TIP3    H266971   2.367   6.695   2.377 -1.6719 -0.5667 -0.4267
15186TIP3   OH266972   1.040   2.967  13.826  0.6674 -0.8186 -0.1889
15186TIP3    H166973   1.054   3.034  13.892 -1.3119 -0.1486 -0.4097
15186TIP3    H266974   1.060   3.010  13.743 -1.8810 -0.0312 -0.4531
15187TIP3   OH266975   5.523   1.781  15.189 -0.0876  0.3865 -0.8709
15187TIP3    H166976   5.484   1.766  15.275  2.1556 -0.0468  0.1367
15187TIP3    H266977   5.617   1.790  15.206  0.5006 -0.2533 -3.3297
15188TIP3   OH266978   4.005   2.572  15.770  0.5373 -0.3299 -0.0623
15188TIP3    H166979   4.005   2.496  15.712 -1.7029 -0.4903  0.0504
15188TIP3    H266980   4.091   2.612  15.758  2.0617 -3.2243  0.3564
15189TIP3   OH266981   0.872   2.755   2.416 -0.4475  0.0931  0.0765
15189TIP3    H166982   0.855   2.739   2.509  1.3014 -1.8070  0.1260
15189TIP3    H266983   0.870   2.669   2.376  1.6218  0.5581 -1.1442
15190TIP3   OH266984   4.278   3.039   1.942 -0.3641 -0.0903 -0.2741
15190TIP3    H166985   4.248   2.949   1.931 -1.7901 -0.2107  3.3697
15190TIP3    H266986   4.278   3.075   1.853 -2.9454 -2.7109 -1.5010
15191TIP3   OH266987   3.555   4.104   0.303  0.4265  0.3729  0.4181
15191TIP3    H166988   3.637   4.108   0.353  0.0140  3.7808  1.0462
15191TIP3    H266989   3.487   4.094   0.370  0.1723 -1.0618 -0.0104
15192TIP3   OH266990   2.780   5.976  14.534 -0.3049  0.5088 -0.2964
15192TIP3    H166991   2.770   5.935  14.620  1.3881 -0.9851 -0.7531
15192TIP3    H266992   2.735   5.917  14.474 -0.1814  0.7554 -0.6357
15193TIP3   OH266993   1.491   6.745   1.743 -0.7936 -0.3499 -0.4404
15193TIP3    H166994   1.525   6.722   1.657 -1.0408  0.1776 -0.6838
15193TIP3    H266995   1.542   6.692   1.804  0.2461  0.1757 -0.8222
15194TIP3   OH266996   6.047   2.974   5.655 -0.1725  0.2943  0.0945
15194TIP3    H166997   5.991   3.051   5.640 -0.8344 -0.3864 -1.1242
15194TIP3    H266998   6.057   2.935   5.568 -0.8245 -1.6665  0.8445
15195TIP3   OH266999   4.248   2.802  12.202  0.1657 -0.4568  0.1207
15195TIP3    H167000   4.268   2.723  12.153  1.1005 -0.7791  0.9889
15195TIP3    H267001   4.328   2.854  12.199 -0.3719  0.3850 -0.2752
15196TIP3   OH267002   4.463   6.659  10.813  0.5885 -0.0358  0.2298
15196TIP3    H167003   4.449   6.599  10.740  3.1133 -0.3123 -0.0932
15196TIP3    H267004   4.487   6.742  10.773 -0.6208  0.5824  0.7300
15197TIP3   OH267005   4.581   5.454  12.914  0.1967  0.3818  0.2027
15197TIP3    H167006   4.578   5.504  12.833 -0.9021  0.3093  0.1846
15197TIP3    H267007   4.616   5.369  12.889 -3.1853 -0.8452 -0.9131
15198TIP3   OH267008   0.437   2.294   3.581  0.0420  0.0543 -0.4454
15198TIP3    H167009   0.515   2.326   3.535 -0.3804  2.5926  0.4874
15198TIP3    H267010   0.467   2.280   3.671 -0.7401  2.0417  0.1759
15199TIP3   OH267011   5.577   2.098   3.787  0.5831  0.6953  0.4146
15199TIP3    H167012   5.654   2.041   3.794 -0.4232 -0.8079 -0.1891
15199TIP3    H267013   5.581   2.133   3.698 -1.5130 -2.6831 -1.2106
15200TIP3   OH267014   1.442   4.605  13.356 -0.1886 -0.4297  0.1331
15200TIP3    H167015   1.401   4.626  13.440 -1.2119 -1.0231 -0.1954
15200TIP3    H267016   1.438   4.509  13.351  0.0903 -0.4115 -0.4794
15201TIP3   OH267017   3.848   0.614   2.517 -0.3276 -0.5290 -0.2420
15201TIP3    H167018   3.808   0.627   2.431  0.1353 -1.1212 -0.5583
15201TIP3    H267019   3.832   0.522   2.538  0.0014 -0.5184  0.0742
15202TIP3   OH267020   4.125   3.957  17.258  0.1147 -0.1912  0.2130
15202TIP3    H167021   4.219   3.974  17.262 -0.0685  0.5843  2.0330
15202TIP3    H267022   4.085   4.043  17.251 -0.5966 -0.0043  4.2567
15203TIP3   OH267023   6.383   6.123  17.176  0.1963 -0.4237  1.0575
15203TIP3    H167024   6.400   6.049  17.235  0.8357 -0.7901  0.4292
15203TIP3    H267025   6.315   6.174  17.220 -1.9394 -2.5979  0.4559
15204TIP3   OH267026   2.648   2.393  14.631  0.1112 -0.2427 -0.7388
15204TIP3    H167027   2.710   2.329  14.668  1.3451  2.1734  1.7698
15204TIP3    H267028   2.606   2.432  14.707  1.1523  3.5143 -1.8625
15205TIP3   OH267029   0.764   1.849  11.582  0.7443 -0.3186 -0.0359
15205TIP3    H167030   0.702   1.904  11.534  1.5972  0.1088 -0.6740
15205TIP3    H267031   0.798   1.788  11.516  1.5437 -0.0678  0.1424
15206TIP3   OH267032   3.744   2.298  17.212 -0.4780 -0.1636  0.6414
15206TIP3    H167033   3.691   2.230  17.252 -0.3076 -0.1512  0.8929
15206TIP3    H267034   3.802   2.252  17.151 -1.7888 -0.0310 -0.7640
15207TIP3   OH267035   3.013   3.880   4.910 -0.3850 -0.8984 -0.0336
15207TIP3    H167036   3.033   3.952   4.851 -2.1384  0.5834  1.0682
15207TIP3    H267037   3.046   3.908   4.995 -0.4960 -1.7035  0.2835
15208TIP3   OH267038   1.929   4.598   5.330 -0.2078  0.3418  0.4442
15208TIP3    H167039   1.972   4.638   5.254 -1.2628  1.0425  0.1929
15208TIP3    H267040   1.988   4.617   5.403 -0.3521  1.8001  0.2085
15209TIP3   OH267041   0.733   2.292  14.143  0.4089 -0.2914 -0.1890
15209TIP3    H167042   0.743   2.222  14.079  0.6561 -1.1273  0.7373
15209TIP3    H267043   0.782   2.366  14.106 -0.2268 -0.4477 -1.3861
15210TIP3   OH267044   1.489   4.326  11.400  0.6636 -0.3297 -0.5695
15210TIP3    H167045   1.490   4.391  11.329 -1.1001  0.1283 -0.2198
15210TIP3    H267046   1.572   4.339  11.445  2.0249 -0.8943 -2.7562
15211TIP3   OH267047   4.524   0.793  12.820 -0.0666  0.6747 -0.4777
15211TIP3    H167048   4.474   0.753  12.749  0.5998  1.0512 -1.1839
15211TIP3    H267049   4.512   0.887  12.807 -1.0057  0.7411  0.7100
15212TIP3   OH267050   2.968   4.889  14.036  0.1139  0.2284  0.2508
15212TIP3    H167051   2.928   4.971  14.062  1.3211 -0.3139  4.5398
15212TIP3    H267052   2.916   4.821  14.078  0.3529 -1.1152 -1.4897
15213TIP3   OH267053   3.890   0.988   1.893  0.0027 -0.0505  0.6192
15213TIP3    H167054   3.938   0.905   1.887  0.5446  0.3002 -0.0765
15213TIP3    H267055   3.867   1.009   1.803  0.4423  0.8751  0.7140
15214TIP3   OH267056   5.612   0.885   5.700 -0.1968  0.6147 -0.6719
15214TIP3    H167057   5.595   0.833   5.622 -1.3663 -1.0200  0.6132
15214TIP3    H267058   5.566   0.840   5.770  0.9067  1.9661  1.0152
15215TIP3   OH267059   5.935   0.717   4.842  0.3986 -0.6285  0.1139
15215TIP3    H167060   6.020   0.697   4.803  0.3233  1.3543 -1.2157
15215TIP3    H267061   5.873   0.709   4.769 -0.0020  1.4943  0.1591
15216TIP3   OH267062   1.578   4.086   0.035 -0.8137 -0.1342 -0.0438
15216TIP3    H167063   1.640   4.056   0.101 -0.1035 -1.0332 -1.0838
15216TIP3    H267064   1.632   4.114  -0.039 -1.6139 -1.5862 -1.2429
15217TIP3   OH267065   4.679   5.065   3.528  0.5558 -0.3534 -0.7044
15217TIP3    H167066   4.760   5.015   3.541  0.5396 -0.4199 -0.8595
15217TIP3    H267067   4.610   5.007   3.561  0.5483 -0.3857 -0.7778
15218TIP3   OH267068   0.992   2.303  13.154 -0.1406 -0.3395 -0.5966
15218TIP3    H167069   0.898   2.301  13.140 -0.4449 -1.3822  1.3171
15218TIP3    H267070   1.024   2.371  13.094 -2.2148  0.7816 -0.5114
15219TIP3   OH267071   1.050   2.280  14.236  0.4911 -0.6096 -0.2910
15219TIP3    H167072   1.130   2.255  14.284  0.2809  0.6013  0.7107
15219TIP3    H267073   1.020   2.360  14.279 -1.1356 -0.9104 -0.8235
15220TIP3   OH267074   5.059   2.345  17.291  0.4861 -0.0614 -0.5052
15220TIP3    H167075   5.060   2.438  17.267 -1.1105 -0.0702 -0.7390
15220TIP3    H267076   5.075   2.299  17.209  1.0059  0.0021 -0.4405
15221TIP3   OH267077   0.462   1.535   4.151  0.0356  0.7761 -0.6582
15221TIP3    H167078   0.557   1.538   4.140  0.0478 -0.0761 -0.8368
15221TIP3    H267079   0.442   1.443   4.164 -0.9225  0.7689 -1.9853
15222TIP3   OH267080   2.723   5.343  15.930 -0.1284  0.3274 -0.1638
15222TIP3    H167081   2.695   5.433  15.917 -0.0710  0.3592 -0.0679
15222TIP3    H267082   2.648   5.290  15.900 -0.4473  0.4215  0.4321
15223TIP3   OH267083   2.160   0.281   3.400 -0.4167 -0.1720 -0.2406
15223TIP3    H167084   2.228   0.280   3.333 -1.3373  1.7893 -1.3020
15223TIP3    H267085   2.120   0.368   3.391 -2.2593 -0.8319  1.1315
15224TIP3   OH267086   3.806   5.681  12.873 -0.6140  0.1914 -0.2480
15224TIP3    H167087   3.764   5.644  12.795  0.5898 -1.6445 -0.0758
15224TIP3    H267088   3.845   5.606  12.917  1.5527  1.6182  0.4027
15225TIP3   OH267089   6.431   0.253   4.418 -0.1692 -0.1096 -0.9783
15225TIP3    H167090   6.462   0.163   4.417  1.2626  0.2019  2.3581
15225TIP3    H267091   6.510   0.306   4.404 -0.2725  0.6104  0.8722
15226TIP3   OH267092   4.430   3.274   4.931  0.4211  0.1991  0.3943
15226TIP3    H167093   4.391   3.352   4.973  1.3095  1.9526 -1.8234
15226TIP3    H267094   4.429   3.295   4.838 -0.4584 -3.0565 -0.4347
15227TIP3   OH267095   0.561   4.186   1.754  0.5946 -0.4925 -0.0678
15227TIP3    H167096   0.651   4.170   1.782  0.2202  0.8110  2.1288
15227TIP3    H267097   0.509   4.118   1.798 -0.0729  1.9083  3.2891
15228TIP3   OH267098   2.048   1.197   0.030  0.0824 -0.0487 -0.4843
15228TIP3    H167099   1.972   1.139   0.023 -0.4885  0.6621 -0.3829
15228TIP3    H267100   2.123   1.138   0.036 -0.3196 -0.7728 -1.9846
15229TIP3   OH267101   0.355   4.069   0.325 -0.4688 -0.9156  0.3032
15229TIP3    H167102   0.294   4.050   0.396 -0.6457  0.6126  0.5898
15229TIP3    H267103   0.436   4.027   0.352 -0.4642 -0.1593  1.5518
15230TIP3   OH267104   0.875   3.151  17.367 -0.2610 -0.0889  0.5922
15230TIP3    H167105   0.796   3.126  17.416 -0.0877 -0.4630  0.6825
15230TIP3    H267106   0.890   3.078  17.308  0.5995 -0.4829  1.2783
15231TIP3   OH267107   1.476   4.714   4.588 -0.0539  0.0209  0.1731
15231TIP3    H167108   1.477   4.645   4.655 -0.5373 -1.0466 -0.8849
15231TIP3    H267109   1.561   4.706   4.544 -0.6704 -0.9178 -0.9142
15232TIP3   OH267110   2.381   5.480  15.234  0.2776 -0.0919  0.4851
15232TIP3    H167111   2.466   5.484  15.277 -0.8200 -0.2595  2.8162
15232TIP3    H267112   2.336   5.559  15.264 -0.0623  0.5523 -1.5629
15233TIP3   OH267113   3.200   2.549  11.612  0.0046 -0.0500 -0.5730
15233TIP3    H167114   3.130   2.546  11.677  0.1247 -0.6002 -0.4642
15233TIP3    H267115   3.164   2.506  11.535 -0.7382  2.0636 -1.4998
15234TIP3   OH267116   1.979   2.344  12.576  0.2514 -0.6270 -0.3546
15234TIP3    H167117   1.917   2.411  12.547 -1.0794 -1.8132 -0.4005
15234TIP3    H267118   1.946   2.316  12.662  2.5422  0.8646  1.1234
15235TIP3   OH267119   2.204   4.685   4.584  0.3924 -0.0081 -0.3217
15235TIP3    H167120   2.183   4.778   4.581 -1.4975 -0.3536  0.5887
15235TIP3    H267121   2.216   4.660   4.493 -3.5899  0.2556 -1.1013
15236TIP3   OH267122   5.720   3.439  15.259 -0.5186  0.0216 -0.5568
15236TIP3    H167123   5.775   3.476  15.328 -2.8065  0.9704  0.8803
15236TIP3    H267124   5.720   3.345  15.276 -1.1856  0.2502  0.9209
15237TIP3   OH267125   6.532   0.278  15.755 -0.2121 -0.5670  0.1979
15237TIP3    H167126   6.579   0.195  15.752 -1.0633 -1.1289  1.4231
15237TIP3    H267127   6.516   0.293  15.848 -0.6662  0.6259 -0.0567
15238TIP3   OH267128   0.700   3.308  14.049  1.0690  0.0848 -0.2751
15238TIP3    H167129   0.733   3.375  14.110 -0.3565  1.7674 -1.2576
15238TIP3    H267130   0.642   3.254  14.103 -0.7375  1.9791 -0.1779
15239TIP3   OH267131   5.791   5.367  10.760 -0.5163  0.3983  0.2908
15239TIP3    H167132   5.749   5.430  10.701  1.8378  1.0322 -0.8543
15239TIP3    H267133   5.806   5.290  10.705 -1.7750 -0.5062  1.1903
15240TIP3   OH267134   4.704   3.200   4.019  0.0746 -0.2505 -0.1849
15240TIP3    H167135   4.631   3.259   4.003 -0.2938 -0.7441 -0.3777
15240TIP3    H267136   4.731   3.171   3.932 -1.0373 -1.8784 -0.0484
15241TIP3   OH267137   6.725   1.252  13.683 -0.1630 -0.5143 -0.3572
15241TIP3    H167138   6.807   1.249  13.633  0.0258  0.3800 -0.1124
15241TIP3    H267139   6.688   1.338  13.664 -0.5580 -0.5316  0.3010
15242TIP3   OH267140   5.195   5.600  10.889 -0.5640 -0.0547  0.2580
15242TIP3    H167141   5.246   5.655  10.948  0.0242  0.6895 -0.9183
15242TIP3    H267142   5.105   5.633  10.897 -0.1625  1.3671 -0.7095
15243TIP3   OH267143   0.684   3.689  13.441 -0.7364  0.2189 -0.1684
15243TIP3    H167144   0.697   3.782  13.455  1.1189 -0.1645  1.0312
15243TIP3    H267145   0.760   3.661  13.390 -0.7215 -0.7986  0.3760
15244TIP3   OH267146   3.639   0.192  15.198 -0.1848 -0.2788  0.3990
15244TIP3    H167147   3.668   0.110  15.160 -2.7698 -1.3329  0.4656
15244TIP3    H267148   3.719   0.236  15.226  1.3766 -2.0232 -1.1017
15245TIP3   OH267149   5.335   3.282   3.239 -0.1295  0.2634 -0.0209
15245TIP3    H167150   5.359   3.368   3.204  0.9705 -0.3074 -0.7345
15245TIP3    H267151   5.370   3.283   3.328  0.0893  0.4703 -0.1072
15246TIP3   OH267152   5.357   2.445   1.911 -0.0035  0.4463  0.0846
15246TIP3    H167153   5.441   2.469   1.950  0.2390  0.1624 -0.2513
15246TIP3    H267154   5.293   2.460   1.980  0.7567 -2.9025  1.7078
15247TIP3   OH267155   2.698   1.462   6.498 -0.3854 -0.1109  0.2724
15247TIP3    H167156   2.722   1.518   6.572 -0.5011 -0.3259  0.4763
15247TIP3    H267157   2.765   1.393   6.498 -1.2443 -0.9825  1.1379
15248TIP3   OH267158   3.367   1.892  12.713 -0.1156  0.3759 -0.7335
15248TIP3    H167159   3.347   1.908  12.805 -0.3519 -1.6795 -0.3782
15248TIP3    H267160   3.285   1.860  12.676  0.2788  0.0797 -1.3750
15249TIP3   OH267161   0.268   4.169   4.377 -0.1237 -0.2224 -0.7356
15249TIP3    H167162   0.328   4.213   4.437 -0.7196 -0.8842  0.3795
15249TIP3    H267163   0.256   4.231   4.305 -1.4290  1.7263  1.0530
15250TIP3   OH267164   6.275   1.695  11.309 -0.0611 -0.2962  0.2874
15250TIP3    H167165   6.296   1.785  11.284 -0.6630 -0.6868 -1.8226
15250TIP3    H267166   6.334   1.676  11.383  0.6947  1.5189  0.1945
15251TIP3   OH267167   0.111   0.953  16.118  0.2371 -0.5648 -0.2926
15251TIP3    H167168   0.109   0.986  16.028  1.5159 -0.0092 -0.1417
15251TIP3    H267169   0.098   0.859  16.110 -1.8075 -0.2736 -0.8730
15252TIP3   OH267170   2.478   6.623   4.728  0.0021  0.1445  0.3516
15252TIP3    H167171   2.450   6.621   4.636  0.3245  0.7954  0.2310
15252TIP3    H267172   2.458   6.712   4.757 -0.3800 -0.1450  1.0121
15253TIP3   OH267173   0.772   0.833   3.532 -0.4184  0.2648 -0.1607
15253TIP3    H167174   0.694   0.865   3.576 -0.0333  1.3284 -0.2299
15253TIP3    H267175   0.747   0.829   3.439 -0.6810 -0.3212 -0.0725
15254TIP3   OH267176   0.878   1.773   0.978 -0.2551 -0.1027  0.7424
15254TIP3    H167177   0.838   1.700   1.026  0.6981  0.3156  2.2670
15254TIP3    H267178   0.818   1.791   0.906 -1.3793 -1.2667  1.3537
15255TIP3   OH267179   3.676   2.844   1.691  0.3192 -0.2040 -0.1454
15255TIP3    H167180   3.602   2.783   1.691 -2.3636  2.7718  1.1889
15255TIP3    H267181   3.703   2.850   1.599 -1.4763 -0.9666 -0.7553
15256TIP3   OH267182   2.872   3.816  12.564 -0.2025  0.0401 -0.1021
15256TIP3    H167183   2.890   3.875  12.491 -1.4810  0.3656 -0.1925
15256TIP3    H267184   2.805   3.756  12.530  0.6149 -1.0608  0.1932
15257TIP3   OH267185   4.848   3.413  10.593  0.1940  0.1783  0.3595
15257TIP3    H167186   4.916   3.376  10.648 -0.3215 -0.6103  0.4814
15257TIP3    H267187   4.775   3.432  10.653 -0.4369 -0.8555 -0.0523
15258TIP3   OH267188   2.617   4.450  15.061 -0.3510 -0.4430 -0.0485
15258TIP3    H167189   2.669   4.455  15.141 -1.6908  1.4276  0.7835
15258TIP3    H267190   2.659   4.512  15.001 -2.4492  2.4333  1.2387
15259TIP3   OH267191   1.460   5.784   2.769  0.4972  0.1895 -0.3127
15259TIP3    H167192   1.461   5.713   2.705 -0.9382  0.0591 -0.2058
15259TIP3    H267193   1.371   5.817   2.768  0.4508  0.2335  1.5575
15260TIP3   OH267194   1.865   3.914  13.176 -0.2510 -0.2590 -0.5503
15260TIP3    H167195   1.796   3.856  13.143  0.6317 -0.3470 -2.3379
15260TIP3    H267196   1.877   3.887  13.267 -1.6165 -1.1540 -0.6070
15261TIP3   OH267197   0.047   5.322  13.481 -0.2250 -0.2331  0.1726
15261TIP3    H167198   0.019   5.331  13.390 -1.8671  0.5462  0.7134
15261TIP3    H267199   0.058   5.412  13.512 -1.4221 -0.4031  1.2119
15262TIP3   OH267200   3.745   1.845  15.565 -0.0848  0.0811 -0.9687
15262TIP3    H167201   3.669   1.810  15.518  1.0511  1.1007 -3.7577
15262TIP3    H267202   3.796   1.892  15.499  0.9655  2.8962  1.5628
15263TIP3   OH267203   5.441   2.485  17.321  0.1597 -0.2467  0.2553
15263TIP3    H167204   5.426   2.578  17.308 -0.5112 -0.4886 -0.8995
15263TIP3    H267205   5.386   2.462  17.395  0.4299  0.3001  0.6280
15264TIP3   OH267206   4.132   4.715   1.187  0.4059 -0.0594 -0.1618
15264TIP3    H167207   4.215   4.763   1.180  0.0147  0.5074 -1.0607
15264TIP3    H267208   4.127   4.691   1.279  0.9712  1.0058  0.1719
15265TIP3   OH267209   2.468   6.632  14.747 -0.5724  0.1239  0.2797
15265TIP3    H167210   2.513   6.563  14.795 -0.8314 -0.0022  0.3449
15265TIP3    H267211   2.415   6.585  14.682  0.7880  0.3343 -1.0270
15266TIP3   OH267212   0.863   4.987  12.831 -0.5967 -0.4586  0.5828
15266TIP3    H167213   0.927   5.055  12.853 -2.5956  1.1406  1.9012
15266TIP3    H267214   0.851   4.996  12.736  2.7103 -2.4032 -0.1706
15267TIP3   OH267215   0.948   1.962  15.264 -0.3834  0.5757 -0.6298
15267TIP3    H167216   1.034   2.001  15.277  0.0013 -0.0833 -1.0970
15267TIP3    H267217   0.946   1.940  15.170  0.2720 -2.4033 -0.0600
15268TIP3   OH267218   1.893   4.385  14.846 -0.0610  0.0805 -0.4046
15268TIP3    H167219   1.800   4.408  14.841  0.2318  1.2532 -0.8349
15268TIP3    H267220   1.906   4.323  14.774 -0.5246 -0.1505 -0.2943
15269TIP3   OH267221   0.923   4.298   5.749 -1.0076 -0.2866 -0.2300
15269TIP3    H167222   0.867   4.354   5.694 -0.6430  0.7251  0.3980
15269TIP3    H267223   0.861   4.245   5.798 -1.4829  1.1793  0.8318
15270TIP3   OH267224   2.136   5.815  16.184 -0.0845  0.4137  0.2949
15270TIP3    H167225   2.178   5.805  16.098  2.2199  2.0497  1.1398
15270TIP3    H267226   2.075   5.742  16.189 -0.0121  0.0499 -2.5718
15271TIP3   OH267227   1.968   3.681   6.467  0.0452  0.0962  0.2744
15271TIP3    H167228   1.928   3.609   6.516 -1.2309  1.2452  0.9914
15271TIP3    H267229   2.047   3.702   6.517 -0.6387  0.4994  1.2128
15272TIP3   OH267230   6.565   3.563   6.269 -0.4882  0.1087 -0.0106
15272TIP3    H167231   6.499   3.614   6.316  0.4985  2.7622 -1.3652
15272TIP3    H267232   6.625   3.534   6.338 -0.3356  1.9512  0.6946
15273TIP3   OH267233   6.069   0.302   5.007  0.1217  0.3725  0.6864
15273TIP3    H167234   6.020   0.231   5.048  0.3995  0.1143  0.5786
15273TIP3    H267235   6.036   0.305   4.917 -0.5209  0.9699  0.9329
15274TIP3   OH267236   5.189   2.075  14.549  0.1086 -0.8211 -0.0524
15274TIP3    H167237   5.212   1.989  14.583  0.6660  0.2228  2.3923
15274TIP3    H267238   5.176   2.129  14.627 -1.3212  1.0453 -1.4979
15275TIP3   OH267239   4.849   2.542   5.035  0.0347  0.1322  0.7637
15275TIP3    H167240   4.866   2.463   5.086  2.4572 -0.5885 -0.9828
15275TIP3    H267241   4.817   2.510   4.950 -1.2403  1.1716  0.8158
15276TIP3   OH267242   6.464   0.485   5.810  0.1229 -0.4523  0.7313
15276TIP3    H167243   6.500   0.571   5.790  0.8303 -0.6079  1.2976
15276TIP3    H267244   6.380   0.503   5.853  0.9853  0.0130  2.2935
15277TIP3   OH267245   4.076   2.440  16.020 -0.2217 -0.1999  0.5857
15277TIP3    H167246   4.160   2.474  16.049  0.6370 -0.7111 -1.1709
15277TIP3    H267247   4.022   2.517  16.006 -0.0028  0.1387  1.5537
15278TIP3   OH267248   2.463   0.157  12.433  0.5184  0.0918 -0.2106
15278TIP3    H167249   2.501   0.236  12.394  0.0876  0.4255  0.0356
15278TIP3    H267250   2.371   0.158  12.405  0.5878 -0.4918 -0.4671
15279TIP3   OH267251   2.945   6.376   2.102  0.3573 -0.2374  0.2811
15279TIP3    H167252   2.956   6.348   2.193  1.4216  0.5638  0.4234
15279TIP3    H267253   3.032   6.367   2.064 -0.0326 -0.3359 -0.6028
15280TIP3   OH267254   0.565   6.645  16.457 -0.1702  0.2008 -0.0419
15280TIP3    H167255   0.623   6.708  16.499 -0.6957  1.9383 -1.7704
15280TIP3    H267256   0.488   6.642  16.512 -0.3068  1.4254 -0.1410
15281TIP3   OH267257   2.597   1.262  12.918 -0.0191 -0.2293  0.3753
15281TIP3    H167258   2.672   1.211  12.950  0.5082  0.0550 -0.3832
15281TIP3    H267259   2.629   1.352  12.912 -0.4964 -0.0614  0.2822
15282TIP3   OH267260   0.004   1.743  13.130 -0.4679  0.1772 -0.1723
15282TIP3    H167261   0.075   1.755  13.067 -1.4390  2.3117 -0.9846
15282TIP3    H267262   0.047   1.748  13.215  0.3099  2.3965 -0.6232
15283TIP3   OH267263   2.554   4.975   6.479 -0.7356 -0.3930 -0.1705
15283TIP3    H167264   2.551   4.980   6.384  0.4196 -2.0885 -0.3416
15283TIP3    H267265   2.566   5.066   6.508  0.3639 -0.0095 -1.7222
15284TIP3   OH267266   5.462   0.907   3.646 -0.4561  0.1181  0.1274
15284TIP3    H167267   5.413   0.950   3.576  0.4179  0.5155 -0.2621
15284TIP3    H267268   5.528   0.856   3.600  0.9214  1.3467  0.6593
15285TIP3   OH267269   2.803   0.652   0.758  0.1490 -0.1659 -0.0779
15285TIP3    H167270   2.873   0.646   0.693  0.8936 -2.4681  0.8297
15285TIP3    H267271   2.728   0.609   0.717  0.2144 -0.4153  0.0575
15286TIP3   OH267272   0.760   1.520  11.857  0.8636  0.1429  0.5189
15286TIP3    H167273   0.762   1.474  11.773  0.3453  0.1450  0.5011
15286TIP3    H267274   0.808   1.601  11.841  1.3273 -0.1525  0.4043
15287TIP3   OH267275   3.234   0.229   5.480 -0.4716 -0.1395 -0.3621
15287TIP3    H167276   3.300   0.250   5.414  0.7857 -0.4056  0.7799
15287TIP3    H267277   3.227   0.308   5.533  1.3598 -1.1595  1.5113
15288TIP3   OH267278   2.781   1.152  10.902  0.1422 -0.6584 -0.2885
15288TIP3    H167279   2.817   1.074  10.859 -1.2374 -0.2543 -2.3346
15288TIP3    H267280   2.694   1.125  10.931  0.3350 -0.3623  0.6078
15289TIP3   OH267281   1.465   2.926  11.771  0.4150  0.3024 -0.6600
15289TIP3    H167282   1.462   2.877  11.853 -0.1780  0.5351 -0.5412
15289TIP3    H267283   1.440   2.862  11.704  0.7228  0.1587 -0.6368
15290TIP3   OH267284   5.409   5.568  11.207 -0.4736  0.3947 -0.4627
15290TIP3    H167285   5.441   5.637  11.265  1.0148 -0.7457  0.1598
15290TIP3    H267286   5.320   5.550  11.238 -0.2514  0.8447  0.4926
15291TIP3   OH267287   0.482   1.505  11.469 -0.3785 -0.5287 -0.0954
15291TIP3    H167288   0.487   1.456  11.387 -1.0816  0.7517 -0.9262
15291TIP3    H267289   0.398   1.479  11.507  0.9008 -2.8158  1.3721
15292TIP3   OH267290   5.357   3.870   1.518 -0.0194 -0.0619  0.0004
15292TIP3    H167291   5.347   3.958   1.554 -0.1041 -0.3232  0.6152
15292TIP3    H267292   5.272   3.829   1.530  0.0589 -0.2765 -0.1715
15293TIP3   OH267293   4.325   4.653  12.880 -0.4740  0.0962  0.5434
15293TIP3    H167294   4.403   4.641  12.827 -0.6177  0.3917  0.2626
15293TIP3    H267295   4.338   4.737  12.925 -0.4584 -0.0385  0.7957
15294TIP3   OH267296   1.145   3.274  12.302  0.5368 -0.0454 -0.2985
15294TIP3    H167297   1.241   3.279  12.302  0.6087 -0.9213 -1.7296
15294TIP3    H267298   1.121   3.269  12.395  1.8115  1.0894  0.1268
15295TIP3   OH267299   2.384   2.276   5.156 -0.9415 -0.5558  0.2839
15295TIP3    H167300   2.373   2.195   5.206  0.9014 -0.8388  0.2956
15295TIP3    H267301   2.330   2.340   5.201  2.9031  0.0784  4.7005
15296TIP3   OH267302   3.987   5.285  11.573 -0.0227 -0.0922  0.0481
15296TIP3    H167303   3.988   5.201  11.619 -1.6475 -0.1980 -0.0708
15296TIP3    H267304   4.079   5.301  11.550  0.1793 -2.3945 -0.9481
15297TIP3   OH267305   3.087   0.258   3.990  0.0446 -0.1874  0.4379
15297TIP3    H167306   3.106   0.164   3.995 -0.0668 -0.4634 -2.5919
15297TIP3    H267307   3.151   0.298   4.048  1.5198 -2.0086  0.1693
15298TIP3   OH267308   2.273   0.322  15.401  0.2212 -0.6908  0.4635
15298TIP3    H167309   2.310   0.248  15.353  1.7296  1.2317 -1.5425
15298TIP3    H267310   2.347   0.359  15.449 -0.3874 -0.1259  0.9826
15299TIP3   OH267311   6.305   5.593   5.669  0.1107  0.4279 -0.0214
15299TIP3    H167312   6.246   5.647   5.617 -0.1213  0.0412 -0.1619
15299TIP3    H267313   6.336   5.526   5.608  0.5128  0.4861  0.1135
15300TIP3   OH267314   2.214   0.904  13.760  0.1489  0.0006  0.4921
15300TIP3    H167315   2.133   0.933  13.802 -0.5185 -0.9533 -0.0923
15300TIP3    H267316   2.188   0.879  13.671  1.0950 -0.2807  0.2779
15301TIP3   OH267317   2.357   6.124   2.485 -0.1931  0.1142  0.1501
15301TIP3    H167318   2.425   6.162   2.541 -0.9271  2.4366 -0.4299
15301TIP3    H267319   2.275   6.156   2.523 -0.8039 -0.0018 -1.0369
15302TIP3   OH267320   3.525   0.295   0.300  0.3966 -0.6479  0.1730
15302TIP3    H167321   3.539   0.319   0.391 -0.7272 -1.4076  0.5704
15302TIP3    H267322   3.607   0.318   0.256  0.0713  2.1498  0.8305
15303TIP3   OH267323   4.085   1.964  10.897 -0.4111  0.4887 -0.6103
15303TIP3    H167324   4.037   1.922  10.968  1.5971 -3.8301 -1.4405
15303TIP3    H267325   4.046   1.929  10.817  0.1822  1.7940 -1.5119
15304TIP3   OH267326   4.919   4.937   2.717  0.0128  0.0546 -0.8364
15304TIP3    H167327   4.912   4.868   2.651 -1.1013 -0.2497 -0.4218
15304TIP3    H267328   4.867   4.905   2.791 -1.0308  1.5840 -0.8598
15305TIP3   OH267329   3.918   1.350   6.775 -0.4047  0.5525 -0.3621
15305TIP3    H167330   3.901   1.362   6.681 -0.7183  0.9550 -0.2595
15305TIP3    H267331   3.924   1.255   6.787 -1.1938  0.4564 -0.6517
15306TIP3   OH267332   1.068   2.190  11.475 -0.2209 -0.3421 -0.3538
15306TIP3    H167333   1.134   2.142  11.526 -1.7968 -0.1211  2.0758
15306TIP3    H267334   1.116   2.228  11.402  2.0164 -1.4779  0.4501
15307TIP3   OH267335   1.863   4.207  14.583 -0.3263 -0.0900  0.2641
15307TIP3    H167336   1.779   4.168  14.557 -0.4528 -0.1483  0.7427
15307TIP3    H267337   1.894   4.150  14.654 -0.0465  0.1283  0.3151
15308TIP3   OH267338   1.457   6.710   4.575  0.1346  0.4669  0.2442
15308TIP3    H167339   1.454   6.722   4.670 -2.1562  1.7291  0.0734
15308TIP3    H267340   1.406   6.783   4.540  3.6250  2.0189 -2.2022
15309TIP3   OH267341   5.470   4.720   3.561 -0.1491 -0.7217  0.1992
15309TIP3    H167342   5.458   4.815   3.570 -0.8740 -0.8167  0.3161
15309TIP3    H267343   5.394   4.691   3.510  0.5520 -1.1183 -0.6444
15310TIP3   OH267344   6.391   0.317   4.678  0.3551 -0.3036  0.1551
15310TIP3    H167345   6.310   0.273   4.702 -0.1329  0.0424 -0.7948
15310TIP3    H267346   6.410   0.284   4.590  0.6434  0.4595 -0.0753
15311TIP3   OH267347   2.901   4.512   1.664 -0.4506 -0.0880 -0.1983
15311TIP3    H167348   2.981   4.500   1.716 -0.3714  0.9400 -0.0667
15311TIP3    H267349   2.849   4.434   1.682 -0.4258  0.2292  1.4208
15312TIP3   OH267350   5.182   1.715  16.890 -0.1639  0.2314 -0.5420
15312TIP3    H167351   5.126   1.647  16.928 -2.0225  1.0956 -1.6041
15312TIP3    H267352   5.136   1.743  16.811  1.1695  1.8607 -0.8045
15313TIP3   OH267353   5.275   3.676   5.991 -0.1811 -0.1780 -0.0673
15313TIP3    H167354   5.309   3.676   6.080  0.8137 -1.4382 -0.3999
15313TIP3    H267355   5.286   3.585   5.961 -0.8260  0.1321 -1.3436
15314TIP3   OH267356   6.412   2.385  14.216 -0.0189 -0.1884  0.2165
15314TIP3    H167357   6.474   2.455  14.193 -1.3748  0.1536 -2.8602
15314TIP3    H267358   6.357   2.424  14.285  1.3037  0.5491  0.8867
15315TIP3   OH267359   3.650   3.701  15.091 -0.1167 -0.4578 -0.5148
15315TIP3    H167360   3.647   3.666  15.002 -2.6336 -2.7084  0.3431
15315TIP3    H267361   3.608   3.787  15.085  1.3496  0.2238 -1.7277
15316TIP3   OH267362   5.534   5.691  11.597  0.4261 -0.3611  0.9996
15316TIP3    H167363   5.528   5.598  11.618  0.1910 -0.7003 -0.4684
15316TIP3    H267364   5.624   5.715  11.620  0.5674 -1.0075  1.1408
15317TIP3   OH267365   6.506   1.729   3.333  0.2314 -0.2686  0.0746
15317TIP3    H167366   6.444   1.789   3.372 -0.8506 -1.0460 -0.3848
15317TIP3    H267367   6.482   1.727   3.240  2.1905  0.8863 -0.5067
15318TIP3   OH267368   5.899   0.275   2.293  0.1942  0.2033  0.0335
15318TIP3    H167369   5.814   0.316   2.309  0.4193  0.4422  0.6322
15318TIP3    H267370   5.920   0.298   2.203  0.6023  1.9402  0.5419
15319TIP3   OH267371   1.085   1.700   4.754  0.6232 -0.4359  0.1638
15319TIP3    H167372   1.120   1.675   4.840  3.8444 -1.7353 -1.3954
15319TIP3    H267373   1.029   1.626   4.729 -2.2296  0.9404  1.9751
15320TIP3   OH267374   0.398   1.086  14.849 -0.4932 -0.0523 -0.2357
15320TIP3    H167375   0.355   1.096  14.764 -0.0867 -0.7121 -0.5304
15320TIP3    H267376   0.434   0.997  14.847 -2.3020 -0.9229  1.4684
15321TIP3   OH267377   3.796   3.303   1.153 -0.1410 -0.3231 -0.2477
15321TIP3    H167378   3.855   3.361   1.106  1.0654 -1.9286 -0.7889
15321TIP3    H267379   3.830   3.216   1.138 -0.4251 -1.0300  2.5934
15322TIP3   OH267380   3.697   1.109  13.501 -0.0287 -0.0546 -0.1447
15322TIP3    H167381   3.701   1.062  13.417  0.3302 -1.8957  0.8619
15322TIP3    H267382   3.606   1.139  13.507 -0.5709 -1.5561 -0.3587
15323TIP3   OH267383   1.506   3.622  15.390  0.0317  0.7649  0.1273
15323TIP3    H167384   1.450   3.689  15.430 -0.4011  0.2698  0.3595
15323TIP3    H267385   1.445   3.558  15.354  0.4397 -0.0079  0.7669
15324TIP3   OH267386   1.503   2.325   2.860 -0.0611 -0.5202 -0.3670
15324TIP3    H167387   1.595   2.298   2.859  0.7376  1.9228 -1.2731
15324TIP3    H267388   1.495   2.381   2.937 -1.5247 -2.6559  1.1637
15325TIP3   OH267389   1.042   4.985   4.003 -0.4216 -0.3894  0.2348
15325TIP3    H167390   1.063   5.001   4.095  0.3474  1.1192 -0.1612
15325TIP3    H267391   1.064   5.067   3.959 -1.5856 -0.7910 -1.1728
15326TIP3   OH267392   3.648   3.051   4.179  0.1191  0.3882  0.2327
15326TIP3    H167393   3.684   3.030   4.265  0.6643 -0.1909 -0.1254
15326TIP3    H267394   3.716   3.024   4.118 -0.7040 -0.1941 -0.4417
15327TIP3   OH267395   6.230   2.708  11.344 -0.4124 -0.3983 -0.1017
15327TIP3    H167396   6.281   2.776  11.300 -0.2634  1.0228  2.1279
15327TIP3    H267397   6.194   2.655  11.272  2.4231 -0.2032 -1.8283
15328TIP3   OH267398   4.064   5.240  13.454 -0.7904  0.0352 -0.2834
15328TIP3    H167399   4.121   5.289  13.395  2.6145  0.0648  2.6583
15328TIP3    H267400   4.122   5.176  13.495 -3.2855 -1.0518  1.8270
15329TIP3   OH267401   2.398   1.147  12.734  0.0275  0.1380  0.0232
15329TIP3    H167402   2.445   1.219  12.777  1.9871 -0.7472 -0.5494
15329TIP3    H267403   2.431   1.068  12.775 -2.9799 -0.4951  1.4911
15330TIP3   OH267404   6.573   0.074  17.181 -0.3588  0.4239  0.2592
15330TIP3    H167405   6.625  -0.003  17.156 -0.7552 -0.3049  1.5609
15330TIP3    H267406   6.629   0.148  17.160  0.2932 -0.2466 -0.4580
15331TIP3   OH267407   2.994   4.072  11.785  0.1497  0.1872  0.2170
15331TIP3    H167408   2.944   4.151  11.762 -0.2024  0.5995  2.1996
15331TIP3    H267409   3.047   4.099  11.860  2.6463 -0.5415 -1.1714
15332TIP3   OH267410   4.557   4.073   0.196 -0.4367 -0.4032  0.1429
15332TIP3    H167411   4.468   4.078   0.164 -0.4665 -0.4060  0.2235
15332TIP3    H267412   4.550   4.025   0.279 -0.5333  0.7080  0.7955
15333TIP3   OH267413   0.880   3.010  14.795 -0.2432  0.0758  0.0301
15333TIP3    H167414   0.786   3.007  14.774 -0.7809 -0.6397  2.1743
15333TIP3    H267415   0.902   3.103  14.794 -0.7512  0.2016 -1.2964
15334TIP3   OH267416   2.841   1.628   3.191  0.4447 -0.0014 -0.2789
15334TIP3    H167417   2.900   1.670   3.254 -0.0476 -0.2663  0.3736
15334TIP3    H267418   2.829   1.693   3.122  0.3537  0.6097  0.3051
15335TIP3   OH267419   1.725   0.156   3.699 -0.1346 -0.1367 -0.1115
15335TIP3    H167420   1.712   0.162   3.793  2.2936 -2.4802  0.4887
15335TIP3    H267421   1.782   0.080   3.687  1.0628  1.0825 -3.3407
15336TIP3   OH267422   3.844   6.506   2.970 -0.1784  0.2849  0.0508
15336TIP3    H167423   3.801   6.438   2.919  1.9978 -0.1776 -1.2890
15336TIP3    H267424   3.803   6.588   2.942 -1.4475 -0.2891  0.2062
15337TIP3   OH267425   5.356   1.472  11.629  0.4533 -0.3403 -0.8217
15337TIP3    H167426   5.311   1.390  11.646 -1.0691  0.6878  0.2405
15337TIP3    H267427   5.448   1.453  11.648  0.1456 -1.8009 -0.6876
15338TIP3   OH267428   3.700   3.186  14.359 -0.3280 -0.6098  0.1983
15338TIP3    H167429   3.671   3.098  14.383  1.0387 -0.5690  2.2042
15338TIP3    H267430   3.795   3.180  14.352 -0.0119  1.0594  2.1980
15339TIP3   OH267431   3.748   2.682   5.653  0.4720 -0.6701  0.5034
15339TIP3    H167432   3.832   2.661   5.694  0.5311 -3.0922 -0.6800
15339TIP3    H267433   3.770   2.743   5.584  0.8347  0.8009  1.8587
15340TIP3   OH267434   4.509   6.102  16.431 -0.3071 -0.4401 -0.4707
15340TIP3    H167435   4.449   6.147  16.371 -0.2500  1.1071  0.5636
15340TIP3    H267436   4.553   6.173  16.477  0.4780 -1.5823  0.5845
15341TIP3   OH267437   0.192   3.298   4.611 -0.3624  0.0560  0.4585
15341TIP3    H167438   0.195   3.343   4.526 -1.8958  0.8859  0.8070
15341TIP3    H267439   0.265   3.236   4.608 -1.8023 -1.7413 -2.4971
15342TIP3   OH267440   5.160   5.526   2.826  0.1835 -0.2756 -0.3106
15342TIP3    H167441   5.189   5.470   2.755  1.2493 -0.8105  0.5186
15342TIP3    H267442   5.164   5.615   2.790  1.7395 -0.4401 -0.5908
15343TIP3   OH267443   4.294   1.834   3.327  0.6260  0.3138 -0.1639
15343TIP3    H167444   4.199   1.831   3.316  0.6320 -0.4468 -0.0426
15343TIP3    H267445   4.326   1.874   3.246  0.2580 -0.1389 -0.5407
15344TIP3   OH267446   3.531   5.575  16.228  0.9073  0.0095  0.1197
15344TIP3    H167447   3.536   5.494  16.177  2.2476  0.6807 -0.8673
15344TIP3    H267448   3.621   5.607  16.231  0.4973  1.1386  1.0484
15345TIP3   OH267449   4.835   6.721  11.710 -0.3209  0.3793  0.2381
15345TIP3    H167450   4.860   6.681  11.627 -0.0390  0.3505  0.3348
15345TIP3    H267451   4.804   6.648  11.763  2.3841 -0.1267  1.2525
15346TIP3   OH267452   0.706   5.187   5.961 -0.7270 -0.0290 -0.4679
15346TIP3    H167453   0.718   5.227   6.048 -0.2263 -0.4150 -0.3594
15346TIP3    H267454   0.794   5.170   5.930 -0.8783  0.7494 -1.3649
15347TIP3   OH267455   2.727   1.781   2.646  0.1889 -0.5317 -0.2202
15347TIP3    H167456   2.652   1.809   2.593  0.9332 -0.3789 -1.2196
15347TIP3    H267457   2.774   1.862   2.665 -0.5666 -0.4647  1.4976
15348TIP3   OH267458   1.461   5.376   0.725 -0.1114  0.0172 -0.3231
15348TIP3    H167459   1.486   5.420   0.806 -0.6409  0.1857 -0.2480
15348TIP3    H267460   1.446   5.285   0.751 -0.7531  0.1738 -0.1365
15349TIP3   OH267461   3.618   3.778  16.106 -0.1329  0.1406  0.0346
15349TIP3    H167462   3.653   3.784  16.195  1.4590 -2.0230 -0.3702
15349TIP3    H267463   3.523   3.779  16.118  0.0101 -2.1737  2.0006
15350TIP3   OH267464   3.125   5.797   4.768 -0.4684 -0.0973  0.0055
15350TIP3    H167465   3.037   5.815   4.800 -1.1883  0.1335 -1.9677
15350TIP3    H267466   3.143   5.707   4.796 -3.4789 -2.1759 -3.7795
15351TIP3   OH267467   2.964   1.468   5.953 -0.2908 -0.4107  0.5642
15351TIP3    H167468   3.033   1.469   5.887  0.2594  1.3686  1.0940
15351TIP3    H267469   2.961   1.559   5.985 -1.9440 -0.7687  1.5171
15352TIP3   OH267470   6.145   1.229   2.038  0.5919 -0.0021  0.3178
15352TIP3    H167471   6.126   1.135   2.036 -1.9805  0.4423 -1.9390
15352TIP3    H267472   6.234   1.237   2.003  1.0135 -1.5786  0.9449
15353TIP3   OH267473   5.636   1.338  11.174 -0.2451 -0.2134 -0.3822
15353TIP3    H167474   5.699   1.315  11.105 -1.7267  0.0919 -1.8815
15353TIP3    H267475   5.640   1.264  11.234  1.5844 -0.1799 -0.3875
15354TIP3   OH267476   1.015   1.726  14.776  0.2678  0.0492  0.7269
15354TIP3    H167477   1.089   1.672  14.750  0.9828  1.7390 -0.9428
15354TIP3    H267478   1.031   1.811  14.736 -1.8755  0.9060  1.5012
15355TIP3   OH267479   5.211   4.075   0.550 -0.0980  0.2189  0.4630
15355TIP3    H167480   5.179   4.083   0.640  1.6997  0.9505  1.0997
15355TIP3    H267481   5.136   4.044   0.500 -0.8921 -1.1170  2.3773
15356TIP3   OH267482   5.257   4.245  12.782  0.2362  0.2228  0.0456
15356TIP3    H167483   5.261   4.166  12.728  0.8700 -1.0620  1.8597
15356TIP3    H267484   5.163   4.263  12.790 -0.0264 -1.2765  0.8195
15357TIP3   OH267485   4.184   0.751   4.876 -0.1349  0.2406  0.0137
15357TIP3    H167486   4.090   0.771   4.869 -0.0227  1.3744  1.3730
15357TIP3    H267487   4.224   0.802   4.805 -0.2902  1.8638  1.0486
15358TIP3   OH267488   4.440   1.623   2.296  0.1868 -0.0815 -0.1771
15358TIP3    H167489   4.449   1.545   2.352  0.5653 -0.8088 -1.2281
15358TIP3    H267490   4.350   1.620   2.265  0.0485  0.1916  0.1864
15359TIP3   OH267491   4.427   1.147   0.403 -0.8563 -0.3930  0.1962
15359TIP3    H167492   4.495   1.105   0.455  0.6530  0.0403 -1.3330
15359TIP3    H267493   4.415   1.089   0.328  1.7472  1.9588 -2.3150
15360TIP3   OH267494   5.869   5.723  11.224 -0.3999 -0.1215 -0.1396
15360TIP3    H167495   5.844   5.815  11.224  0.4076  0.1154 -1.1058
15360TIP3    H267496   5.964   5.724  11.217 -0.2796 -1.0279  1.0370
15361TIP3   OH267497   5.317   6.300  12.517 -0.2733  0.3422  0.7086
15361TIP3    H167498   5.353   6.342  12.596  0.8519  1.6185 -0.4238
15361TIP3    H267499   5.392   6.256  12.478 -0.6319  0.4419 -0.1023
15362TIP3   OH267500   0.763   4.254   3.146 -0.1522  0.3493  0.6650
15362TIP3    H167501   0.825   4.305   3.198 -0.2206  0.9849  0.1376
15362TIP3    H267502   0.679   4.297   3.159 -0.2860  0.1386  0.5108
15363TIP3   OH267503   2.140   1.616  15.868  0.4626  0.0769  0.2574
15363TIP3    H167504   2.169   1.671  15.796 -1.3255  0.5621 -0.1458
15363TIP3    H267505   2.079   1.671  15.917  0.6632 -0.6739  1.3925
15364TIP3   OH267506   1.429   0.567   0.050 -0.5580  0.2261 -0.0636
15364TIP3    H167507   1.376   0.637   0.012 -0.0206 -0.1907 -1.6319
15364TIP3    H267508   1.481   0.534  -0.022 -1.2551 -2.2514  0.4763
15365TIP3   OH267509   4.627   1.763   4.379 -0.4253 -0.3271  0.1639
15365TIP3    H167510   4.676   1.790   4.456 -1.1485 -0.3926  0.6519
15365TIP3    H267511   4.601   1.845   4.337  1.1912 -0.2768 -0.8222
15366TIP3   OH267512   3.117   3.153  11.334 -0.4510  0.2538 -0.6628
15366TIP3    H167513   3.084   3.164  11.245 -1.5498 -1.4668 -0.5162
15366TIP3    H267514   3.038   3.140  11.387  0.1929  1.0208  0.5540
15367TIP3   OH267515   4.914   0.117  13.653 -0.0163  0.1438  0.3140
15367TIP3    H167516   4.882   0.067  13.729  0.6540 -0.0530  0.4750
15367TIP3    H267517   4.838   0.123  13.595 -0.0112 -1.4479  0.0992
15368TIP3   OH267518   5.939   2.102  13.806  0.0365 -0.2477  0.4125
15368TIP3    H167519   6.008   2.155  13.767  0.9792 -0.7878  1.2876
15368TIP3    H267520   5.936   2.129  13.898 -1.7016  0.5495  0.1576
15369TIP3   OH267521   1.959   0.826   0.492  0.1675  0.8202 -0.0661
15369TIP3    H167522   1.997   0.814   0.405  0.8678  0.7180  0.2490
15369TIP3    H267523   1.896   0.897   0.480 -0.1433  0.4354 -0.7742
15370TIP3   OH267524   5.371   0.471   6.255  0.1314 -0.4246  0.5282
15370TIP3    H167525   5.314   0.404   6.293 -0.1275 -0.4138  0.1726
15370TIP3    H267526   5.401   0.523   6.329 -1.6531  0.6038  0.5967
15371TIP3   OH267527   3.727   6.024   0.339  0.7651 -0.8987 -0.1280
15371TIP3    H167528   3.724   5.959   0.270  0.8659 -1.3039  0.2422
15371TIP3    H267529   3.737   6.108   0.294  0.4614 -1.1253 -0.6129
15372TIP3   OH267530   0.032   1.562  12.581 -0.0594 -0.0031  0.1170
15372TIP3    H167531  -0.046   1.585  12.531 -0.8063 -0.2490  1.1166
15372TIP3    H267532   0.058   1.476  12.547  1.1412  1.0394 -1.7614
15373TIP3   OH267533   5.001   6.078  17.225  0.2776  0.2224  0.3414
15373TIP3    H167534   5.084   6.111  17.257  1.1354 -0.7064 -0.8269
15373TIP3    H267535   4.971   6.017  17.293 -0.2423  1.6938  1.4763
15374TIP3   OH267536   4.471   6.309   5.344  0.0500  0.2908 -0.1369
15374TIP3    H167537   4.457   6.372   5.415  1.7002 -0.3088  0.7660
15374TIP3    H267538   4.421   6.232   5.371  1.0762 -0.1192  0.6746
15375TIP3   OH267539   6.341   4.729   5.649 -0.2455  0.1757  0.0150
15375TIP3    H167540   6.309   4.818   5.667 -2.3886 -0.7774  1.3118
15375TIP3    H267541   6.382   4.702   5.731  0.5536  0.0029 -0.4331
15376TIP3   OH267542   1.408   6.164  15.255  0.0010 -0.1308  0.1394
15376TIP3    H167543   1.407   6.208  15.170  0.7280  0.3828  0.3845
15376TIP3    H267544   1.334   6.201  15.302 -0.2546 -0.2331 -0.1831
15377TIP3   OH267545   1.848   0.956  16.331 -0.0300  0.4683 -0.1829
15377TIP3    H167546   1.851   0.885  16.268  1.2261 -1.1841  1.6303
15377TIP3    H267547   1.784   0.929  16.396  0.7992  0.7291  0.7830
15378TIP3   OH267548   3.385   1.568   4.327 -0.3723 -0.2234  0.5918
15378TIP3    H167549   3.435   1.634   4.377 -0.2563 -0.3056  0.5845
15378TIP3    H267550   3.444   1.541   4.257  0.0401 -1.2123  1.2966
15379TIP3   OH267551   0.341   4.294   1.193 -0.3932 -0.3389 -0.4359
15379TIP3    H167552   0.313   4.357   1.126 -1.1939 -0.4537 -0.2145
15379TIP3    H267553   0.322   4.208   1.154 -2.4641 -0.3998  0.5768
15380TIP3   OH267554   5.090   4.600  13.179  0.4307 -0.0419  0.5333
15380TIP3    H167555   5.148   4.642  13.116 -0.6273 -1.5989 -1.6250
15380TIP3    H267556   5.025   4.667  13.201  0.9334  0.5868  0.1218
15381TIP3   OH267557   3.014   1.865  16.672 -0.1644  0.0343 -0.6505
15381TIP3    H167558   3.052   1.807  16.737  0.0196  1.1279  0.2524
15381TIP3    H267559   3.089   1.908  16.631 -0.2987 -0.3127 -1.2746
15382TIP3   OH267560   4.810   2.409   1.286  0.5137  0.7582  0.7364
15382TIP3    H167561   4.842   2.320   1.272 -0.2720  0.6677 -0.6601
15382TIP3    H267562   4.717   2.398   1.306 -0.3057  1.3510 -2.2480
15383TIP3   OH267563   5.779   6.281   3.686  0.4155 -0.0739 -0.0855
15383TIP3    H167564   5.830   6.320   3.615  0.6341 -0.6619 -0.2564
15383TIP3    H267565   5.844   6.240   3.743  0.3027  0.9552  0.8268
15384TIP3   OH267566   5.381   0.353   4.431  0.3006  0.3604  0.0601
15384TIP3    H167567   5.461   0.301   4.422 -0.3599 -0.6734 -0.0645
15384TIP3    H267568   5.380   0.381   4.522 -0.5366 -1.9485  0.8336
15385TIP3   OH267569   2.912   3.102  16.297 -0.0489  0.1466 -0.4585
15385TIP3    H167570   3.004   3.074  16.292 -0.5516 -1.5743 -0.6119
15385TIP3    H267571   2.893   3.103  16.391 -0.6966 -2.4922 -0.5014
15386TIP3   OH267572   4.909   4.693  13.380  0.1576  0.5521  0.0289
15386TIP3    H167573   4.849   4.656  13.316  0.6826  0.3445 -0.3461
15386TIP3    H267574   4.853   4.741  13.441 -0.6697 -1.7121  1.1471
15387TIP3   OH267575   5.795   0.033  12.006 -0.2135  0.4570 -0.0977
15387TIP3    H167576   5.755   0.092  12.069  1.3207  3.3280 -1.6121
15387TIP3    H267577   5.724   0.008  11.947 -0.7166  1.6231 -0.0054
15388TIP3   OH267578   6.042   0.035   2.621 -0.5095  0.4242  0.0233
15388TIP3    H167579   6.091   0.103   2.575  1.4007 -0.2291  0.9709
15388TIP3    H267580   5.986  -0.004   2.554 -1.0471  2.3563 -0.7107
15389TIP3   OH267581   0.336   1.656  14.793  0.4964 -0.5290 -0.7124
15389TIP3    H167582   0.292   1.571  14.790 -0.3739 -0.1338  0.4828
15389TIP3    H267583   0.425   1.636  14.823  0.5475 -1.1026 -1.2269
15390TIP3   OH267584   4.639   5.003  13.420  0.2439  0.2541 -0.1087
15390TIP3    H167585   4.594   5.078  13.459 -1.1370 -1.8138  2.6376
15390TIP3    H267586   4.730   5.014  13.448 -0.3787 -0.2072  2.3864
15391TIP3   OH267587   0.533   5.428  10.829 -0.5102 -1.1118 -0.1320
15391TIP3    H167588   0.606   5.456  10.774 -1.8045  0.2794 -1.2475
15391TIP3    H267589   0.517   5.502  10.887 -1.6637 -0.9600 -0.6100
15392TIP3   OH267590   2.720   5.309   0.748  0.0205 -0.3171  0.0417
15392TIP3    H167591   2.735   5.230   0.801  2.1589 -0.1005 -0.1362
15392TIP3    H267592   2.626   5.322   0.750 -0.3178 -2.4827  0.6495
15393TIP3   OH267593   3.227   5.594   4.577  0.4921  0.4308 -0.0431
15393TIP3    H167594   3.231   5.677   4.624 -0.6098  0.1341  0.6204
15393TIP3    H267595   3.152   5.604   4.518  0.2313 -0.1489  0.1785
15394TIP3   OH267596   3.981   2.766  14.396  0.2385 -0.5069  0.2864
15394TIP3    H167597   3.995   2.827  14.324 -1.3425 -0.1805  0.2218
15394TIP3    H267598   3.886   2.752  14.398  0.3021 -0.9420  1.9551
15395TIP3   OH267599   2.959   1.773  16.172  0.4212 -0.4396 -0.1550
15395TIP3    H167600   3.045   1.800  16.203  0.5319 -1.2267  0.2521
15395TIP3    H267601   2.933   1.841  16.110  0.9553  0.2486  0.3712
15396TIP3   OH267602   5.250   1.539  12.315 -0.2493  0.1953 -0.1716
15396TIP3    H167603   5.184   1.608  12.323  0.7473  1.0036  2.1491
15396TIP3    H267604   5.328   1.584  12.284 -0.4493 -0.5739 -1.9299
15397TIP3   OH267605   1.808   0.345   3.443 -0.0684 -0.2068  0.3789
15397TIP3    H167606   1.861   0.421   3.468  1.6716 -1.0189 -0.6439
15397TIP3    H267607   1.813   0.287   3.519  1.0383 -0.5348  0.0652
15398TIP3   OH267608   4.423   0.133  13.678 -0.4111 -0.4474  0.5541
15398TIP3    H167609   4.513   0.105  13.697 -0.1495  0.3676  0.5512
15398TIP3    H267610   4.399   0.084  13.599 -0.6345 -2.0215  1.5486
15399TIP3   OH267611   1.866   5.577   0.028  0.0964 -0.3816 -0.0297
15399TIP3    H167612   1.821   5.493   0.025 -1.1596  0.3009 -1.5733
15399TIP3    H267613   1.913   5.576   0.111 -2.5632 -1.2587  1.5722
15400TIP3   OH267614   2.614   4.403  12.471 -0.2552 -0.1843 -0.4468
15400TIP3    H167615   2.538   4.351  12.448  0.2360 -0.4355 -1.5528
15400TIP3    H267616   2.688   4.343  12.464  0.2208  0.4384 -0.9208
15401TIP3   OH267617   0.084   0.122   5.177 -0.1141  0.7439 -0.0555
15401TIP3    H167618   0.144   0.177   5.227  1.0940  0.1113 -0.7586
15401TIP3    H267619   0.022   0.088   5.241  0.1916  1.5280  0.6655
15402TIP3   OH267620   0.075   4.043   0.442 -0.3654  0.7662 -0.1184
15402TIP3    H167621   0.071   3.957   0.485  1.6935  0.5498 -0.2620
15402TIP3    H267622   0.040   4.104   0.507 -0.7261 -0.0313  0.4571
15403TIP3   OH267623   4.339   2.678   1.321  0.4936 -0.0073  0.8579
15403TIP3    H167624   4.358   2.655   1.230  1.2702 -0.0710  1.0259
15403TIP3    H267625   4.379   2.765   1.333 -3.0348  1.9522  0.0112
15404TIP3   OH267626   2.062   3.383   4.811 -0.6258 -0.0584  0.1570
15404TIP3    H167627   1.971   3.408   4.822 -1.0730 -1.9545  1.2125
15404TIP3    H267628   2.063   3.333   4.729 -0.2162  1.2346 -0.6501
15405TIP3   OH267629   3.100   3.082  17.175 -0.4923  0.5850 -0.4995
15405TIP3    H167630   3.166   3.094  17.107 -0.3383  0.4858 -0.3671
15405TIP3    H267631   3.144   3.031  17.244 -1.2022 -0.9929 -1.1559
15406TIP3   OH267632   4.172   3.302   4.735  0.2573 -0.4630 -0.1932
15406TIP3    H167633   4.131   3.276   4.817  0.5870  1.3147  0.5832
15406TIP3    H267634   4.211   3.388   4.753  3.2751 -1.4690 -1.1997
15407TIP3   OH267635   6.058   2.208  14.752 -0.0624  0.2253  0.2368
15407TIP3    H167636   6.079   2.296  14.719  1.1117  0.8148  2.3311
15407TIP3    H267637   6.017   2.163  14.678  1.0516  1.9064 -1.4894
15408TIP3   OH267638   2.238   5.315  12.519  0.0870  0.1356  0.6011
15408TIP3    H167639   2.231   5.367  12.439 -0.7718 -0.3392  0.3518
15408TIP3    H267640   2.173   5.355  12.578 -1.7880 -1.6233 -0.1659
15409TIP3   OH267641   5.922   0.200  16.456 -0.0172  0.4091 -0.0181
15409TIP3    H167642   5.830   0.172  16.459 -0.1491  0.8147 -0.1834
15409TIP3    H267643   5.932   0.237  16.368 -0.1037  1.7485  0.5197
15410TIP3   OH267644   4.783   5.756   3.204  0.1514  0.3112 -0.0148
15410TIP3    H167645   4.766   5.684   3.266  1.8586 -0.8486 -0.8131
15410TIP3    H267646   4.823   5.825   3.258  0.5210 -0.2088  0.3932
15411TIP3   OH267647   5.069   2.679  12.348 -0.3135 -0.2426 -0.1652
15411TIP3    H167648   5.018   2.671  12.429 -0.5889 -0.3795 -0.3472
15411TIP3    H267649   5.149   2.629  12.365 -0.0620  0.2982  0.2607
15412TIP3   OH267650   2.456   0.997  12.984  0.5105  1.0152 -0.2365
15412TIP3    H167651   2.360   0.993  12.980  0.5481  0.7536 -1.4770
15412TIP3    H267652   2.477   1.089  12.971  0.4429  0.9173 -1.1240
15413TIP3   OH267653   0.938   3.544   3.032 -0.1406  0.4343  0.2572
15413TIP3    H167654   0.901   3.526   3.119 -0.2142 -3.5506 -0.3716
15413TIP3    H267655   1.030   3.517   3.039 -0.2101 -0.1775 -0.8885
15414TIP3   OH267656   3.188   0.650   3.960  0.1437 -0.4990  0.4776
15414TIP3    H167657   3.232   0.699   4.029  0.2778 -0.4840  0.3815
15414TIP3    H267658   3.095   0.671   3.971  0.1442 -0.6540  0.7770
15415TIP3   OH267659   1.740   3.501  11.115  0.5461  0.5013 -0.1587
15415TIP3    H167660   1.807   3.510  11.047  0.5314 -1.1789 -0.4234
15415TIP3    H267661   1.661   3.539  11.075  1.3528  2.7803  0.2710
15416TIP3   OH267662   4.589   3.791  14.631  0.5581  0.2908 -0.2114
15416TIP3    H167663   4.675   3.813  14.597  0.6674  0.8437  0.4177
15416TIP3    H267664   4.605   3.718  14.691  0.3606 -0.7102 -1.3094
15417TIP3   OH267665   3.984   5.750   0.628  0.7143  0.1404 -0.2017
15417TIP3    H167666   3.942   5.731   0.713  1.5825 -0.2990  0.1400
15417TIP3    H267667   3.953   5.680   0.570  0.7940 -0.0538 -0.0122
15418TIP3   OH267668   3.738   6.628   1.122  0.3692  1.1147  0.2230
15418TIP3    H167669   3.653   6.614   1.080  0.0559 -0.3362  1.2565
15418TIP3    H267670   3.765   6.715   1.094 -0.9946  1.1973 -0.9258
15419TIP3   OH267671   3.253   1.246   1.810  0.0605 -0.4307  0.2782
15419TIP3    H167672   3.236   1.190   1.886 -0.9266  1.1528  1.2847
15419TIP3    H267673   3.291   1.326   1.846  0.1868  0.1054 -0.9630
15420TIP3   OH267674   2.804   6.246  13.118 -0.3660  0.4324 -0.5370
15420TIP3    H167675   2.789   6.164  13.071 -0.5831  0.6758 -0.8938
15420TIP3    H267676   2.763   6.233  13.204  0.3198 -0.1352 -0.2818
15421TIP3   OH267677   0.065   1.201  11.785 -0.2150  0.1915 -0.4426
15421TIP3    H167678   0.130   1.143  11.745  1.0214  0.0950  1.5733
15421TIP3    H267679   0.065   1.279  11.729  0.0725 -0.6479 -1.6492
15422TIP3   OH267680   1.508   3.586   4.919 -0.0262  0.1048 -0.0362
15422TIP3    H167681   1.518   3.610   4.827 -2.5062 -0.3763 -0.5067
15422TIP3    H267682   1.501   3.491   4.919  0.2012  0.0850  0.6662
15423TIP3   OH267683   2.343   5.914   0.626 -0.3564  0.0522 -0.1682
15423TIP3    H167684   2.305   5.963   0.699 -0.9708 -1.1512  0.3653
15423TIP3    H267685   2.376   5.980   0.566  2.0126  1.1382  2.1205
15424TIP3   OH267686   1.426   0.631  14.879  0.1915 -0.0723 -0.9352
15424TIP3    H167687   1.435   0.726  14.874 -2.0653  0.1986 -0.8563
15424TIP3    H267688   1.449   0.600  14.792  0.0316  0.6419 -1.2365
15425TIP3   OH267689   2.136   2.218  11.904 -0.2951 -0.0326  0.3100
15425TIP3    H167690   2.201   2.147  11.913  0.0845  0.4900  2.1922
15425TIP3    H267691   2.188   2.298  11.912 -1.0693  0.3967  1.2289
15426TIP3   OH267692   1.768   4.352  16.905 -0.1441 -0.0995 -0.1330
15426TIP3    H167693   1.738   4.262  16.901  2.1185 -0.9065 -2.3539
15426TIP3    H267694   1.829   4.354  16.979  0.1699 -0.5765 -0.3681
15427TIP3   OH267695   1.420   1.358   6.046  0.3230 -0.1506 -0.0757
15427TIP3    H167696   1.437   1.416   5.972  1.6019 -1.5955 -0.9767
15427TIP3    H267697   1.457   1.404   6.122  1.1188  0.3059 -0.7262
15428TIP3   OH267698   0.598   4.356   0.934  0.4319 -0.0152  0.2492
15428TIP3    H167699   0.563   4.269   0.953  0.3870 -0.1720 -0.5354
15428TIP3    H267700   0.603   4.360   0.839  1.9082  0.2576  0.3042
15429TIP3   OH267701   2.619   1.604   2.184 -0.2502 -0.2652 -0.1000
15429TIP3    H167702   2.673   1.584   2.108 -0.0319  0.2339 -0.0835
15429TIP3    H267703   2.565   1.526   2.198 -0.2638 -0.3700 -0.7435
15430TIP3   OH267704   3.061   0.687  16.106  0.2200  0.6411 -0.2754
15430TIP3    H167705   3.048   0.632  16.028  1.2317  0.7929 -0.5582
15430TIP3    H267706   3.067   0.624  16.178 -0.3949  0.4810 -0.3601
15431TIP3   OH267707   4.257   3.890   0.290  0.2307  0.5488 -0.4405
15431TIP3    H167708   4.281   3.861   0.202  1.5236 -0.0575  0.0918
15431TIP3    H267709   4.272   3.985   0.289 -0.8925  0.7303 -1.2132
15432TIP3   OH267710   0.833   3.305  15.009  0.2052 -0.1174  0.1727
15432TIP3    H167711   0.907   3.295  14.948  0.3562 -0.4357  0.4056
15432TIP3    H267712   0.756   3.287  14.955  0.4447 -2.6122  0.5360
15433TIP3   OH267713   2.535   4.671   2.659  0.0799 -0.3406 -0.1971
15433TIP3    H167714   2.628   4.673   2.683  0.3520 -0.2168 -1.2141
15433TIP3    H267715   2.489   4.697   2.739  0.8981 -0.7528  0.4232
15434TIP3   OH267716   6.545   1.424   5.338 -0.2614  0.0972 -0.1162
15434TIP3    H167717   6.528   1.330   5.346  0.5429 -0.2491 -1.9887
15434TIP3    H267718   6.466   1.459   5.298  0.0561 -0.0705 -0.9074
15435TIP3   OH267719   6.426   4.548  13.043  0.0167  1.0702 -0.0232
15435TIP3    H167720   6.515   4.513  13.037 -0.3303 -0.2213  1.6686
15435TIP3    H267721   6.435   4.623  13.103 -0.5170 -1.3709  3.4509
15436TIP3   OH267722   5.845   5.613   1.557  0.3167 -0.1539 -0.7550
15436TIP3    H167723   5.760   5.640   1.523  0.2533 -0.1963 -0.6325
15436TIP3    H267724   5.908   5.661   1.504  0.1718  1.8634  0.7802
15437TIP3   OH267725   5.347   1.750   2.394  0.4503  0.4732  0.1249
15437TIP3    H167726   5.394   1.788   2.321 -0.5280  1.5141  0.0110
15437TIP3    H267727   5.372   1.803   2.470 -0.0320  0.6343  0.1768
15438TIP3   OH267728   5.913   6.052  13.809  0.4867  0.1351  0.0543
15438TIP3    H167729   5.962   6.098  13.878  0.1237 -0.2182  0.5625
15438TIP3    H267730   5.980   6.023  13.748  1.2555 -2.2654  1.8542
15439TIP3   OH267731   6.005   4.491  16.309 -0.2926 -0.2761 -0.2356
15439TIP3    H167732   5.992   4.438  16.230  0.0963  1.7305 -1.7342
15439TIP3    H267733   5.951   4.569  16.294 -1.0076 -0.2858  1.9686
15440TIP3   OH267734   6.188   4.603  10.953  0.0079 -0.0222  0.2876
15440TIP3    H167735   6.199   4.678  11.010 -1.8587 -0.0010  0.6724
15440TIP3    H267736   6.144   4.537  11.007  2.9817 -2.0795  0.4831
15441TIP3   OH267737   4.748   5.497   5.458 -0.2580 -0.1087  0.1981
15441TIP3    H167738   4.699   5.497   5.376  0.7247 -1.3991 -0.4236
15441TIP3    H267739   4.814   5.565   5.447 -0.0886 -0.3222 -0.1109
15442TIP3   OH267740   2.691   3.753  17.021 -0.2223 -0.7347  0.5386
15442TIP3    H167741   2.727   3.697  16.952 -0.1992 -0.9564  0.7260
15442TIP3    H267742   2.599   3.765  16.995 -0.2408 -0.9014  0.5200
15443TIP3   OH267743   1.266   6.393  13.542  0.7347  0.5315 -0.2570
15443TIP3    H167744   1.186   6.403  13.491 -0.5307  0.2176  1.6029
15443TIP3    H267745   1.249   6.439  13.624  2.5551  0.6377  0.1194
15444TIP3   OH267746   5.310   5.693  14.694 -0.6664  0.3345 -0.5771
15444TIP3    H167747   5.234   5.689  14.752  0.3629  0.5772  0.8321
15444TIP3    H267748   5.307   5.780  14.655 -0.2649  0.9498  0.7068
15445TIP3   OH267749   1.171   2.297  16.012 -0.0859  0.1231  0.0919
15445TIP3    H167750   1.214   2.262  15.934  0.3006  1.5859 -0.3807
15445TIP3    H267751   1.236   2.357  16.050 -0.0682 -0.9329  1.8466
15446TIP3   OH267752   1.619   4.607   5.235 -0.6633  0.2100  0.2938
15446TIP3    H167753   1.531   4.639   5.213  0.2432  1.4200 -1.9230
15446TIP3    H267754   1.657   4.675   5.290 -0.6502  0.3387  0.1265
15447TIP3   OH267755   2.741   3.462  16.053 -0.3228 -0.0543 -0.4015
15447TIP3    H167756   2.680   3.414  15.999 -1.3029  0.0430  0.5723
15447TIP3    H267757   2.707   3.552  16.054  0.1355  0.1224 -0.2828
15448TIP3   OH267758   6.468   0.610  10.696  0.5736 -0.5537 -0.5779
15448TIP3    H167759   6.391   0.555  10.706 -0.4612  0.7344 -1.1631
15448TIP3    H267760   6.540   0.548  10.683 -0.1733 -1.8163  0.8903
15449TIP3   OH267761   0.985   3.385  12.114  0.4988  0.0740  1.1909
15449TIP3    H167762   1.057   3.353  12.168  2.3008  0.3462 -0.9096
15449TIP3    H267763   0.943   3.305  12.081  3.6225 -0.4118 -2.2687
15450TIP3   OH267764   0.996   0.345   0.727 -0.2717 -0.5302 -0.3748
15450TIP3    H167765   1.080   0.349   0.682 -0.2706 -2.8566 -0.6884
15450TIP3    H267766   0.971   0.253   0.725 -2.2210 -0.1078  0.8631
15451TIP3   OH267767   0.399   0.045  14.717 -0.1375 -0.8746  0.3393
15451TIP3    H167768   0.471   0.034  14.655 -0.9584 -1.1786 -0.5824
15451TIP3    H267769   0.438   0.091  14.791  0.8072 -0.2438 -0.5233
15452TIP3   OH267770   4.826   4.356  13.778 -0.3289  0.1788 -0.5124
15452TIP3    H167771   4.839   4.349  13.683  2.8145 -0.0095 -0.1933
15452TIP3    H267772   4.897   4.414  13.807 -1.8681  1.1306  1.6401
15453TIP3   OH267773   1.340   0.542   0.998  0.6479  0.1701 -0.3455
15453TIP3    H167774   1.338   0.484   1.074  1.3523 -0.5064 -0.8265
15453TIP3    H267775   1.249   0.569   0.986  0.5214  0.2582  0.7093
15454TIP3   OH267776   4.523   0.864   3.928  0.4537  0.0162  0.4480
15454TIP3    H167777   4.606   0.854   3.882 -1.1248 -1.4427 -2.3335
15454TIP3    H267778   4.502   0.776   3.960  0.2425  0.4954  1.6919
15455TIP3   OH267779   6.005   2.328   4.509  0.6621 -0.5825  0.2839
15455TIP3    H167780   6.100   2.335   4.516  0.9185 -0.3759 -2.2967
15455TIP3    H267781   5.987   2.234   4.513  1.6506 -1.1896 -4.0568
15456TIP3   OH267782   4.394   5.504   4.149 -0.1572 -0.2331 -0.5224
15456TIP3    H167783   4.408   5.598   4.160  0.0393 -0.3375  0.1447
15456TIP3    H267784   4.387   5.470   4.238 -1.9196 -0.6044 -0.7777
15457TIP3   OH267785   2.678   0.395   1.500  0.5404  0.1383 -0.3393
15457TIP3    H167786   2.699   0.347   1.581 -0.2365 -1.7978 -1.2377
15457TIP3    H267787   2.585   0.378   1.486  0.8737 -0.3501 -2.1360
15458TIP3   OH267788   5.182   6.349   4.987 -0.3577 -0.3813  0.0714
15458TIP3    H167789   5.221   6.346   4.899  2.0176 -0.0782  1.0205
15458TIP3    H267790   5.156   6.440   4.999  1.8523  0.2485  0.6115
15459TIP3   OH267791   0.237   6.386  15.523  0.2788  0.4491  0.5673
15459TIP3    H167792   0.192   6.348  15.599  0.8084  0.6457  0.9790
15459TIP3    H267793   0.254   6.477  15.548 -0.1366  0.7051 -0.0482
15460TIP3   OH267794   5.458   2.999   0.338 -0.0688 -0.3272  0.6362
15460TIP3    H167795   5.385   2.972   0.394  2.1168 -2.2341  2.8595
15460TIP3    H267796   5.505   3.064   0.390 -0.6387  1.6300 -1.1800
15461TIP3   OH267797   1.361   4.442   3.586  0.7874  0.4342  0.6644
15461TIP3    H167798   1.393   4.352   3.577 -0.2713  0.2467 -2.5684
15461TIP3    H267799   1.296   4.436   3.656 -0.4431 -1.7952 -0.5145
15462TIP3   OH267800   0.202   6.442   6.226 -0.2438 -0.0950  0.3123
15462TIP3    H167801   0.205   6.367   6.286 -0.6423 -0.1335  0.2842
15462TIP3    H267802   0.114   6.478   6.237 -0.7295 -0.7879 -1.0945
15463TIP3   OH267803   0.797   4.662   1.505  0.4245 -0.0931 -0.3166
15463TIP3    H167804   0.755   4.742   1.536 -0.4509 -1.1344  1.2983
15463TIP3    H267805   0.746   4.637   1.428 -0.9500 -0.4407  0.6569
15464TIP3   OH267806   4.946   1.949  14.735 -0.7883 -0.1661  0.2989
15464TIP3    H167807   4.871   2.007  14.722  0.6401  1.6402 -0.2776
15464TIP3    H267808   4.987   1.943  14.649  0.1031 -0.5766  0.7425
15465TIP3   OH267809   4.927   3.627   4.766 -0.2521 -0.3533  0.0774
15465TIP3    H167810   4.992   3.568   4.804 -0.4086 -1.1380 -0.8526
15465TIP3    H267811   4.944   3.625   4.672 -1.1947 -0.0488 -0.1131
15466TIP3   OH267812   2.304   2.602  15.200 -0.5365  0.3786 -0.7128
15466TIP3    H167813   2.210   2.594  15.214 -1.1099  1.4930 -3.3671
15466TIP3    H267814   2.325   2.692  15.224 -0.0817  0.0484  0.1444
15467TIP3   OH267815   1.006   3.468  13.460  0.3519 -0.0409 -0.2945
15467TIP3    H167816   1.055   3.504  13.534  0.5400 -3.3378  1.3684
15467TIP3    H267817   0.929   3.427  13.500 -0.0155 -1.1252 -2.0259
15468TIP3   OH267818   5.388   4.273   5.773 -0.1174  0.3678 -0.0804
15468TIP3    H167819   5.300   4.259   5.808 -1.0188  1.4324 -1.7679
15468TIP3    H267820   5.425   4.342   5.827  0.8187 -1.9098  2.3988
15469TIP3   OH267821   4.684   6.246  12.875  0.1149  0.6402 -0.5710
15469TIP3    H167822   4.638   6.172  12.835  0.3575  0.2514 -0.1466
15469TIP3    H267823   4.675   6.231  12.969  2.2440 -0.2091 -0.4328
15470TIP3   OH267824   0.646   2.738  15.952 -0.2714  0.0129  0.4205
15470TIP3    H167825   0.587   2.725  15.878 -0.0138  1.1475 -0.0093
15470TIP3    H267826   0.631   2.829  15.979  0.7282  0.0798  0.7888
15471TIP3   OH267827   6.073   2.723  16.068  0.1508  0.8025 -0.8914
15471TIP3    H167828   6.110   2.794  16.121 -1.9696  1.2281  0.1768
15471TIP3    H267829   6.125   2.646  16.091  1.5639  1.7047 -0.9490
15472TIP3   OH267830   5.704   3.762  14.321 -0.0620  0.6378  0.6213
15472TIP3    H167831   5.719   3.693  14.385 -0.1673  1.5799  1.6749
15472TIP3    H267832   5.641   3.724  14.260  1.9049 -1.1954 -0.4255
15473TIP3   OH267833   5.984   5.742   3.571 -0.0469  0.3317  0.0114
15473TIP3    H167834   5.950   5.796   3.643  0.7457 -0.1964  0.8049
15473TIP3    H267835   5.914   5.680   3.553 -0.5121  0.8850 -0.1229
15474TIP3   OH267836   0.441   3.223  16.318  0.0655 -0.2532 -0.3188
15474TIP3    H167837   0.482   3.230  16.404 -1.2959 -0.2999  0.3684
15474TIP3    H267838   0.468   3.302  16.272  0.9645 -0.3201  0.0780
15475TIP3   OH267839   5.687   1.880   0.801 -0.2377  0.9188 -0.7187
15475TIP3    H167840   5.624   1.925   0.746 -0.5919  2.4709  0.8661
15475TIP3    H267841   5.659   1.899   0.891  0.5723 -1.1342  0.0378
15476TIP3   OH267842   1.975   5.770  12.194 -0.6775  0.4107 -0.3134
15476TIP3    H167843   2.022   5.848  12.163  0.3672  0.1156  0.5089
15476TIP3    H267844   1.906   5.805  12.251 -0.1521  0.7262  0.1276
15477TIP3   OH267845   2.573   4.843   0.179  0.0464 -0.4397 -0.4260
15477TIP3    H167846   2.580   4.820   0.086  1.4758  0.5119 -0.5984
15477TIP3    H267847   2.525   4.926   0.179 -0.1624 -0.5603 -0.2906
15478TIP3   OH267848   2.386   5.803   2.583  0.3866 -0.0829  0.2858
15478TIP3    H167849   2.468   5.820   2.628  0.8374 -0.5186 -0.3512
15478TIP3    H267850   2.334   5.882   2.597  0.2335 -0.4650  2.1469
15479TIP3   OH267851   2.909   2.188  13.781 -0.4791  0.0205 -0.3729
15479TIP3    H167852   2.870   2.161  13.698 -0.2135  0.6848 -0.7223
15479TIP3    H267853   2.857   2.263  13.809  0.0802  0.4577 -0.4785
15480TIP3   OH267854   5.516   3.621   0.959 -0.0101  0.0199  0.2781
15480TIP3    H167855   5.590   3.675   0.986  0.7836 -0.9900  0.1742
15480TIP3    H267856   5.551   3.565   0.890 -1.2331  0.4613 -0.7338
15481TIP3   OH267857   0.241   0.697   1.110  0.3390 -0.1616  0.3367
15481TIP3    H167858   0.255   0.668   1.020 -0.6996  0.1979  0.0421
15481TIP3    H267859   0.313   0.658   1.159  0.7222 -0.6539 -0.5845
15482TIP3   OH267860   0.880   6.656  13.010  0.5059 -0.0076 -0.4790
15482TIP3    H167861   0.922   6.573  12.987  0.6698 -0.3455  0.9245
15482TIP3    H267862   0.892   6.663  13.105 -0.4189  1.1167 -0.4237
15483TIP3   OH267863   2.617   4.566   5.869 -0.0270 -0.3903  0.1761
15483TIP3    H167864   2.678   4.623   5.822 -0.4401  0.6644  0.8670
15483TIP3    H267865   2.566   4.523   5.801  2.4590 -2.5019 -0.5212
15484TIP3   OH267866   6.095   0.306  16.662  0.3650  0.0630  0.3787
15484TIP3    H167867   6.041   0.274  16.589  1.8418 -0.2026 -0.6439
15484TIP3    H267868   6.185   0.287  16.635  0.9101 -1.1513  2.8306
15485TIP3   OH267869   6.220   2.689   6.425 -0.1502  0.5946 -0.2321
15485TIP3    H167870   6.254   2.624   6.486  1.4351  2.2569  0.7119
15485TIP3    H267871   6.178   2.755   6.480 -1.7956  0.4052 -1.1839
15486TIP3   OH267872   3.096   5.847  11.085  0.1184  0.4460  0.6448
15486TIP3    H167873   3.096   5.809  10.998  1.4889  0.5333  0.5812
15486TIP3    H267874   3.004   5.865  11.104 -0.1688  0.6536 -0.8692
15487TIP3   OH267875   0.893   0.045  14.713  0.2275  0.1696  0.4151
15487TIP3    H167876   0.919   0.049  14.621  0.1886  0.9990  0.4340
15487TIP3    H267877   0.953   0.104  14.758  0.0399  0.0155  0.8751
15488TIP3   OH267878   3.619   4.422  10.283  0.2498 -0.1115  0.4281
15488TIP3    H167879   3.652   4.507  10.312  0.1214  0.6282 -1.3972
15488TIP3    H267880   3.524   4.429  10.292  0.2706 -0.2628  0.7697
15489TIP3   OH267881   0.844   3.873  17.286 -0.4560 -0.6602  0.1947
15489TIP3    H167882   0.889   3.957  17.291  0.0220 -0.9724  1.4977
15489TIP3    H267883   0.877   3.833  17.205 -0.9485  0.5303 -0.6153
15490TIP3   OH267884   2.981   4.998   5.507 -0.1136  0.5051  0.1345
15490TIP3    H167885   2.957   4.998   5.414  1.0935  0.6413 -0.1926
15490TIP3    H267886   3.036   4.920   5.518 -1.0950 -0.1066  0.9878
15491TIP3   OH267887   3.922   5.524  13.055 -0.1218  0.1151 -0.1280
15491TIP3    H167888   3.995   5.483  13.102  0.6981 -0.1884 -1.5780
15491TIP3    H267889   3.851   5.528  13.118 -0.0498 -2.9961  0.2806
15492TIP3   OH267890   1.821   2.526   2.189 -0.0112  0.5287  0.4962
15492TIP3    H167891   1.730   2.553   2.179 -0.0371  0.1741 -0.2803
15492TIP3    H267892   1.867   2.568   2.116  0.3395  0.2429  0.5495
15493TIP3   OH267893   5.262   2.323  13.832 -0.2535  0.2426  0.2226
15493TIP3    H167894   5.313   2.363  13.762  1.3527 -0.3438  0.9832
15493TIP3    H267895   5.323   2.319  13.906 -0.6893 -2.4831  0.5311
15494TIP3   OH267896   5.725   2.449  11.299 -0.2652  0.6472  0.0604
15494TIP3    H167897   5.790   2.386  11.268 -0.8381 -0.4816  1.0636
15494TIP3    H267898   5.715   2.511  11.227  0.6244 -0.1670 -0.7910
15495TIP3   OH267899   1.581   5.530  16.101  0.1644 -0.0830 -0.2927
15495TIP3    H167900   1.540   5.579  16.030  1.6612 -1.2046 -2.0357
15495TIP3    H267901   1.590   5.593  16.172 -3.3931  0.5094 -0.1780
15496TIP3   OH267902   4.412   3.025   3.070  0.2802 -0.5516  0.3286
15496TIP3    H167903   4.356   2.950   3.091  0.4342 -0.3286  1.6221
15496TIP3    H267904   4.412   3.078   3.150 -0.8416  1.4922 -0.9215
15497TIP3   OH267905   4.388   1.564  13.311  0.2583 -0.2569 -0.6301
15497TIP3    H167906   4.412   1.644  13.358 -1.8345  0.8515 -1.3242
15497TIP3    H267907   4.435   1.494  13.356  0.3631  1.0791  1.4503
15498TIP3   OH267908   0.744   0.405  13.962  0.6511  0.6895  0.4897
15498TIP3    H167909   0.733   0.449  13.878 -1.3699  0.5881  0.6444
15498TIP3    H267910   0.699   0.320  13.951 -0.5333  1.0830  1.9288
15499TIP3   OH267911   5.462   3.515  15.796  0.0496 -0.5408 -0.0298
15499TIP3    H167912   5.552   3.545  15.785  0.6057 -0.9932  2.5110
15499TIP3    H267913   5.451   3.509  15.891 -3.2545  1.1738 -0.1688
15500TIP3   OH267914   3.681   2.566  16.160  0.0615  0.0176  0.6578
15500TIP3    H167915   3.700   2.488  16.108  1.0478  0.2493  0.6433
15500TIP3    H267916   3.652   2.631  16.096 -5.3456 -1.5172  1.0152
15501TIP3   OH267917   1.332   1.410   5.028 -0.1023  0.1025 -0.3299
15501TIP3    H167918   1.299   1.500   5.035  1.6314  0.7696 -0.2115
15501TIP3    H267919   1.394   1.401   5.100 -0.3012 -1.2355 -0.2954
15502TIP3   OH267920   3.719   1.536  11.003  0.3016  0.2284  0.6135
15502TIP3    H167921   3.663   1.611  10.984 -0.4022  0.3773  3.0010
15502TIP3    H267922   3.662   1.460  10.995  1.2407 -0.3092 -2.8273
15503TIP3   OH267923   1.965   0.906  14.288  0.4057  0.5665 -0.2822
15503TIP3    H167924   2.026   0.841  14.322 -0.6524  0.1448  0.8949
15503TIP3    H267925   1.953   0.969  14.359 -0.1040  0.9402 -0.6841
15504TIP3   OH267926   4.010   5.179  12.455  0.4807 -0.3262  0.1701
15504TIP3    H167927   3.998   5.256  12.398  0.7632  0.6069  1.3242
15504TIP3    H267928   4.011   5.215  12.543 -0.7280 -1.8289  0.8445
15505TIP3   OH267929   6.372   1.022   5.935  0.0209  0.0857  0.1359
15505TIP3    H167930   6.422   0.986   6.009  0.7721 -1.0818 -0.8991
15505TIP3    H267931   6.405   1.111   5.925  1.4306 -0.4186 -0.0596
15506TIP3   OH267932   2.558   1.728  14.600  0.1351 -0.4597  0.0209
15506TIP3    H167933   2.622   1.758  14.536  1.3076 -0.2333  1.2640
15506TIP3    H267934   2.514   1.808  14.629 -0.6309 -0.5956 -0.6926
15507TIP3   OH267935   2.917   3.649  15.070 -0.1390  0.3134  0.8307
15507TIP3    H167936   2.938   3.560  15.097 -0.6882 -0.2182 -0.3877
15507TIP3    H267937   2.942   3.652  14.977  1.5328  1.9913  1.2800
15508TIP3   OH267938   3.697   0.178  14.781 -0.0881 -0.1766  0.0341
15508TIP3    H167939   3.716   0.104  14.838  0.2668  0.0308  0.1915
15508TIP3    H267940   3.646   0.238  14.836  1.8105  0.8796  0.7766
15509TIP3   OH267941   2.986   0.297  14.721 -0.1687 -0.1631  0.0762
15509TIP3    H167942   2.893   0.319  14.731  0.1766  0.9865  0.9926
15509TIP3    H267943   3.005   0.238  14.794 -0.1335 -0.2254  0.0156
15510TIP3   OH267944   5.753   1.467   5.358  0.4028  0.3294  0.2943
15510TIP3    H167945   5.702   1.387   5.356  0.1205  0.5151 -0.5133
15510TIP3    H267946   5.718   1.516   5.432  0.8137 -0.4359  1.0083
15511TIP3   OH267947   5.589   6.305   1.501 -0.4985 -0.3340 -0.2760
15511TIP3    H167948   5.642   6.375   1.538 -2.1544  0.7678  0.1128
15511TIP3    H267949   5.583   6.239   1.570 -0.8685  0.2265  0.2353
15512TIP3   OH267950   5.289   5.499  13.753  0.6577 -0.2110 -0.3199
15512TIP3    H167951   5.248   5.424  13.709  0.2397  1.0948 -2.3001
15512TIP3    H267952   5.372   5.512  13.706  0.6689  0.6379 -0.0799
15513TIP3   OH267953   0.772   3.174   1.624  0.1940 -0.5713  0.1658
15513TIP3    H167954   0.778   3.103   1.688  0.2989 -1.6202 -0.9731
15513TIP3    H267955   0.841   3.236   1.650 -1.0171  0.0279  2.2050
15514TIP3   OH267956   0.360   0.864  16.549  0.4735  0.6503  0.2969
15514TIP3    H167957   0.287   0.888  16.493  0.2320  0.8951  0.7067
15514TIP3    H267958   0.426   0.932  16.534  0.1992  1.0144  0.6906
15515TIP3   OH267959   4.059   6.213   1.351  0.4415  0.9513  0.2307
15515TIP3    H167960   4.002   6.212   1.274 -0.1879 -1.5948  0.6337
15515TIP3    H267961   3.999   6.209   1.425  1.0872  1.6867  0.8075
15516TIP3   OH267962   2.271   3.571  16.466 -0.2880  0.0365  0.0871
15516TIP3    H167963   2.317   3.551  16.384 -0.5843 -1.2143  0.2083
15516TIP3    H267964   2.263   3.487  16.510 -1.4467  0.4625  0.7258
15517TIP3   OH267965   4.526   5.683   4.662  0.1457  0.2434  0.2998
15517TIP3    H167966   4.593   5.749   4.679 -0.1514  0.9647 -1.2339
15517TIP3    H267967   4.448   5.733   4.637 -0.5598 -0.6367  0.6761
15518TIP3   OH267968   1.381   4.995  13.676  0.0422 -0.1081  0.3549
15518TIP3    H167969   1.415   5.038  13.597 -2.6428 -0.0400 -0.8770
15518TIP3    H267970   1.365   5.066  13.737  0.5824  0.0287  0.3421
15519TIP3   OH267971   3.988   6.443   0.739 -0.5325 -0.5118 -0.2819
15519TIP3    H167972   3.980   6.368   0.681  0.1245 -0.8924  0.1067
15519TIP3    H267973   4.044   6.412   0.810 -0.3173  0.3275 -0.0800
15520TIP3   OH267974   4.608   0.656  15.305 -0.2110  0.0388  0.2253
15520TIP3    H167975   4.628   0.745  15.334  0.4384 -0.1450  0.3559
15520TIP3    H267976   4.622   0.658  15.211 -1.2261  0.3419  0.0670
15521TIP3   OH267977   1.663   1.856  15.590  0.0133 -0.4258 -0.1249
15521TIP3    H167978   1.618   1.849  15.674 -0.5264  0.7521 -0.2940
15521TIP3    H267979   1.753   1.879  15.612 -0.7173  2.6023  0.1245
15522TIP3   OH267980   6.635   0.003  13.162  0.2535  0.0878 -0.2687
15522TIP3    H167981   6.588   0.064  13.219 -2.8851 -0.5491 -1.8967
15522TIP3    H267982   6.707   0.053  13.126 -0.6176  2.0019  0.5333
15523TIP3   OH267983   3.221   5.939   4.548 -0.0466  0.1567  0.0100
15523TIP3    H167984   3.195   5.884   4.622  1.6734  0.1153  0.6133
15523TIP3    H267985   3.174   6.021   4.562  0.6166  0.3232  1.4454
15524TIP3   OH267986   3.395   1.183  15.341  0.5271 -0.3167 -0.2787
15524TIP3    H167987   3.332   1.170  15.412  0.6669  0.3171 -0.0315
15524TIP3    H267988   3.390   1.103  15.289 -0.3588 -0.3353 -0.1700
15525TIP3   OH267989   4.747   4.104  12.997  1.2810 -0.5095 -0.0857
15525TIP3    H167990   4.681   4.071  13.059 -1.2520  0.3822 -2.1287
15525TIP3    H267991   4.749   4.039  12.927  0.2149  0.9373 -1.5332
15526TIP3   OH267992   0.287   2.544  13.430 -0.3277 -0.3995 -0.3614
15526TIP3    H167993   0.349   2.612  13.404  0.6824 -1.0692  0.2354
15526TIP3    H267994   0.339   2.482  13.482 -1.7560 -0.3498  1.2086
15527TIP3   OH267995   3.500   3.524  12.987 -0.1824  0.6391  0.0478
15527TIP3    H167996   3.558   3.577  13.041  0.7819  0.7467 -1.0645
15527TIP3    H267997   3.537   3.529  12.899 -1.7211  0.4751 -0.6397
15528TIP3   OH267998   1.142   3.723   5.932  0.4446  0.2121  0.3006
15528TIP3    H167999   1.136   3.628   5.920 -0.8653 -0.0184  2.2698
15528TIP3    H268000   1.053   3.755   5.918  0.6046  0.9562  0.9423
15529TIP3   OH268001   2.472   5.712   4.347 -0.4292 -0.0657  0.0577
15529TIP3    H168002   2.538   5.780   4.356  1.7330 -2.0218 -0.0366
15529TIP3    H268003   2.481   5.681   4.257  0.7651 -2.4144  0.8965
15530TIP3   OH268004   0.584   6.683  11.365  0.6246 -0.3212  0.0013
15530TIP3    H168005   0.658   6.742  11.360  2.2175 -1.9456  2.3448
15530TIP3    H268006   0.608   6.608  11.311  0.5064 -0.6641  0.4151
15531TIP3   OH268007   2.027   0.043   2.279  0.1815  0.1200 -1.2384
15531TIP3    H168008   2.069  -0.031   2.237 -0.1739 -0.2557 -0.9367
15531TIP3    H268009   2.076   0.119   2.248  0.4546 -0.2248 -1.6626
15532TIP3   OH268010   2.304   2.707  12.739 -0.5751 -0.0566 -0.0639
15532TIP3    H168011   2.272   2.621  12.709  0.1827 -0.7127  0.9623
15532TIP3    H268012   2.338   2.748  12.660 -2.5079  0.0359 -0.9138
15533TIP3   OH268013   3.941   2.860   3.333  0.8541  0.2555 -0.1271
15533TIP3    H168014   4.001   2.792   3.363  1.6534  0.5010 -1.1140
15533TIP3    H268015   3.986   2.942   3.351  1.0619  0.4291 -1.3241
15534TIP3   OH268016   0.067   6.025   5.916 -0.1118  0.0531  0.1716
15534TIP3    H168017  -0.022   5.990   5.910 -1.5637  3.0213  2.0491
15534TIP3    H268018   0.081   6.039   6.010  1.9690  0.5746 -0.1710
15535TIP3   OH268019   3.656   2.481  12.602 -0.4773 -0.1496  0.0601
15535TIP3    H168020   3.712   2.514  12.672 -1.5874 -1.0805  1.4432
15535TIP3    H268021   3.577   2.533  12.607 -0.6643 -0.3919 -0.3313
15536TIP3   OH268022   5.636   6.622   4.281 -0.0137  0.2325  0.1388
15536TIP3    H168023   5.624   6.648   4.372  2.3103 -0.8448  0.8188
15536TIP3    H268024   5.657   6.529   4.284  0.3131  0.2101 -1.4629
15537TIP3   OH268025   5.580   3.422  14.730  0.2734  0.1870  0.1472
15537TIP3    H168026   5.585   3.440  14.637  1.3560  1.0791  0.3558
15537TIP3    H268027   5.589   3.508  14.772 -0.5025 -0.1621  1.0734
15538TIP3   OH268028   5.941   4.599  15.122  0.6265 -0.7472  0.5676
15538TIP3    H168029   5.979   4.513  15.141  1.4080 -0.4449  0.4189
15538TIP3    H268030   5.999   4.661  15.166 -0.9525 -0.3684  2.2364
15539TIP3   OH268031   4.975   6.249  14.464 -0.4285 -0.0039  0.0266
15539TIP3    H168032   4.949   6.176  14.407 -1.4097  0.8003 -0.5859
15539TIP3    H268033   4.948   6.220  14.551  1.6197 -1.4950  0.2368
15540TIP3   OH268034   1.818   1.904   0.132  0.3566 -0.3775  0.1311
15540TIP3    H168035   1.913   1.910   0.139  0.3085  0.9427 -0.0208
15540TIP3    H268036   1.800   1.913   0.039  0.0417  0.5711  0.2679
15541TIP3   OH268037   3.812   2.079  14.531 -0.3532  0.0293  0.0770
15541TIP3    H168038   3.904   2.052  14.528 -0.4298 -0.2643  0.2822
15541TIP3    H268039   3.797   2.123  14.447  0.2481  1.0051  0.4771
15542TIP3   OH268040   0.698   1.242  15.985  0.3640  0.2940 -0.1809
15542TIP3    H168041   0.646   1.240  15.905  1.1064  1.9674 -0.7529
15542TIP3    H268042   0.668   1.319  16.032  1.4799  0.6071  0.0524
15543TIP3   OH268043   0.345   5.114   1.506  0.6664 -0.0316  0.2666
15543TIP3    H168044   0.425   5.158   1.477 -0.0679  1.0009 -0.3029
15543TIP3    H268045   0.368   5.022   1.512  1.9271  0.2675  0.2367
15544TIP3   OH268046   2.895   2.826  13.189  0.3107 -0.0060 -0.1530
15544TIP3    H168047   2.817   2.865  13.149  0.7614 -0.7519 -1.8409
15544TIP3    H268048   2.930   2.896  13.245 -0.9866  0.6902 -0.1594
15545TIP3   OH268049   4.224   0.478  14.389 -0.4017 -0.2895 -0.3508
15545TIP3    H168050   4.185   0.391  14.381 -1.5925  0.2019 -0.1334
15545TIP3    H268051   4.234   0.508  14.299 -1.1255 -0.1773 -0.4010
15546TIP3   OH268052   3.651   2.207   1.793  0.1021 -0.0180 -0.4406
15546TIP3    H168053   3.576   2.181   1.847 -0.2808  0.4702 -0.7246
15546TIP3    H268054   3.727   2.198   1.851 -0.1645 -0.5655 -0.1648
15547TIP3   OH268055   3.776   0.887   4.847  0.0128  0.5054 -0.3613
15547TIP3    H168056   3.862   0.901   4.888  1.3263  1.4231 -3.2192
15547TIP3    H268057   3.773   0.792   4.831  0.2350  0.3875  0.2653
15548TIP3   OH268058   4.595   3.629   3.231 -0.1099  0.5511 -0.3771
15548TIP3    H168059   4.543   3.552   3.255  0.2307 -0.2482 -2.0476
15548TIP3    H268060   4.579   3.640   3.137  2.7123  0.2715 -0.9589
15549TIP3   OH268061   0.090   3.530  12.997 -0.1207 -0.8297  0.2052
15549TIP3    H168062   0.003   3.551  12.965  0.0208  0.4956  0.6560
15549TIP3    H268063   0.149   3.552  12.924 -0.1184 -1.3582  0.0420
15550TIP3   OH268064   3.797   6.199   1.513 -0.1758 -0.0441 -0.1892
15550TIP3    H168065   3.724   6.141   1.492 -0.2564 -0.6755  1.7318
15550TIP3    H268066   3.764   6.286   1.492 -2.2624 -0.0775  2.4241
15551TIP3   OH268067   4.727   0.626   5.949 -0.0131  0.4545  0.7582
15551TIP3    H168068   4.697   0.545   5.989  0.2035 -1.2532 -2.2689
15551TIP3    H268069   4.652   0.685   5.955 -1.2269 -0.9931  0.4303
15552TIP3   OH268070   1.604   4.661  15.844  0.5601  0.2534  0.6100
15552TIP3    H168071   1.660   4.598  15.798 -0.8506 -2.1870  2.0443
15552TIP3    H268072   1.569   4.612  15.918 -1.5290  2.4272  1.1633
15553TIP3   OH268073   5.323   0.302   4.058 -0.2585  0.1854 -1.0619
15553TIP3    H168074   5.371   0.228   4.022 -1.6212 -1.8140  0.9075
15553TIP3    H268075   5.385   0.347   4.115  0.0725 -0.6371 -0.7667
15554TIP3   OH268076   5.415   1.226  12.459  0.3772 -0.4238 -0.1237
15554TIP3    H168077   5.363   1.162  12.411  1.2366 -1.6252  0.4903
15554TIP3    H268078   5.351   1.279  12.506 -0.4488  0.3490 -2.0264
15555TIP3   OH268079   3.856   6.323  15.350 -1.1372 -0.5574  0.0223
15555TIP3    H168080   3.920   6.312  15.280 -0.6502 -1.6965  0.6201
15555TIP3    H268081   3.907   6.315  15.431 -1.9843 -1.2780  0.5068
15556TIP3   OH268082   6.007   5.094  13.882 -0.1315 -0.5322  0.4158
15556TIP3    H168083   6.006   4.999  13.893 -3.1382 -0.7768 -0.9513
15556TIP3    H268084   5.919   5.122  13.907 -0.8618  1.2528 -3.4108
15557TIP3   OH268085   4.285   3.647   4.020 -0.2024 -0.4456 -0.1227
15557TIP3    H168086   4.380   3.639   4.008 -0.1781 -2.3361  0.9370
15557TIP3    H268087   4.259   3.564   4.060 -1.7280  1.4861  3.2884
15558TIP3   OH268088   5.319   6.258  12.129 -0.5190 -0.0089 -0.0165
15558TIP3    H168089   5.284   6.247  12.041  1.0377  0.1470 -0.6933
15558TIP3    H268090   5.345   6.170  12.156  0.7429  0.1890 -0.5068
15559TIP3   OH268091   4.973   6.606   2.742  0.4021  0.0349 -0.1562
15559TIP3    H168092   4.925   6.674   2.694 -0.6786 -1.9196 -2.0502
15559TIP3    H268093   4.946   6.617   2.833 -1.2439  0.9580 -0.7047
15560TIP3   OH268094   2.607   1.434  11.910  0.4276  0.0793 -0.3259
15560TIP3    H168095   2.582   1.526  11.904 -0.6751 -0.0296  1.6681
15560TIP3    H268096   2.595   1.412  12.003 -1.8853 -2.7427 -1.1279
15561TIP3   OH268097   1.467   4.933  14.422 -0.3117  0.5800  0.1883
15561TIP3    H168098   1.490   5.000  14.486 -0.3096  1.4454 -0.6775
15561TIP3    H268099   1.397   4.883  14.463  1.0218 -0.1585  1.6419
15562TIP3   OH268100   5.672   0.452   2.290  0.1581 -0.0876  0.1291
15562TIP3    H168101   5.620   0.519   2.335  0.8955 -0.3626  1.4343
15562TIP3    H268102   5.630   0.443   2.204 -0.9027  0.9093  0.5163
15563TIP3   OH268103   6.137   3.228   4.142 -0.0625 -0.2780 -0.3913
15563TIP3    H168104   6.141   3.273   4.058 -0.2854 -1.3874 -1.0269
15563TIP3    H268105   6.178   3.143   4.125 -0.5768 -0.7160  0.4863
15564TIP3   OH268106   6.524   3.416  15.514 -0.4067  0.4324 -0.9073
15564TIP3    H168107   6.436   3.433  15.480 -0.1694  2.3263 -0.6532
15564TIP3    H268108   6.541   3.488  15.574  1.6801  0.5903 -1.6408
15565TIP3   OH268109   0.730   1.950   1.520 -0.1358 -0.1588  0.4866
15565TIP3    H168110   0.724   2.043   1.544  0.4432  0.5836 -1.8988
15565TIP3    H268111   0.729   1.903   1.603 -0.5416  1.9765  1.7672
15566TIP3   OH268112   1.589   2.925   0.283  0.0733 -0.7399 -0.0027
15566TIP3    H168113   1.649   2.855   0.311  0.0967  0.2898  2.9363
15566TIP3    H268114   1.525   2.931   0.354  0.0685  2.1679 -0.1318
15567TIP3   OH268115   6.132   6.554   0.375 -0.3705  0.0043  0.0554
15567TIP3    H168116   6.179   6.565   0.293 -0.2250 -0.7424  0.0238
15567TIP3    H268117   6.109   6.461   0.377  1.2733 -0.4421  1.7157
15568TIP3   OH268118   5.197   2.624  17.008 -0.3049 -0.1193  0.4168
15568TIP3    H168119   5.130   2.690  16.990  1.4807  1.9179  0.9391
15568TIP3    H268120   5.209   2.627  17.103 -0.3302 -1.3805  0.4820
15569TIP3   OH268121   4.350   3.077   0.156  0.5863 -0.2747  0.2881
15569TIP3    H168122   4.269   3.048   0.113 -0.3511 -0.8391  2.2965
15569TIP3    H268123   4.404   2.999   0.161  1.0404 -0.0207 -0.5758
15570TIP3   OH268124   5.689   3.077  17.299 -0.0307 -0.8277  0.1971
15570TIP3    H168125   5.631   3.002  17.303 -1.3397  0.1661  0.7496
15570TIP3    H268126   5.775   3.041  17.278 -1.0714 -2.2261 -1.9597
15571TIP3   OH268127   6.725   0.685  11.604 -0.5494  0.0670  0.3883
15571TIP3    H168128   6.803   0.728  11.570  0.0451 -1.1415  0.1722
15571TIP3    H268129   6.670   0.671  11.526 -0.6677  0.2822  0.4327
15572TIP3   OH268130   5.103   5.278  13.633 -0.3386  0.2142  0.3242
15572TIP3    H168131   5.029   5.325  13.671  0.9291  2.0200  0.6835
15572TIP3    H268132   5.103   5.302  13.541 -1.2121 -1.2197 -0.0863
15573TIP3   OH268133   2.199   4.852   3.636  0.5070 -0.4691 -1.0901
15573TIP3    H168134   2.289   4.826   3.614  0.6874 -0.8204  0.0034
15573TIP3    H268135   2.207   4.943   3.664  0.7749 -0.9332  0.4116
15574TIP3   OH268136   1.536   6.572   1.118 -0.1242  0.8333  0.7376
15574TIP3    H168137   1.630   6.580   1.103 -0.1307  0.0006  0.1646
15574TIP3    H268138   1.506   6.513   1.049 -0.3364 -2.4358  3.4037
15575TIP3   OH268139   2.760   1.866   0.235 -0.0477 -0.2233  0.0327
15575TIP3    H168140   2.770   1.834   0.145 -1.4365 -0.2281 -0.1430
15575TIP3    H268141   2.729   1.956   0.225 -1.0367 -0.4987  0.4870
15576TIP3   OH268142   4.979   1.096  15.736  0.9956  0.0064 -0.5240
15576TIP3    H168143   4.961   1.115  15.644  0.9218 -0.6216 -0.6457
15576TIP3    H268144   4.971   1.180  15.781  0.2154  0.1711 -0.9622
15577TIP3   OH268145   0.412   3.880   5.160  0.1404 -0.1603 -0.2835
15577TIP3    H168146   0.332   3.862   5.109 -0.2959  1.1889 -0.1088
15577TIP3    H268147   0.408   3.974   5.178  1.0025 -0.3617  1.0550
15578TIP3   OH268148   2.090   3.803  11.449 -0.1440  0.2276  0.2848
15578TIP3    H168149   2.028   3.871  11.423 -0.1814 -0.0918 -0.4868
15578TIP3    H268150   2.156   3.804  11.380  2.4600  2.6533  2.5720
15579TIP3   OH268151   2.897   2.277   5.063  0.2847  0.2178 -0.1128
15579TIP3    H168152   2.936   2.328   5.135 -1.7570  1.1100  0.4452
15579TIP3    H268153   2.902   2.336   4.987  1.6125 -0.3708 -0.5017
15580TIP3   OH268154   5.422   0.400  12.987 -0.2029  0.4843  0.0446
15580TIP3    H168155   5.455   0.467  13.048 -1.8360 -0.1905  1.7758
15580TIP3    H268156   5.329   0.395  13.005 -0.3133 -1.5040 -0.8113
15581TIP3   OH268157   5.207   3.538  12.335 -0.2787  0.0349  0.2447
15581TIP3    H168158   5.167   3.457  12.367 -1.4344  0.1280 -0.8872
15581TIP3    H268159   5.136   3.601  12.334  0.6891  1.1831  1.4346
15582TIP3   OH268160   4.735   0.248   3.946  0.6627  0.4595 -0.1599
15582TIP3    H168161   4.664   0.215   4.000 -1.5895  0.8793 -2.6595
15582TIP3    H268162   4.814   0.210   3.984 -0.9935 -1.1728  1.8994
15583TIP3   OH268163   2.115   1.339  12.607 -0.0142  0.2324  0.3993
15583TIP3    H168164   2.055   1.286  12.659 -0.9478  0.4327 -0.4461
15583TIP3    H268165   2.091   1.321  12.516  1.5676 -0.0895  0.0169
15584TIP3   OH268166   1.158   1.118  12.818 -0.8039  0.6748 -0.0671
15584TIP3    H168167   1.063   1.131  12.823 -0.9446  0.1373 -1.1214
15584TIP3    H268168   1.181   1.142  12.728  0.1637  1.3709  0.3453
15585TIP3   OH268169   1.136   3.471   2.140  0.0702 -0.2342 -0.4203
15585TIP3    H168170   1.118   3.388   2.095 -2.2657 -0.9213  1.5931
15585TIP3    H268171   1.128   3.450   2.233 -0.7445  2.2809  0.1341
15586TIP3   OH268172   0.316   5.696  14.968  0.8900 -0.1416  0.4633
15586TIP3    H168173   0.371   5.735  14.900 -1.5493  1.1375 -0.9398
15586TIP3    H268174   0.226   5.716  14.940 -0.3613 -2.7095  2.2172
15587TIP3   OH268175   1.829   1.762  13.105  0.2554 -0.2079 -0.0454
15587TIP3    H168176   1.865   1.811  13.031  0.2458 -1.7168 -1.0978
15587TIP3    H268177   1.758   1.710  13.067  0.4032 -1.1871  0.9733
15588TIP3   OH268178   1.153   3.281   6.653  0.5521  0.0325  0.2192
15588TIP3    H168179   1.242   3.310   6.674  0.8920 -1.1476  0.4635
15588TIP3    H268180   1.163   3.190   6.626 -0.3383  0.4376 -1.6411
15589TIP3   OH268181   3.743   0.563  15.026 -0.4641  0.1275 -0.4424
15589TIP3    H168182   3.836   0.541  15.040  0.2489  1.3057 -2.7826
15589TIP3    H268183   3.716   0.604  15.108  1.8439  2.0162 -0.5046
15590TIP3   OH268184   3.332   4.275   3.079  0.1326  0.5131  0.5876
15590TIP3    H168185   3.335   4.264   3.174  0.7356 -1.2237  0.4039
15590TIP3    H268186   3.423   4.266   3.051 -0.0664  0.8164 -0.1889
15591TIP3   OH268187   3.049   3.893  16.625 -0.2131 -0.1479 -0.1163
15591TIP3    H168188   2.987   3.949  16.578 -0.5552 -0.2977  0.1491
15591TIP3    H268189   3.135   3.923  16.595 -0.3078  1.5764  1.1787
15592TIP3   OH268190   5.027   2.757   5.661  0.1751  0.3170  0.2574
15592TIP3    H168191   5.041   2.822   5.592  1.5999 -0.4379 -0.2050
15592TIP3    H268192   4.976   2.688   5.618  0.5901  0.0988  0.1156
15593TIP3   OH268193   5.038   0.217  15.304 -0.2243 -0.4579 -0.0252
15593TIP3    H168194   5.070   0.137  15.345  0.4108 -0.9666 -1.4500
15593TIP3    H268195   4.944   0.203  15.293 -0.0568 -1.1504 -0.5787
15594TIP3   OH268196   5.224   4.923   1.865 -0.2865 -0.0600 -0.4175
15594TIP3    H168197   5.284   4.988   1.829 -2.3251  1.8905 -0.5084
15594TIP3    H268198   5.274   4.881   1.934  0.0369  4.3756  2.4555
15595TIP3   OH268199   3.147   1.395  15.950  0.4472 -0.4012 -0.5638
15595TIP3    H168200   3.089   1.325  15.919 -1.5556  0.8653  0.0968
15595TIP3    H268201   3.186   1.361  16.030 -1.2929 -0.4606  0.3092
15596TIP3   OH268202   5.224   6.164  13.126  0.2956 -0.3220  0.5990
15596TIP3    H168203   5.208   6.258  13.131  1.0897 -0.0666 -1.0035
15596TIP3    H268204   5.257   6.141  13.213 -1.9041  0.4369  1.6932
15597TIP3   OH268205   6.170   4.420   1.517 -0.1669  0.7644  0.4672
15597TIP3    H168206   6.116   4.348   1.484 -0.5059  1.3838 -0.3681
15597TIP3    H268207   6.170   4.484   1.446  1.1976  1.0331  0.6784
15598TIP3   OH268208   5.845   0.725   3.357  0.1421 -0.5091 -0.5684
15598TIP3    H168209   5.933   0.707   3.323  0.4128  0.2738 -0.2928
15598TIP3    H268210   5.820   0.643   3.400  1.3721 -0.2731  0.6875
15599TIP3   OH268211   4.275   3.606  15.129  0.0744  0.0640 -0.5238
15599TIP3    H168212   4.235   3.539  15.184 -0.0970  0.3265 -0.3293
15599TIP3    H268213   4.233   3.595  15.043 -0.0662  0.0257 -0.4502
15600TIP3   OH268214   1.875   1.934  12.869 -0.4403  0.0492  0.7352
15600TIP3    H168215   1.782   1.951  12.856  0.0074  0.8846 -1.8787
15600TIP3    H268216   1.919   1.987  12.803  1.6663 -3.0346 -0.6008
15601TIP3   OH268217   4.042   2.037   2.254 -0.0014 -0.2433 -0.2387
15601TIP3    H168218   3.963   2.092   2.252 -0.6590 -1.1578 -0.9633
15601TIP3    H268219   4.101   2.080   2.316 -0.4527  1.3091 -0.8421
15602TIP3   OH268220   0.938   3.287   5.074 -0.1879  0.0873 -0.0959
15602TIP3    H168221   0.907   3.371   5.106 -2.6286  0.2169 -2.3944
15602TIP3    H268222   0.858   3.240   5.049  1.2202 -1.9694 -1.0953
15603TIP3   OH268223   2.190   6.560  13.229  0.0723  0.1732 -0.1415
15603TIP3    H168224   2.207   6.582  13.320  0.2426  0.9768 -0.3634
15603TIP3    H268225   2.099   6.586  13.214 -0.7712 -2.1710  0.4489
15604TIP3   OH268226   1.595   2.244   1.705 -0.4685 -0.4328  0.1590
15604TIP3    H168227   1.611   2.281   1.792 -0.0281 -1.3788  0.4923
15604TIP3    H268228   1.530   2.303   1.666  0.9991  1.3518  0.2348
15605TIP3   OH268229   2.025   3.980  12.429 -0.1235  0.1353  0.1053
15605TIP3    H168230   2.070   3.915  12.483  0.6859  1.1579  0.6927
15605TIP3    H268231   1.972   3.928  12.368 -0.5929 -1.0502  1.4746
15606TIP3   OH268232   5.461   2.999   4.411  0.5657 -0.0479  0.1016
15606TIP3    H168233   5.518   2.962   4.345  0.7769  1.5279 -0.6532
15606TIP3    H268234   5.491   2.961   4.494  0.1510 -2.2104 -0.6820
15607TIP3   OH268235   4.028   0.201   3.057 -0.2486 -0.2091  0.0813
15607TIP3    H168236   4.028   0.148   3.137 -1.3861  0.6306  0.6792
15607TIP3    H268237   4.078   0.150   2.994  1.2239 -0.6152  1.5037
15608TIP3   OH268238   3.821   1.852   2.266 -0.2453 -0.3122 -0.1016
15608TIP3    H168239   3.899   1.906   2.281  0.3020 -0.6453 -1.5699
15608TIP3    H268240   3.826   1.783   2.332  1.3589 -1.0034 -0.9045
15609TIP3   OH268241   2.936   4.944   3.766  0.3364  0.6856  0.4427
15609TIP3    H168242   2.937   4.899   3.682  0.8551 -0.2165  0.9226
15609TIP3    H268243   3.016   4.916   3.810 -0.7404 -0.2147  1.9448
15610TIP3   OH268244   0.139   1.606   4.235  0.4471 -0.4767  0.3535
15610TIP3    H168245   0.208   1.606   4.168 -0.4792 -1.2328 -0.6513
15610TIP3    H268246   0.157   1.683   4.288  1.2601  0.1206 -0.7402
15611TIP3   OH268247   1.772   6.705   1.047  0.3561 -0.0461 -0.6156
15611TIP3    H168248   1.862   6.735   1.056  0.6217  0.2398 -3.2588
15611TIP3    H268249   1.771   6.657   0.964 -1.9874  0.2678 -0.8485
15612TIP3   OH268250   3.883   2.946  16.669 -0.4590 -0.1492 -0.0826
15612TIP3    H168251   3.893   2.983  16.581  1.1382  1.2686  0.6367
15612TIP3    H268252   3.932   2.864  16.667  0.9441  0.6585 -0.1033
15613TIP3   OH268253   6.665   4.752   4.121 -0.2018 -0.2449  0.1557
15613TIP3    H168254   6.591   4.729   4.178  1.2885 -2.0965  1.4877
15613TIP3    H268255   6.663   4.848   4.117 -1.7288 -0.1742  1.4601
15614TIP3   OH268256   2.529   4.322   2.931  0.2290 -0.1713  0.5242
15614TIP3    H168257   2.486   4.408   2.928 -0.3671 -0.4312  1.1833
15614TIP3    H268258   2.618   4.340   2.960  0.3001  0.2830  0.0406
15615TIP3   OH268259   6.586   1.513  14.511  0.3152 -0.2336  0.4858
15615TIP3    H168260   6.570   1.597  14.556 -0.5630  0.1692 -0.5330
15615TIP3    H268261   6.681   1.509  14.502  0.3951  0.4881  0.8647
15616TIP3   OH268262   3.167   3.822  11.948  0.3874  0.0905 -0.1471
15616TIP3    H168263   3.224   3.894  11.975 -0.1385  0.1759  0.7764
15616TIP3    H268264   3.167   3.763  12.023 -0.3172 -0.1627 -0.3440
15617TIP3   OH268265   6.188   5.998   1.850 -0.1083 -0.1052 -0.4311
15617TIP3    H168266   6.125   5.946   1.800 -0.0129  0.8149 -1.5383
15617TIP3    H268267   6.260   5.937   1.868 -1.0193 -0.9990  0.3255
15618TIP3   OH268268   0.041   3.462   2.203 -0.2782  0.4649  0.3449
15618TIP3    H168269  -0.046   3.502   2.202 -0.3302  0.3373 -0.1975
15618TIP3    H268270   0.098   3.532   2.236 -0.4690  0.7973 -0.0126
15619TIP3   OH268271   5.665   5.429  14.977 -0.0736 -0.3411  0.3080
15619TIP3    H168272   5.722   5.503  14.999  0.3511  0.1035 -1.9879
15619TIP3    H268273   5.622   5.456  14.896 -0.9465 -2.0802  0.1466
15620TIP3   OH268274   4.325   0.012   4.863  0.6078 -0.2619 -0.3285
15620TIP3    H168275   4.376   0.038   4.940  1.5653 -0.5552 -0.8348
15620TIP3    H268276   4.347   0.078   4.797 -0.4048  0.1314 -0.2796
15621TIP3   OH268277   5.120   2.599  15.555 -0.2171 -0.4147 -0.2085
15621TIP3    H168278   5.081   2.513  15.541 -2.6312  0.8134 -1.6504
15621TIP3    H268279   5.047   2.654  15.583  1.0023  1.4589 -0.5785
15622TIP3   OH268280   3.366   0.271  16.716 -0.0362 -0.6684  0.0937
15622TIP3    H168281   3.431   0.259  16.648  0.2610 -2.5838  0.6694
15622TIP3    H268282   3.414   0.313  16.788  0.3896 -1.3700  0.2261
15623TIP3   OH268283   2.174   1.288   4.221  0.7247 -0.2950 -0.0210
15623TIP3    H168284   2.168   1.239   4.140  3.0305 -1.6178  0.5133
15623TIP3    H268285   2.267   1.312   4.227  0.0789  2.3384  0.8057
15624TIP3   OH268286   5.783   0.095  12.717 -0.2096  0.1414 -0.3693
15624TIP3    H168287   5.847   0.150  12.673  1.2035  0.2844  1.7374
15624TIP3    H268288   5.742   0.153  12.782  0.7367 -1.0346  1.3386
15625TIP3   OH268289   4.426   6.701  12.154  0.0485 -0.0413  0.2546
15625TIP3    H168290   4.478   6.621  12.166  1.2431  0.6775  0.0371
15625TIP3    H268291   4.368   6.681  12.081  0.3505 -0.7148  0.1908
15626TIP3   OH268292   3.929   1.215   1.252  0.1383  0.6484 -0.4018
15626TIP3    H168293   4.020   1.225   1.226  0.1792  0.2955 -0.3965
15626TIP3    H268294   3.919   1.122   1.272  0.1305  0.9260  0.9651
15627TIP3   OH268295   5.434   0.533  10.751 -0.2812 -0.0641  0.3999
15627TIP3    H168296   5.493   0.584  10.695  2.3157  1.6591  4.3225
15627TIP3    H268297   5.457   0.442  10.734  1.0718  0.4420 -0.6273
15628TIP3   OH268298   4.629   5.857   4.322  0.3753 -0.2232  0.0181
15628TIP3    H168299   4.548   5.823   4.360  0.3764 -0.7302 -0.4209
15628TIP3    H268300   4.638   5.945   4.359  0.1986 -0.5677  0.9135
15629TIP3   OH268301   1.084   4.197   0.045 -0.5966 -0.0890  0.2902
15629TIP3    H168302   1.126   4.253   0.110  0.6483 -0.3689 -0.2453
15629TIP3    H268303   1.120   4.224  -0.039 -0.6361 -1.0899 -0.0722
15630TIP3   OH268304   5.172   1.371  15.660 -0.7915  0.3317 -0.2893
15630TIP3    H168305   5.131   1.411  15.584 -0.2819 -1.2019 -1.4238
15630TIP3    H268306   5.236   1.310  15.624 -1.4393 -1.4079  1.3315
15631TIP3   OH268307   3.541   0.836  13.013 -0.3637  0.2753  0.1350
15631TIP3    H168308   3.613   0.801  12.960 -0.9721  0.1460 -0.6229
15631TIP3    H268309   3.462   0.802  12.971 -0.8640  0.2778  1.0597
15632TIP3   OH268310   2.720   5.914  12.261  0.4367  1.1394  0.0122
15632TIP3    H168311   2.653   5.898  12.195  1.2451  0.0838 -0.5928
15632TIP3    H268312   2.679   5.886  12.343  0.0153  0.8345 -0.2960
15633TIP3   OH268313   6.104   2.775   3.341 -0.2232 -0.5025 -0.3588
15633TIP3    H168314   6.177   2.732   3.296 -0.0463 -0.5374 -0.0453
15633TIP3    H268315   6.054   2.816   3.271  0.2420 -0.2578 -0.5560
15634TIP3   OH268316   0.583   2.642  11.561  0.1638  0.7896  0.6599
15634TIP3    H168317   0.622   2.577  11.619 -0.1056  1.6794  1.8760
15634TIP3    H268318   0.641   2.718  11.567 -0.3257  1.1915  0.4308
15635TIP3   OH268319   1.082   2.123  11.951  0.0071  0.2452 -0.0430
15635TIP3    H168320   1.031   2.188  11.999 -0.4300  0.8357 -1.2713
15635TIP3    H268321   1.157   2.104  12.008 -0.6062  0.7505  0.9554
15636TIP3   OH268322   1.260   4.840   1.754  0.3235  0.1870  0.2205
15636TIP3    H168323   1.281   4.916   1.809  1.2775 -0.6715  1.0909
15636TIP3    H268324   1.183   4.802   1.796 -0.1945  0.6959 -0.2537
15637TIP3   OH268325   4.946   5.417   3.632  0.1790 -0.3478 -0.2929
15637TIP3    H168326   4.970   5.374   3.550  0.3947 -0.8303  0.0214
15637TIP3    H268327   5.029   5.443   3.672  0.0241  1.5354 -1.0837
15638TIP3   OH268328   3.227   1.066   4.310  0.5781 -0.0681 -0.7431
15638TIP3    H168329   3.134   1.089   4.313  1.0106  1.7162  0.7547
15638TIP3    H268330   3.271   1.147   4.283  1.7244 -0.8467 -1.2951
15639TIP3   OH268331   3.604   4.540  14.963 -0.7195  0.0457 -0.3460
15639TIP3    H168332   3.667   4.476  14.995  3.4921  2.8838 -2.1192
15639TIP3    H268333   3.564   4.576  15.043 -0.0153 -1.7216  0.8653
15640TIP3   OH268334   4.505   6.420  12.166 -0.2221 -0.1281 -0.5433
15640TIP3    H168335   4.585   6.399  12.215 -0.1622  3.8810  1.4884
15640TIP3    H268336   4.435   6.409  12.230 -0.8661 -0.1197 -1.2421
15641TIP3   OH268337   1.518   3.573   4.058 -0.3734  0.1387  0.2154
15641TIP3    H168338   1.516   3.497   4.000  0.9090  0.4069 -0.2033
15641TIP3    H268339   1.610   3.584   4.081 -0.8144  0.2555  2.0487
15642TIP3   OH268340   1.234   2.949  15.933  0.2588  0.2435 -0.4419
15642TIP3    H168341   1.206   2.993  15.852  0.1979 -2.4965 -2.0249
15642TIP3    H268342   1.154   2.937  15.983 -0.2573 -0.8411 -1.4805
15643TIP3   OH268343   4.980   6.574   3.640 -0.3990  0.0837  0.2992
15643TIP3    H168344   5.073   6.592   3.650  0.0510  1.5967 -4.1936
15643TIP3    H268345   4.937   6.658   3.659 -0.1498  1.0527 -2.9010
15644TIP3   OH268346   2.752   1.157  15.664 -0.8556 -0.0894 -0.4934
15644TIP3    H168347   2.700   1.211  15.723  1.2085  0.3494  1.0437
15644TIP3    H268348   2.789   1.217  15.600 -1.6489 -0.2895 -1.1461
15645TIP3   OH268349   3.513   2.535   2.202 -0.0600 -0.2092 -0.0266
15645TIP3    H168350   3.454   2.542   2.278  1.1178 -1.6164  1.0784
15645TIP3    H268351   3.598   2.511   2.240  0.8094  0.0698 -1.7242
15646TIP3   OH268352   0.329   1.390   3.086 -0.2500  0.8660  0.2591
15646TIP3    H168353   0.320   1.298   3.064  0.6264  0.7345  0.4156
15646TIP3    H268354   0.387   1.392   3.162  0.8440  1.6168 -0.5682
15647TIP3   OH268355   6.340   2.535  14.419 -0.0087 -0.1835  0.1077
15647TIP3    H168356   6.377   2.503  14.501  1.6698  0.6200 -0.2907
15647TIP3    H268357   6.332   2.630  14.432 -0.5560 -0.1604 -0.3582
15648TIP3   OH268358   1.674   1.914  16.707 -0.0194 -0.1110 -0.1407
15648TIP3    H168359   1.658   1.913  16.801 -0.2542  2.1949 -0.1012
15648TIP3    H268360   1.770   1.911  16.699  0.1504  2.0523  0.3387
15649TIP3   OH268361   4.170   2.168   0.670 -0.8764  0.5898 -0.1579
15649TIP3    H168362   4.164   2.200   0.760 -0.5802  1.4329 -0.4257
15649TIP3    H268363   4.087   2.123   0.654 -0.6251 -0.2411  0.7781
15650TIP3   OH268364   6.429   1.249   3.283 -0.0733  0.3377 -0.3410
15650TIP3    H168365   6.513   1.291   3.298 -0.7458  1.6922 -0.1788
15650TIP3    H268366   6.396   1.289   3.202 -0.4452 -0.3740 -0.5520
15651TIP3   OH268367   6.083   4.948   3.930  0.5664 -0.4362  0.2936
15651TIP3    H168368   6.095   5.043   3.922 -2.5961  0.1250  1.0257
15651TIP3    H268369   6.149   4.911   3.871  0.7227  2.2510 -1.4013
15652TIP3   OH268370   3.767   1.806   2.000 -0.1352  0.5353  0.1468
15652TIP3    H168371   3.771   1.823   2.094 -2.0548 -1.1949  0.6201
15652TIP3    H268372   3.673   1.800   1.981  0.2404 -0.1423 -1.6881
15653TIP3   OH268373   3.629   3.609  12.735 -0.0820 -0.4412 -0.0062
15653TIP3    H168374   3.568   3.681  12.717  1.0511  0.3322 -0.9314
15653TIP3    H268375   3.619   3.550  12.660  1.7136  0.7356 -1.2907
15654TIP3   OH268376   4.739   6.585   3.405 -0.4427 -0.5768 -0.7323
15654TIP3    H168377   4.773   6.673   3.421  1.6662 -1.3887 -0.4210
15654TIP3    H268378   4.768   6.564   3.316 -1.0802 -0.8930 -0.8662
15655TIP3   OH268379   0.929   3.134   3.021  0.1910  0.0205  0.4921
15655TIP3    H168380   0.840   3.104   3.039 -0.2343  0.0704 -1.3218
15655TIP3    H268381   0.969   3.142   3.107 -2.1470  1.8675  1.5220
15656TIP3   OH268382   1.221   6.506   5.849  0.3279  0.0738  0.0320
15656TIP3    H168383   1.298   6.505   5.906  0.8620  0.0098 -0.6799
15656TIP3    H268384   1.157   6.453   5.896 -0.1336  2.0045  1.7513
15657TIP3   OH268385   5.437   6.268  14.799 -0.2199 -0.5079 -0.6303
15657TIP3    H168386   5.346   6.261  14.770 -0.3093 -2.6420  0.0116
15657TIP3    H268387   5.441   6.216  14.879  1.5177 -0.2453 -0.4968
15658TIP3   OH268388   3.323   0.117  14.060  0.2107  0.0600  0.2204
15658TIP3    H168389   3.235   0.101  14.025  0.5035 -0.8329 -0.1096
15658TIP3    H268390   3.315   0.096  14.153  0.5257 -1.8916 -0.1528
15659TIP3   OH268391   4.881   5.323  15.433 -0.1441 -0.1978  0.2367
15659TIP3    H168392   4.917   5.316  15.522 -0.2143  2.8646  0.6400
15659TIP3    H268393   4.911   5.408  15.402 -2.3117 -0.0165 -1.6404
15660TIP3   OH268394   3.437   3.359  15.036  0.0658 -0.2879  0.4837
15660TIP3    H168395   3.377   3.416  14.987  0.4899  0.5695  0.9324
15660TIP3    H268396   3.484   3.310  14.968  1.1498  1.3864 -0.0626
15661TIP3   OH268397   2.171   4.826  11.710 -0.6289  0.4951 -0.3632
15661TIP3    H168398   2.169   4.812  11.805 -1.2830  0.6219 -0.3543
15661TIP3    H268399   2.092   4.784  11.678 -0.3947  0.4274 -0.8603
15662TIP3   OH268400   3.191   0.686   6.292 -0.1991  0.5185 -0.4814
15662TIP3    H168401   3.232   0.609   6.253  2.4841  1.7011 -0.2050
15662TIP3    H268402   3.098   0.665   6.295  0.2832 -2.1341 -1.6647
15663TIP3   OH268403   6.056   5.757   2.791 -0.5276 -0.2655  0.1763
15663TIP3    H168404   5.976   5.801   2.820 -0.5182 -1.0543  1.5192
15663TIP3    H268405   6.106   5.824   2.745 -1.8266  0.3152 -0.4263
15664TIP3   OH268406   2.070   3.838  15.425  0.3350 -0.0083  0.8751
15664TIP3    H168407   2.047   3.896  15.351 -0.7402 -0.3458  0.9209
15664TIP3    H268408   2.086   3.753  15.384 -0.1839 -0.1768  1.0126
15665TIP3   OH268409   5.462   1.730  12.256 -0.0201 -0.0121 -0.0347
15665TIP3    H168410   5.545   1.684  12.243  0.3033  0.2554  1.0405
15665TIP3    H268411   5.457   1.792  12.183  0.4428 -0.4337 -0.4269
15666TIP3   OH268412   0.272   5.133  15.336  0.3937  0.3328 -0.4141
15666TIP3    H168413   0.276   5.135  15.240  1.3374 -1.5162 -0.4574
15666TIP3    H268414   0.180   5.146  15.357  0.1530  0.6080 -1.5716
15667TIP3   OH268415   4.401   5.601  13.331  0.8180 -0.1136  0.1576
15667TIP3    H168416   4.456   5.678  13.321 -0.5966  0.8188 -0.7317
15667TIP3    H268417   4.460   5.527  13.318  1.8913  0.8505 -0.5864
15668TIP3   OH268418   4.384   6.568   0.583  0.1797  0.0750 -0.2779
15668TIP3    H168419   4.445   6.588   0.512  2.7610 -0.1947  1.7280
15668TIP3    H268420   4.336   6.491   0.552  0.1114  0.8772 -2.3060
15669TIP3   OH268421   1.402   0.596   1.801 -0.1601 -0.0383 -0.1917
15669TIP3    H168422   1.430   0.597   1.710  0.3247 -1.3123 -0.0726
15669TIP3    H268423   1.330   0.533   1.803  0.5106 -0.8020  0.4880
15670TIP3   OH268424   5.075   2.875  12.694 -0.0518 -0.0362  0.1433
15670TIP3    H168425   4.985   2.895  12.719 -0.2518  0.7248 -1.1119
15670TIP3    H268426   5.118   2.850  12.776 -1.2134  0.2896  0.8696
15671TIP3   OH268427   3.645   5.859  12.356 -0.1781  0.3272  0.0908
15671TIP3    H168428   3.704   5.841  12.283 -1.5316  0.8888 -1.1866
15671TIP3    H268429   3.559   5.868  12.315 -1.5265 -2.2264  2.0518
15672TIP3   OH268430   0.001   1.557   4.555 -0.1942 -0.7363 -0.4057
15672TIP3    H168431  -0.092   1.576   4.546  0.3904  2.2367 -1.4705
15672TIP3    H268432   0.027   1.520   4.471 -0.0784  0.4157 -0.9041
15673TIP3   OH268433   1.911   3.190   3.429 -0.4790 -0.7365 -0.0888
15673TIP3    H168434   2.001   3.209   3.402 -0.5524  0.5316  0.4827
15673TIP3    H268435   1.919   3.138   3.508 -0.2241  0.0362  0.4061
15674TIP3   OH268436   5.601   1.556   4.988  0.3480  0.0434 -0.2754
15674TIP3    H168437   5.561   1.502   5.055  1.4619 -0.4506  0.0197
15674TIP3    H268438   5.648   1.495   4.932  1.7531  0.6860  0.1513
15675TIP3   OH268439   2.896   0.119   4.449 -0.4314  0.6706 -0.0058
15675TIP3    H168440   2.809   0.122   4.408 -0.2186 -0.3365 -0.5781
15675TIP3    H268441   2.878   0.095   4.540 -0.9009  2.8415  0.5359
15676TIP3   OH268442   2.702   4.901  11.982 -0.6393  0.0082 -0.0258
15676TIP3    H168443   2.623   4.848  11.973 -1.1232  0.6564  0.2554
15676TIP3    H268444   2.719   4.934  11.894  0.0006 -1.0689 -0.3142
15677TIP3   OH268445   5.651   0.422   4.105 -0.1883 -0.5944  0.3480
15677TIP3    H168446   5.703   0.495   4.072  0.5347 -0.3034  2.0197
15677TIP3    H268447   5.668   0.350   4.043 -0.0228  0.3137 -0.6861
15678TIP3   OH268448   4.761   5.006   4.885  0.0691  0.7420 -0.1434
15678TIP3    H168449   4.714   5.079   4.924 -1.1372 -0.4785  0.7530
15678TIP3    H268450   4.832   5.048   4.835  0.4891  2.4417  1.7313
15679TIP3   OH268451   5.141   0.305  11.273  0.0423  0.5328 -0.2850
15679TIP3    H168452   5.114   0.317  11.364  0.2735 -1.5145  0.1001
15679TIP3    H268453   5.116   0.215  11.252  1.2661  0.5028 -1.7954
15680TIP3   OH268454   5.153   6.104  15.304  0.2448 -1.1776 -0.3202
15680TIP3    H168455   5.217   6.145  15.362 -1.1277 -0.4517  0.7340
15680TIP3    H268456   5.190   6.018  15.285  0.5683 -1.6209  2.0054
15681TIP3   OH268457   0.153   0.340   0.494  0.5518  0.1158  0.3988
15681TIP3    H168458   0.114   0.260   0.528  1.4972 -0.6603 -0.2783
15681TIP3    H268459   0.158   0.326   0.399  1.1651  0.7727  0.3223
15682TIP3   OH268460   3.611   2.658  15.882 -0.0546 -0.1392 -0.2622
15682TIP3    H168461   3.576   2.572  15.859  0.7501 -1.0101  1.5520
15682TIP3    H268462   3.533   2.713  15.895 -0.5586 -0.1452 -2.7992
15683TIP3   OH268463   2.970   1.909  13.861 -0.3284  0.2331  0.2092
15683TIP3    H168464   2.944   1.995  13.828 -1.6128 -0.1471  0.1408
15683TIP3    H268465   2.887   1.867  13.885  0.3532 -0.5555  1.3046
15684TIP3   OH268466   4.780   4.210   0.355  0.2784 -0.6372  0.2037
15684TIP3    H168467   4.705   4.157   0.328  0.0378 -1.2387  1.9199
15684TIP3    H268468   4.768   4.223   0.449  1.3875  0.8040  0.1903
15685TIP3   OH268469   2.007   2.130   1.982 -0.5190  0.2675 -0.3204
15685TIP3    H168470   1.926   2.143   2.032  1.8145  1.0779  3.6978
15685TIP3    H268471   2.060   2.208   2.001  1.6119 -0.6758 -1.9499
15686TIP3   OH268472   5.503   1.532  13.468  0.3436  0.8943  0.2838
15686TIP3    H168473   5.561   1.579  13.408  1.7172 -0.5385  0.4241
15686TIP3    H268474   5.562   1.481  13.523 -1.0396 -0.9575  0.1408
15687TIP3   OH268475   2.372   1.091  16.756  0.7286 -0.0064 -0.2083
15687TIP3    H168476   2.391   0.999  16.777  1.7547  0.2349 -0.0120
15687TIP3    H268477   2.438   1.115  16.691  0.6501  0.6755 -0.0472
15688TIP3   OH268478   4.559   5.842  13.293 -0.0209 -0.2632 -0.1590
15688TIP3    H168479   4.494   5.881  13.235 -0.1210  0.2591  0.3009
15688TIP3    H268480   4.610   5.917  13.325 -0.1628 -0.5155  0.6677
15689TIP3   OH268481   5.389   4.343  16.666 -0.8737 -0.1467 -0.1610
15689TIP3    H168482   5.444   4.266  16.647 -0.5329  0.1813 -0.5059
15689TIP3    H268483   5.389   4.348  16.762  1.0387  0.7959 -0.1662
15690TIP3   OH268484   1.471   3.831   2.420 -0.5787  0.1920  0.3394
15690TIP3    H168485   1.382   3.806   2.395 -1.2090  2.7145 -0.2400
15690TIP3    H268486   1.474   3.926   2.406  1.1390  0.7620  3.5578
15691TIP3   OH268487   5.343   3.294  16.961 -0.0486 -0.5571  0.2953
15691TIP3    H168488   5.407   3.223  16.956  0.1710 -0.5402  2.1087
15691TIP3    H268489   5.289   3.273  17.037 -0.9438  0.4428 -0.0375
15692TIP3   OH268490   2.465   6.092  13.152 -0.3504  0.3340  0.6089
15692TIP3    H168491   2.537   6.113  13.212  1.0226  2.6794 -1.6502
15692TIP3    H268492   2.477   5.999  13.132  0.7895  0.1809  1.8423
15693TIP3   OH268493   4.926   5.107  14.195 -0.2582 -0.0477  0.0345
15693TIP3    H168494   4.939   5.190  14.242 -0.6062 -0.6401  1.2076
15693TIP3    H268495   4.859   5.061  14.245  1.8450 -2.2326  1.0435
15694TIP3   OH268496   6.401   2.606   6.153 -0.3355 -0.3795 -0.6975
15694TIP3    H168497   6.477   2.652   6.118 -0.8508  0.8961 -0.1990
15694TIP3    H268498   6.336   2.611   6.083 -1.5555  2.6413  0.4936
15695TIP3   OH268499   6.596   0.903  16.235 -0.1092  0.3086 -0.6502
15695TIP3    H168500   6.546   0.903  16.154 -0.0213 -0.0460 -0.7014
15695TIP3    H268501   6.684   0.928  16.209  0.0255 -0.2487 -0.7258
15696TIP3   OH268502   0.897   6.415   2.069  0.8962  0.1670 -0.1218
15696TIP3    H168503   0.854   6.390   2.151  1.3772 -1.2147 -0.2630
15696TIP3    H268504   0.849   6.492   2.039  0.2148  0.2236  1.0586
15697TIP3   OH268505   0.345   5.473  12.801  0.4693  0.2527 -0.3975
15697TIP3    H168506   0.429   5.427  12.797  0.9859  0.7483  2.3527
15697TIP3    H268507   0.321   5.469  12.894 -2.3647  0.4864 -1.0539
15698TIP3   OH268508   5.601   2.478   2.014 -0.2132  0.1072 -0.5650
15698TIP3    H168509   5.677   2.534   1.999  0.0147 -0.4912 -1.7190
15698TIP3    H268510   5.626   2.393   1.977 -1.7796  0.1546 -1.7811
15699TIP3   OH268511   1.428   3.646   0.588 -0.3523 -0.0156  0.1185
15699TIP3    H168512   1.511   3.691   0.598 -0.8098  0.9232 -0.2350
15699TIP3    H268513   1.437   3.567   0.642  1.1946 -0.5468 -0.8667
15700TIP3   OH268514   6.704   2.038  10.976 -1.0622 -0.4551 -0.7222
15700TIP3    H168515   6.762   2.024  10.901 -0.9500  0.3196 -0.7876
15700TIP3    H268516   6.675   2.129  10.968 -0.9552 -0.3224  0.2390
15701TIP3   OH268517   1.956   0.666  13.610 -0.5340  0.2246  0.2007
15701TIP3    H168518   1.947   0.659  13.705  1.7931 -0.9349  0.4104
15701TIP3    H268519   1.866   0.667  13.577 -1.3865 -0.1259  2.3580
15702TIP3   OH268520   1.885   5.644  14.242  0.1665  0.7477  0.3677
15702TIP3    H168521   1.956   5.581  14.228 -1.5649 -1.0508 -0.7385
15702TIP3    H268522   1.917   5.725  14.200  1.2783 -0.2103 -0.7056
15703TIP3   OH268523   2.463   2.771   3.002 -0.5212 -0.5347 -0.3645
15703TIP3    H168524   2.497   2.727   2.924 -0.4677 -0.4222 -0.4058
15703TIP3    H268525   2.539   2.781   3.059 -0.9670 -2.7149  0.7305
15704TIP3   OH268526   2.681   4.115  17.021  0.0239 -0.1893 -0.4324
15704TIP3    H168527   2.712   4.056  17.090 -1.2328 -1.2616 -0.7358
15704TIP3    H268528   2.594   4.082  16.999 -0.3583  1.2602 -1.2467
15705TIP3   OH268529   6.548   2.876   5.443 -0.1056  0.2354 -0.1256
15705TIP3    H168530   6.631   2.851   5.482  0.7242  0.0891 -1.9088
15705TIP3    H268531   6.482   2.841   5.502  1.0776 -1.6502  0.1493
15706TIP3   OH268532   2.710   4.769   6.524 -0.0515  0.5585 -0.6540
15706TIP3    H168533   2.660   4.846   6.500  0.7045  0.6540 -2.0649
15706TIP3    H268534   2.651   4.716   6.577 -1.7176  0.5977 -2.3725
15707TIP3   OH268535   6.303   0.461  12.608  0.0475 -0.6366  0.9037
15707TIP3    H168536   6.325   0.377  12.568  1.2372 -0.1006  0.3527
15707TIP3    H268537   6.226   0.492  12.560 -1.2519 -2.0249  2.0407
15708TIP3   OH268538   1.918   0.892   4.740  0.4777  0.5029 -0.1476
15708TIP3    H168539   1.899   0.985   4.724 -2.0335 -0.0094 -0.6191
15708TIP3    H268540   1.887   0.877   4.829  0.8126  0.0879 -0.1006
15709TIP3   OH268541   1.790   3.657   0.860 -0.3590  0.2967 -0.2956
15709TIP3    H168542   1.797   3.641   0.954 -0.0127 -0.6582 -0.4781
15709TIP3    H268543   1.855   3.599   0.820 -1.4205 -0.2834 -1.2293
15710TIP3   OH268544   1.539   4.446   1.455 -0.2173 -0.0239  0.1702
15710TIP3    H168545   1.471   4.484   1.400 -0.2905 -1.4242 -0.7533
15710TIP3    H268546   1.534   4.496   1.537 -0.0159  2.1933 -1.0788
15711TIP3   OH268547   1.025   2.808   4.031 -0.2602 -0.4409 -0.1401
15711TIP3    H168548   1.003   2.792   4.123 -2.5790  0.9714 -0.3471
15711TIP3    H268549   1.014   2.723   3.988 -3.6370 -0.3468  0.2220
15712TIP3   OH268550   3.837   2.450   2.048 -0.5738 -0.2922  0.5574
15712TIP3    H168551   3.795   2.377   2.093 -1.2272 -0.2899 -0.0193
15712TIP3    H268552   3.839   2.422   1.956  0.2975 -0.1012  0.5180
15713TIP3   OH268553   3.585   1.879   2.430 -0.2817 -0.1176  0.0652
15713TIP3    H168554   3.518   1.939   2.397  0.4086  0.8527  0.3835
15713TIP3    H268555   3.657   1.887   2.367 -0.0839 -0.4193  0.2512
15714TIP3   OH268556   0.209   0.536  14.311  0.2648 -0.3641 -0.0214
15714TIP3    H168557   0.291   0.573  14.346  2.0395 -2.3968 -1.7291
15714TIP3    H268558   0.170   0.491  14.385  0.9690  0.1879  0.7090
15715TIP3   OH268559   4.660   0.063   4.672  0.0842 -0.2149 -0.2023
15715TIP3    H168560   4.571   0.085   4.702 -0.0941 -1.6968  0.4676
15715TIP3    H268561   4.717   0.095   4.741 -0.0519 -0.5030  0.0483
15716TIP3   OH268562   4.596   3.989  14.019  0.0053 -0.8312 -0.5407
15716TIP3    H168563   4.533   4.061  14.019 -0.6754 -1.4033 -1.4411
15716TIP3    H268564   4.659   4.011  13.951  0.7833 -0.2779  0.3341
15717TIP3   OH268565   0.872   5.879   1.595 -0.6655  0.3359 -0.2213
15717TIP3    H168566   0.805   5.947   1.596 -0.4666  0.5290  0.5055
15717TIP3    H268567   0.902   5.873   1.686 -0.2144 -0.2588 -0.4005
15718TIP3   OH268568   0.221   4.916   2.449  0.1161 -0.2514  0.5770
15718TIP3    H168569   0.281   4.857   2.402  0.0975  0.5297 -0.4761
15718TIP3    H268570   0.204   4.987   2.386 -1.5457 -0.2228  1.0280
15719TIP3   OH268571   2.534   4.488   3.640 -0.4431 -0.4138  0.4261
15719TIP3    H168572   2.572   4.434   3.571  1.0479 -0.2772  1.1186
15719TIP3    H268573   2.599   4.488   3.710  0.3077  3.3826 -0.0565
15720TIP3   OH268574   1.619   2.875   5.492  0.2280  0.3157 -0.2776
15720TIP3    H168575   1.624   2.780   5.496 -1.5360  0.2217  0.4014
15720TIP3    H268576   1.668   2.898   5.412  0.9063 -1.1085 -0.3063
15721TIP3   OH268577   4.670   1.418  12.297  0.0642 -0.2902 -0.2835
15721TIP3    H168578   4.663   1.426  12.202  1.1489 -0.5907 -0.4079
15721TIP3    H268579   4.580   1.402  12.327 -0.6664  2.1167 -0.9925
15722TIP3   OH268580   5.942   1.236  11.995  0.0594 -0.2654 -0.1707
15722TIP3    H168581   5.979   1.148  11.994 -0.9817 -0.7456 -1.7812
15722TIP3    H268582   5.900   1.243  12.081  1.5908 -0.6667  0.6526
15723TIP3   OH268583   6.041   1.121  17.019 -0.1947 -0.2700  0.0689
15723TIP3    H168584   5.995   1.086  16.943  0.7992  1.2848 -1.3353
15723TIP3    H268585   5.972   1.146  17.080 -1.1813  0.6753 -1.3594
15724TIP3   OH268586   2.551   0.574   5.831 -0.6303  0.0716 -0.5075
15724TIP3    H168587   2.523   0.563   5.740  0.2735  1.0457 -0.9142
15724TIP3    H268588   2.597   0.658   5.833 -1.6839  0.6623  1.1119
15725TIP3   OH268589   2.082   5.993  16.463  0.1653 -0.0731  0.3556
15725TIP3    H168590   2.098   5.902  16.486  1.8961  0.4733  1.5291
15725TIP3    H268591   2.167   6.036  16.475 -0.7067  1.7676  0.2601
15726TIP3   OH268592   1.487   5.158   2.581 -0.1082 -0.2512  0.0828
15726TIP3    H168593   1.413   5.147   2.640  1.4408 -1.5917  1.9129
15726TIP3    H268594   1.531   5.073   2.581  1.6168  0.5773 -0.6418
15727TIP3   OH268595   3.882   6.595  13.116 -0.0523 -0.3819  1.2659
15727TIP3    H168596   3.947   6.534  13.152  1.1253  1.1710  1.8977
15727TIP3    H268597   3.863   6.560  13.028  0.4571 -1.7213  1.6615
15728TIP3   OH268598   6.516   5.378  10.942 -0.1880 -0.4375 -0.0917
15728TIP3    H168599   6.479   5.413  10.861  0.3862  2.0955  0.6246
15728TIP3    H268600   6.595   5.331  10.915 -0.2914 -0.0669 -1.0471
15729TIP3   OH268601   4.088   6.634  13.968 -0.3158  0.2592 -0.7049
15729TIP3    H168602   4.003   6.620  13.927 -0.4983  2.0012 -1.0105
15729TIP3    H268603   4.130   6.701  13.913  1.0015 -0.1173 -0.2013
15730TIP3   OH268604   3.329   3.357   1.149 -0.6140  0.0445 -0.5481
15730TIP3    H168605   3.356   3.448   1.138  0.3115 -0.4413 -2.5402
15730TIP3    H268606   3.396   3.319   1.205 -0.6271  0.3989 -0.2850
15731TIP3   OH268607   2.053   3.686  14.225 -0.1736 -0.8932 -0.2774
15731TIP3    H168608   1.963   3.704  14.255  0.5667 -0.4073  1.8775
15731TIP3    H268609   2.068   3.749  14.156 -0.4976  1.2192  1.4597
15732TIP3   OH268610   4.454   2.319  17.156  0.1021  0.1395  0.0819
15732TIP3    H168611   4.358   2.327  17.154 -0.3108 -3.2123  0.0535
15732TIP3    H268612   4.470   2.225  17.148  3.4151  0.5122  0.8977
15733TIP3   OH268613   1.155   4.868  14.104  0.1583 -0.1212  0.0343
15733TIP3    H168614   1.181   4.792  14.053  2.4767  0.4072  0.3169
15733TIP3    H268615   1.138   4.936  14.039  0.7931 -0.1199 -0.1389
15734TIP3   OH268616   2.684   1.327   2.820  0.1504  0.0478  0.4612
15734TIP3    H168617   2.647   1.371   2.744  0.1297  0.3562  0.6487
15734TIP3    H268618   2.658   1.235   2.810  1.1308 -0.1419 -0.4996
15735TIP3   OH268619   2.027   2.794   0.664 -0.3354 -0.0607  0.2447
15735TIP3    H168620   2.087   2.839   0.724 -0.5718 -2.0790  2.1001
15735TIP3    H268621   1.941   2.833   0.683  0.0255  1.6292 -1.2255
15736TIP3   OH268622   3.069   0.081  16.163  0.2471  0.3975 -0.3777
15736TIP3    H168623   3.158   0.100  16.191 -0.4601  0.8098  1.7683
15736TIP3    H268624   3.013   0.123  16.229 -1.5028 -1.0028 -0.8757
15737TIP3   OH268625   2.005   3.050  10.759  0.4461  0.6699  0.0757
15737TIP3    H168626   1.939   3.112  10.790  1.5873  2.0815 -0.1607
15737TIP3    H268627   2.041   3.092  10.681  1.9442  0.1901  0.4756
15738TIP3   OH268628   3.452   2.110  16.701 -0.8653 -0.2771 -0.2638
15738TIP3    H168629   3.461   2.177  16.634  0.2316 -1.2440 -1.1274
15738TIP3    H268630   3.526   2.051  16.686 -0.9899 -0.9042  1.3585
15739TIP3   OH268631   2.454   1.724   6.675  0.2154  0.1943 -0.1593
15739TIP3    H168632   2.414   1.677   6.602 -0.6823 -0.2783  0.6155
15739TIP3    H268633   2.421   1.814   6.665 -1.5721 -0.3069  0.7912
15740TIP3   OH268634   4.819   6.011  15.129  0.4275  0.4724 -0.7723
15740TIP3    H168635   4.851   5.931  15.085 -1.4715 -0.4531 -0.5667
15740TIP3    H268636   4.762   6.052  15.065 -2.2348 -0.7964  0.6249
15741TIP3   OH268637   1.728   6.661   4.726  0.4039  0.7025 -0.8544
15741TIP3    H168638   1.737   6.756   4.735  2.1527  0.6211 -1.4406
15741TIP3    H268639   1.760   6.642   4.638  0.5342 -0.4804 -0.5671
15742TIP3   OH268640   5.355   2.383   1.172  0.0134 -0.0906  0.2136
15742TIP3    H168641   5.403   2.398   1.254  1.5776  2.4846 -1.0227
15742TIP3    H268642   5.266   2.411   1.192  0.4225  0.7166  1.0252
15743TIP3   OH268643   0.588   5.125  15.550 -0.2456 -0.2588  0.4171
15743TIP3    H168644   0.681   5.145  15.539  0.2468 -1.5015  1.9806
15743TIP3    H268645   0.569   5.059  15.484 -0.7444  1.8566 -1.6937
15744TIP3   OH268646   0.884   2.180   3.373 -0.8996  0.1134  0.1346
15744TIP3    H168647   0.859   2.189   3.281 -2.2540  2.0970  0.6190
15744TIP3    H268648   0.979   2.183   3.373 -0.8930  0.5365 -1.1792
15745TIP3   OH268649   6.322   2.938  12.305 -0.3804  0.3774 -0.3514
15745TIP3    H168650   6.375   2.994  12.248 -0.1864  1.1604  0.5692
15745TIP3    H268651   6.241   2.988  12.318  0.0689  0.7890  1.0277
15746TIP3   OH268652   0.577   3.894   6.496  0.4337 -0.1946  0.6793
15746TIP3    H168653   0.623   3.815   6.526  0.4061  0.7923  3.5924
15746TIP3    H268654   0.493   3.892   6.542 -1.0742 -0.1512 -1.8795
15747TIP3   OH268655   1.695   5.006  11.858  0.2214 -0.5223 -0.1351
15747TIP3    H168656   1.612   5.047  11.835  0.4060 -0.8521 -1.4947
15747TIP3    H268657   1.684   4.976  11.948 -0.1472  1.8851  0.6817
15748TIP3   OH268658   3.332   5.227  14.833 -0.8195  0.5624  0.4773
15748TIP3    H168659   3.269   5.265  14.894  0.1238 -0.7605  2.3689
15748TIP3    H268660   3.296   5.142  14.810 -2.2064  1.8057 -2.6088
15749TIP3   OH268661   4.182   6.387  15.814 -0.3189 -0.4393  0.2302
15749TIP3    H168662   4.245   6.435  15.760 -1.9177  0.1511 -1.2182
15749TIP3    H268663   4.197   6.421  15.902  1.1334 -0.0641 -0.1222
15750TIP3   OH268664   2.995   5.004   1.448 -0.2082 -0.0159  0.5396
15750TIP3    H168665   3.022   4.923   1.491 -0.1143 -0.5480 -0.5037
15750TIP3    H268666   2.935   4.976   1.379 -0.3980  0.8269  0.3510
15751TIP3   OH268667   5.126   5.989   0.250 -0.5662  0.1275  0.7389
15751TIP3    H168668   5.131   6.081   0.277  0.3076  0.5410 -0.7157
15751TIP3    H268669   5.061   5.989   0.180 -1.6575 -0.6585  1.7031
15752TIP3   OH268670   0.470   0.958   0.573  0.6660  0.6947 -0.3214
15752TIP3    H168671   0.390   0.934   0.620  1.3853  2.7585  2.1131
15752TIP3    H268672   0.524   0.879   0.575 -0.5765 -0.1830 -0.4572
15753TIP3   OH268673   2.265   4.564  14.914  0.0946  0.0426  0.1820
15753TIP3    H168674   2.359   4.560  14.896  0.0516 -0.8540  0.1103
15753TIP3    H268675   2.232   4.634  14.858  0.2131 -1.6653 -2.1825
15754TIP3   OH268676   3.347   1.430  15.227  0.6219  0.0200 -0.9277
15754TIP3    H168677   3.419   1.490  15.243 -0.2037  0.4244  1.8020
15754TIP3    H268678   3.374   1.348  15.268  0.4732 -0.5709 -1.9655
15755TIP3   OH268679   6.348   0.228  16.258 -0.0982  0.1416  0.0080
15755TIP3    H168680   6.311   0.140  16.259 -1.9948  0.8802  0.7152
15755TIP3    H268681   6.359   0.250  16.351  2.1953 -0.0278 -0.1729
15756TIP3   OH268682   5.776   6.118  16.381  0.1331  0.7708 -0.0133
15756TIP3    H168683   5.784   6.164  16.464 -2.2533  0.5130  0.4229
15756TIP3    H268684   5.760   6.187  16.316  0.7714  0.8707 -0.0692
15757TIP3   OH268685   4.982   2.521  14.401 -0.0618  0.1832 -0.4752
15757TIP3    H168686   4.960   2.434  14.434  1.8474  0.1444  0.8544
15757TIP3    H268687   5.004   2.571  14.479 -0.1501  1.5765 -1.3200
15758TIP3   OH268688   4.857   0.053   3.363 -0.1788 -0.5303 -0.1826
15758TIP3    H168689   4.928   0.060   3.426  0.0136 -0.3157 -0.4189
15758TIP3    H268690   4.875   0.122   3.298  1.3462 -2.6341 -2.1622
15759TIP3   OH268691   2.383   3.520  17.311 -0.3420 -0.6565  0.0262
15759TIP3    H168692   2.389   3.609  17.278  1.1767 -0.5068  0.6374
15759TIP3    H268693   2.307   3.522  17.370 -0.2227  0.2663  0.1649
15760TIP3   OH268694   4.177   4.853   0.233  0.2809  0.5370 -0.0662
15760TIP3    H168695   4.139   4.939   0.254 -0.5121  0.5305 -1.3617
15760TIP3    H268696   4.181   4.851   0.138 -1.3767 -1.5326 -0.1791
15761TIP3   OH268697   5.886   5.296  13.258 -0.3468  0.4536 -0.2442
15761TIP3    H168698   5.956   5.360  13.269 -0.7450  0.9345 -0.4739
15761TIP3    H268699   5.924   5.213  13.289  0.3170  0.7093 -0.3594
15762TIP3   OH268700   6.417   5.169   4.063 -0.5537  0.2385 -0.3649
15762TIP3    H168701   6.493   5.227   4.073  0.3776 -1.1011  0.7671
15762TIP3    H268702   6.355   5.198   4.129  0.2086 -0.4642  0.6883
15763TIP3   OH268703   3.147   3.676  12.646 -0.0213  0.2479  0.1059
15763TIP3    H168704   3.108   3.642  12.726 -0.4450  0.2318 -0.1049
15763TIP3    H268705   3.091   3.750  12.622  0.8075  1.0325  0.4928
15764TIP3   OH268706   2.221   6.068  15.540 -0.3964 -0.3496  0.5099
15764TIP3    H168707   2.169   6.119  15.478  1.5250  1.0549 -0.0299
15764TIP3    H268708   2.260   6.133  15.598  2.2546 -1.0942 -0.2883
15765TIP3   OH268709   6.626   5.880   3.115  0.2882  0.6622  0.8202
15765TIP3    H168710   6.644   5.803   3.169  0.3616  1.4348  1.9104
15765TIP3    H268711   6.689   5.874   3.043  1.7496  0.8416  2.0580
15766TIP3   OH268712   6.435   4.585   3.490  0.1497  0.0413 -0.6821
15766TIP3    H168713   6.437   4.677   3.517 -1.0054 -0.3192  0.7117
15766TIP3    H268714   6.344   4.569   3.466 -0.0778 -1.1902  0.8321
15767TIP3   OH268715   2.476   0.048   2.254 -0.1257 -0.4312 -0.0414
15767TIP3    H168716   2.570   0.032   2.239 -0.0551  0.0254 -0.0947
15767TIP3    H268717   2.469   0.143   2.259 -0.6627 -0.4430 -0.5066
15768TIP3   OH268718   6.465   1.609  12.945  0.4349  0.3417  0.0704
15768TIP3    H168719   6.380   1.639  12.912  0.7334  1.7682  0.5418
15768TIP3    H268720   6.525   1.681  12.927  1.4089 -0.3691  0.3747
15769TIP3   OH268721   1.194   5.150  14.735  0.2676  0.4132 -0.2582
15769TIP3    H168722   1.123   5.133  14.796 -0.5929  1.0947 -1.0277
15769TIP3    H268723   1.182   5.085  14.665  2.4434 -1.7000  1.1964
15770TIP3   OH268724   4.290   2.792  14.148  0.0911 -0.3819 -0.7878
15770TIP3    H168725   4.267   2.785  14.055 -2.4668 -0.0197 -0.2606
15770TIP3    H268726   4.254   2.713  14.188 -0.0677  0.1280  0.0969
15771TIP3   OH268727   6.670   3.166   5.192 -0.3606 -0.1784  0.5211
15771TIP3    H168728   6.754   3.131   5.223  0.2060 -0.0007 -0.7586
15771TIP3    H268729   6.689   3.199   5.104 -1.0932  2.5174  1.2946
15772TIP3   OH268730   0.541   4.066   2.535 -0.0620  0.2917 -0.3389
15772TIP3    H168731   0.612   4.031   2.482 -0.1272 -0.1548 -0.1357
15772TIP3    H268732   0.553   4.027   2.621 -0.3573  0.4726 -0.2122
15773TIP3   OH268733   1.178   5.511  14.504  0.2525 -0.3391 -0.1851
15773TIP3    H168734   1.254   5.543  14.553  0.4696 -0.6414 -0.3226
15773TIP3    H268735   1.156   5.428  14.546 -0.1099 -0.1708 -0.0376
15774TIP3   OH268736   0.423   0.719   3.114  0.2834  0.2195 -0.3345
15774TIP3    H168737   0.480   0.690   3.042 -1.3177  0.7248 -1.8848
15774TIP3    H268738   0.390   0.638   3.153 -0.8676 -0.1184 -1.9055
15775TIP3   OH268739   3.859   4.603  13.300 -0.3356 -0.5769  0.2817
15775TIP3    H168740   3.861   4.678  13.241  2.0939 -1.6589 -1.1886
15775TIP3    H268741   3.939   4.612  13.352  0.6335 -2.6623 -0.7254
15776TIP3   OH268742   0.644   5.581  14.560 -0.4722  0.3574 -0.0616
15776TIP3    H168743   0.671   5.504  14.511 -0.2218  0.8654 -0.7477
15776TIP3    H268744   0.725   5.613  14.600 -0.4755  0.5596 -0.2123
15777TIP3   OH268745   2.402   3.807  14.044 -0.5101  0.3683 -0.6844
15777TIP3    H168746   2.441   3.723  14.067 -1.6063  0.0190 -0.0049
15777TIP3    H268747   2.399   3.855  14.126  1.1726  1.5527 -1.2825
15778TIP3   OH268748   2.241   2.360   0.247  0.0206 -0.1761 -0.6607
15778TIP3    H168749   2.308   2.400   0.301 -0.3754  1.1451 -1.1049
15778TIP3    H268750   2.172   2.427   0.241 -0.8644 -1.0990 -1.0586
15779TIP3   OH268751   3.763   1.447   5.216  0.0703  0.4150  0.0612
15779TIP3    H168752   3.768   1.452   5.312  0.9915  0.9066  0.0025
15779TIP3    H268753   3.839   1.394   5.191 -0.1338  0.3378 -0.4018
15780TIP3   OH268754   6.528   2.191   5.334  0.3021  0.0340  0.3107
15780TIP3    H168755   6.548   2.098   5.343  0.8553 -0.0625 -1.4918
15780TIP3    H268756   6.585   2.221   5.264 -0.7413  1.4433  0.0167
15781TIP3   OH268757   0.222   6.744   0.966 -0.1839 -0.0467 -0.0756
15781TIP3    H168758   0.129   6.737   0.944  0.0758 -1.1671 -0.9450
15781TIP3    H268759   0.267   6.736   0.882  0.7054  0.1689  0.3711
15782TIP3   OH268760   1.736   6.279  13.827 -0.1065  0.0345  0.1563
15782TIP3    H168761   1.818   6.301  13.784 -1.3221  1.2720 -1.6992
15782TIP3    H268762   1.713   6.193  13.792  0.0620 -0.0024  0.1352
15783TIP3   OH268763   6.749   3.832   3.303 -0.4995 -0.4762  0.3442
15783TIP3    H168764   6.708   3.881   3.375 -0.0726  0.4478 -0.0213
15783TIP3    H268765   6.708   3.746   3.307 -1.3326 -0.0741  0.9662
15784TIP3   OH268766   2.557   0.439   5.167  0.6583  0.9978  0.0202
15784TIP3    H168767   2.647   0.462   5.189 -0.2207  2.7086  2.3874
15784TIP3    H268768   2.530   0.379   5.237 -0.0027  0.4371 -0.7058
15785TIP3   OH268769   2.491   0.524  13.273 -0.6505  0.1169 -0.0202
15785TIP3    H168770   2.449   0.610  13.275 -1.2496 -0.1329  3.1138
15785TIP3    H268771   2.436   0.472  13.214 -1.1147  1.4833 -0.8265
15786TIP3   OH268772   0.718   6.301   2.622  0.0381  0.3332 -0.1655
15786TIP3    H168773   0.644   6.306   2.682  0.1189  0.7720 -0.0951
15786TIP3    H268774   0.744   6.393   2.609 -0.4995  0.3270 -1.4989
15787TIP3   OH268775   4.241   0.299   2.859  0.3309  0.2373 -0.1501
15787TIP3    H168776   4.278   0.315   2.946 -0.8926  0.8761  0.2800
15787TIP3    H268777   4.310   0.254   2.812  1.2602  0.4504  0.9514
15788TIP3   OH268778   5.138   5.698   6.146  0.3050  0.1208  0.7187
15788TIP3    H168779   5.073   5.647   6.194  0.3415 -0.4202  0.2037
15788TIP3    H268780   5.171   5.761   6.210 -0.1799 -0.1025  1.1926
15789TIP3   OH268781   5.889   0.831   5.443  0.2327  0.2239 -0.0994
15789TIP3    H168782   5.933   0.913   5.421 -0.1481 -0.0068 -1.9352
15789TIP3    H268783   5.934   0.799   5.521 -0.4976  2.8203  1.5013
15790TIP3   OH268784   3.110   0.571   0.365 -0.4451  0.1211  0.0495
15790TIP3    H168785   3.147   0.630   0.299  0.2943 -0.1874  0.1813
15790TIP3    H268786   3.166   0.494   0.362 -0.1831  0.2427  1.2847
15791TIP3   OH268787   6.484   3.320  15.180 -0.0548 -0.2541 -0.1000
15791TIP3    H168788   6.566   3.279  15.207  0.7342  2.5961  2.4578
15791TIP3    H268789   6.511   3.397  15.130 -1.4644 -2.1454 -4.2439
15792TIP3   OH268790   6.529   4.866   0.750  0.3977  0.1146  0.0915
15792TIP3    H168791   6.579   4.947   0.746  1.6648 -0.6850 -0.6921
15792TIP3    H268792   6.452   4.882   0.695  0.4262  0.9146  0.2792
15793TIP3   OH268793   2.804   5.598  14.044  0.2824 -0.1816 -0.2504
15793TIP3    H168794   2.884   5.630  14.001  1.2031 -0.2770  1.3295
15793TIP3    H268795   2.769   5.533  13.982  1.4347 -0.1475 -0.9728
15794TIP3   OH268796   2.756   4.509  10.927 -0.1967 -0.1787 -0.1724
15794TIP3    H168797   2.780   4.577  10.863  0.9393 -0.3049  0.1024
15794TIP3    H268798   2.838   4.465  10.948 -0.9897 -2.0570 -0.7856
15795TIP3   OH268799   0.493   1.484  14.517 -0.0458 -0.1682  0.1518
15795TIP3    H168800   0.425   1.523  14.462 -1.8886  1.6698  3.4220
15795TIP3    H268801   0.530   1.558  14.565  1.0968 -1.7167  1.7583
15796TIP3   OH268802   2.198   2.071  16.215 -0.3634 -0.4682  0.0815
15796TIP3    H168803   2.258   2.010  16.172  0.3832 -2.1882  3.2369
15796TIP3    H268804   2.114   2.025  16.219 -0.6930  0.0805 -0.3929
15797TIP3   OH268805   3.102   2.727   0.360  0.2748  0.0700 -0.0667
15797TIP3    H168806   3.100   2.815   0.322  2.4334  1.1363  1.9909
15797TIP3    H268807   3.185   2.725   0.409  0.5545 -3.3215 -0.4755
15798TIP3   OH268808   0.041   5.125   2.309  0.3599  0.3638  0.1746
15798TIP3    H168809  -0.032   5.098   2.364  0.8219  0.5966  0.9106
15798TIP3    H268810   0.054   5.217   2.329  0.1593  0.6076 -0.7620
15799TIP3   OH268811   0.082   6.090   4.856  0.1918  0.0678  0.2814
15799TIP3    H168812   0.165   6.046   4.837 -0.3121 -1.5393  1.5870
15799TIP3    H268813   0.108   6.179   4.879  1.5075 -0.2582  0.1613
15800TIP3   OH268814   5.820   2.381  11.805  0.2062 -0.3154 -0.1496
15800TIP3    H168815   5.780   2.467  11.819 -0.8746 -0.4784 -1.8826
15800TIP3    H268816   5.829   2.344  11.893 -0.8289  0.9017  0.5111
15801TIP3   OH268817   0.055   2.776  13.422 -0.3782  0.5599 -0.1568
15801TIP3    H168818   0.012   2.759  13.505  0.2107  3.6037  0.9129
15801TIP3    H268819   0.124   2.839  13.443  2.3243 -1.3907 -2.3613
15802TIP3   OH268820   3.156   0.884   2.981  0.8100  0.3584 -0.3298
15802TIP3    H168821   3.118   0.841   2.904  0.3075  1.7225 -0.8655
15802TIP3    H268822   3.240   0.840   2.993  0.2702 -0.8570 -0.7674
15803TIP3   OH268823   4.591   0.440   6.114  0.2480  0.3126 -0.1881
15803TIP3    H168824   4.578   0.462   6.207 -0.5893  1.6999 -0.6057
15803TIP3    H268825   4.586   0.345   6.111 -0.1535  0.2734  1.1373
15804TIP3   OH268826   1.792   0.010  11.532  0.0198  0.0788  0.6269
15804TIP3    H168827   1.760  -0.037  11.608  0.2701  1.0365  1.3373
15804TIP3    H268828   1.715   0.054  11.496 -0.3632 -1.3720 -0.4551
15805TIP3   OH268829   0.512   0.339   3.526  0.9366 -0.3305 -0.4541
15805TIP3    H168830   0.513   0.430   3.554  0.0026 -0.5987  0.5037
15805TIP3    H268831   0.586   0.332   3.466  1.1107  1.0158 -0.4282
15806TIP3   OH268832   6.037   2.591   1.521 -0.3248  0.1722 -0.1784
15806TIP3    H168833   5.960   2.548   1.486  2.3678 -3.7164 -2.0360
15806TIP3    H268834   6.052   2.549   1.606 -1.5379  2.8030  1.4682
15807TIP3   OH268835   4.480   0.378   2.403 -0.2419  0.0190 -0.3322
15807TIP3    H168836   4.420   0.305   2.420  1.0780 -0.7676  1.3721
15807TIP3    H268837   4.434   0.434   2.341 -2.3007 -1.0420  0.1550
15808TIP3   OH268838   1.632   4.524  12.250  0.2904  0.2046  0.0416
15808TIP3    H168839   1.546   4.561  12.272  0.2280  0.0811  0.0115
15808TIP3    H268840   1.624   4.497  12.158  0.4610  0.4675 -0.0490
15809TIP3   OH268841   3.028   1.982   6.217  0.2016 -0.4072  0.3479
15809TIP3    H168842   3.070   2.068   6.214  0.2628 -0.4555 -0.2611
15809TIP3    H268843   3.045   1.950   6.306  1.1220 -0.2618  0.2391
15810TIP3   OH268844   6.352   6.709  11.688  0.4432  0.0592  0.1209
15810TIP3    H168845   6.442   6.695  11.719  0.2474 -0.0143  0.6814
15810TIP3    H268846   6.351   6.673  11.600  1.1678  0.7523 -0.1803
15811TIP3   OH268847   1.476   5.991  11.396 -0.2317  0.0010 -0.0179
15811TIP3    H168848   1.514   6.041  11.324 -1.7485  1.8681  0.3915
15811TIP3    H268849   1.383   6.012  11.393 -0.1276  1.7080  3.5963
15812TIP3   OH268850   3.919   5.747   4.980 -0.2151 -0.1068  0.2377
15812TIP3    H168851   3.895   5.836   4.953 -1.0322 -0.9015 -1.8553
15812TIP3    H268852   3.856   5.725   5.048 -0.8729  0.4518 -0.1753
15813TIP3   OH268853   5.225   2.931   3.307  0.2547  0.0640  0.1929
15813TIP3    H168854   5.285   2.920   3.381 -0.5852 -0.2190  0.8472
15813TIP3    H268855   5.272   2.987   3.246  1.5407 -0.8772  0.2868
15814TIP3   OH268856   0.554   5.676  13.691  0.3045  0.1174  0.1527
15814TIP3    H168857   0.548   5.766  13.722 -1.2947 -0.3993  1.5266
15814TIP3    H268858   0.596   5.628  13.763 -0.9314 -0.5968  0.4489
15815TIP3   OH268859   1.205   0.261  13.550  0.0092  0.2845 -0.1215
15815TIP3    H168860   1.220   0.334  13.491 -2.2741 -0.5029 -1.7945
15815TIP3    H268861   1.286   0.209  13.545  0.8010  1.5058 -0.5926
15816TIP3   OH268862   0.458   1.469   5.016  0.0410 -0.2491  0.4157
15816TIP3    H168863   0.509   1.478   4.936  0.3648 -1.5318  0.4517
15816TIP3    H268864   0.521   1.487   5.086  0.2790 -1.1253  0.4365
15817TIP3   OH268865   2.783   3.768   5.396 -0.4114 -0.1287  0.0354
15817TIP3    H168866   2.765   3.683   5.357 -0.8618 -0.0706  0.1116
15817TIP3    H268867   2.801   3.825   5.321 -2.1646  0.1960 -0.1810
15818TIP3   OH268868   5.636   4.587   4.028  0.0346  0.0385  0.2943
15818TIP3    H168869   5.541   4.583   4.039  0.0120  0.9063  0.5320
15818TIP3    H268870   5.656   4.518   3.965 -0.7676 -0.0920  0.1733
15819TIP3   OH268871   6.141   6.450   3.337  0.3248  0.0837  0.3545
15819TIP3    H168872   6.066   6.479   3.388 -0.5628 -0.0270 -0.8395
15819TIP3    H268873   6.203   6.416   3.402  0.0538  1.6822  1.5024
15820TIP3   OH268874   0.395   0.764  16.164  0.0914  0.3295  0.7640
15820TIP3    H168875   0.474   0.716  16.186 -0.4046 -0.6266  0.5182
15820TIP3    H268876   0.425   0.852  16.142  1.0086  0.1491  1.2833
15821TIP3   OH268877   0.955   3.858  12.335 -0.0211 -0.0589  0.1653
15821TIP3    H168878   0.941   3.774  12.379 -1.3057 -0.3763 -0.7631
15821TIP3    H268879   1.049   3.874  12.342 -0.0777 -0.4643  2.2882
15822TIP3   OH268880   1.117   2.684  12.073 -0.0789  0.1196 -0.3297
15822TIP3    H168881   1.089   2.749  12.138 -0.7413 -0.4697 -0.0092
15822TIP3    H268882   1.075   2.713  11.991  1.3700  1.2891 -0.6936
15823TIP3   OH268883   0.316   4.466  11.641  0.3474 -0.7838 -0.0984
15823TIP3    H168884   0.364   4.404  11.696  1.2101  0.4632  0.6145
15823TIP3    H268885   0.271   4.412  11.576  1.0558 -2.1387  0.5124
15824TIP3   OH268886   4.450   5.557   3.237  0.0727  0.4877  0.2760
15824TIP3    H168887   4.542   5.565   3.262  0.1765 -0.5008  0.2278
15824TIP3    H268888   4.449   5.567   3.142  0.3332 -1.0215  0.0935
15825TIP3   OH268889   2.358   1.119  11.846 -0.2172 -0.2232  0.6215
15825TIP3    H168890   2.452   1.111  11.830  0.0589 -0.2193  2.0821
15825TIP3    H268891   2.329   1.031  11.869 -0.4476 -0.1162  0.7477
15826TIP3   OH268892   6.282   4.207  15.299  0.1660  0.1583  0.0498
15826TIP3    H168893   6.338   4.148  15.249  1.2914  0.1865  1.2517
15826TIP3    H268894   6.340   4.249  15.363 -0.6061  2.5184 -0.6780
15827TIP3   OH268895   4.892   1.997  10.879 -0.0257 -0.4616 -0.4308
15827TIP3    H168896   4.799   1.987  10.896 -0.1486  1.3629  0.1941
15827TIP3    H268897   4.906   1.955  10.794 -1.9778  1.6372 -1.9049
15828TIP3   OH268898   4.968   1.009   3.743 -0.3048  0.1578 -0.5740
15828TIP3    H168899   4.991   0.953   3.817 -0.5155  0.5639 -0.1981
15828TIP3    H268900   5.024   1.086   3.752 -1.6230  1.0772  0.2518
15829TIP3   OH268901   3.488   3.581  14.185 -0.3767  0.2924  0.1859
15829TIP3    H168902   3.396   3.583  14.157  0.0279  0.4987 -1.2589
15829TIP3    H268903   3.520   3.669  14.165  0.6391 -0.3617 -1.2715
15830TIP3   OH268904   6.357   1.187   5.089  0.2061 -0.0647  0.3070
15830TIP3    H168905   6.322   1.118   5.146 -0.8891 -2.1910 -2.7027
15830TIP3    H268906   6.300   1.262   5.105 -1.0464 -1.0997  0.9041
15831TIP3   OH268907   5.341   2.237   2.499 -0.1417 -0.0670 -0.2303
15831TIP3    H168908   5.326   2.329   2.478 -1.9041 -0.0846  0.6871
15831TIP3    H268909   5.384   2.238   2.584 -1.4988 -0.0668  0.4856
15832TIP3   OH268910   1.997   0.545   3.428  0.0929  0.2457  0.4136
15832TIP3    H168911   2.086   0.579   3.430  0.4705 -0.5429 -0.9830
15832TIP3    H268912   1.977   0.537   3.334 -1.5635  0.7010  0.7040
15833TIP3   OH268913   6.131   1.848   3.324  0.1917 -0.2129  0.4159
15833TIP3    H168914   6.185   1.891   3.257  0.8542  0.4024  1.3226
15833TIP3    H268915   6.043   1.848   3.287  0.3466  1.0865 -0.0083
15834TIP3   OH268916   3.843   5.584  14.563 -0.3088  0.3245  0.2384
15834TIP3    H168917   3.749   5.592  14.579 -0.3977  0.7368 -0.4424
15834TIP3    H268918   3.879   5.669  14.591 -0.2250  0.3970 -0.0921
15835TIP3   OH268919   2.742   5.484  16.695  0.1161  0.3740 -0.6000
15835TIP3    H168920   2.706   5.498  16.783 -0.1121  0.9376 -0.7786
15835TIP3    H268921   2.784   5.398  16.700 -0.1273  0.2816 -0.0172
15836TIP3   OH268922   1.031   3.160  12.534  0.0171 -0.7745 -0.2107
15836TIP3    H168923   0.937   3.147  12.527 -0.1019  0.4264 -1.1732
15836TIP3    H268924   1.068   3.072  12.529 -1.0679 -1.3143  0.8383
15837TIP3   OH268925   1.615   2.729   4.090 -0.3755 -0.1223  0.0214
15837TIP3    H168926   1.560   2.653   4.073  0.7478 -0.5986 -1.7306
15837TIP3    H268927   1.700   2.705   4.054  0.3361  1.5189  0.5278
15838TIP3   OH268928   3.282   2.676  14.676 -0.3644  0.0318 -0.2405
15838TIP3    H168929   3.280   2.582  14.656  1.8057 -0.2769  0.8236
15838TIP3    H268930   3.344   2.685  14.748 -2.0142  2.0793  1.0521
15839TIP3   OH268931   1.475   6.288  11.483  0.0886  0.1726 -0.1166
15839TIP3    H168932   1.532   6.349  11.530  0.4869 -0.6472  0.4974
15839TIP3    H268933   1.527   6.257  11.409  0.4729 -0.5915  0.4554
15840TIP3   OH268934   2.389   4.779   1.073 -0.5357 -0.0170  0.0317
15840TIP3    H168935   2.357   4.749   0.987 -1.8276  0.9210  0.1595
15840TIP3    H268936   2.345   4.863   1.087 -2.5938 -1.3843  2.8366
15841TIP3   OH268937   1.391   6.167  12.588  0.1844 -0.1146  0.3731
15841TIP3    H168938   1.483   6.176  12.564  0.9049  1.1848  3.2240
15841TIP3    H268939   1.385   6.205  12.676 -2.8322 -1.3652  0.8289
15842TIP3   OH268940   1.666   4.347  15.480 -0.4935 -0.5134 -0.5869
15842TIP3    H168941   1.712   4.353  15.396 -1.0111  0.5090 -0.8074
15842TIP3    H268942   1.583   4.305  15.459 -0.8848  0.3026 -0.7069
15843TIP3   OH268943   1.075   2.775   2.738 -0.0753  0.3736  0.0335
15843TIP3    H168944   1.003   2.716   2.718 -0.9149  0.7509  1.7545
15843TIP3    H268945   1.040   2.863   2.722  0.3229  0.5148 -0.0795
15844TIP3   OH268946   0.122   1.957  11.631  0.4036 -0.3012 -0.2103
15844TIP3    H168947   0.154   2.000  11.551  1.8337 -0.0452  0.4551
15844TIP3    H268948   0.075   2.026  11.678  0.2064 -0.2510 -0.4778
15845TIP3   OH268949   6.613   4.698  15.771 -0.3578 -0.1133 -0.8336
15845TIP3    H168950   6.534   4.691  15.825  0.7481  0.6273  0.9648
15845TIP3    H268951   6.606   4.784  15.730  0.2499  0.6572  0.6112
15846TIP3   OH268952   3.284   3.471   0.127 -0.2922 -0.3005 -0.6698
15846TIP3    H168953   3.264   3.451   0.035  1.4229 -2.1600 -0.7288
15846TIP3    H268954   3.372   3.508   0.125  0.2655 -1.4741  0.2644
15847TIP3   OH268955   2.385   6.217   2.789  0.1145  0.5013 -0.1527
15847TIP3    H168956   2.373   6.304   2.826 -1.0547 -0.1796  1.1612
15847TIP3    H268957   2.479   6.202   2.793  0.0638  0.2595  3.2276
15848TIP3   OH268958   3.478   2.306  14.209  0.4216  0.5172  0.1280
15848TIP3    H168959   3.481   2.398  14.180  2.0202 -0.1403 -2.0315
15848TIP3    H268960   3.413   2.306  14.279  2.3489  3.8085  2.1842
15849TIP3   OH268961   3.876   1.220   3.205  0.3116  0.0272  0.6322
15849TIP3    H168962   3.867   1.166   3.126  0.5266 -0.0477  0.6593
15849TIP3    H268963   3.820   1.296   3.187  0.3956  0.0342  0.3850
15850TIP3   OH268964   3.672   3.020  16.345  0.2259  0.0527 -0.9416
15850TIP3    H168965   3.723   3.086  16.299  0.5425 -0.2379 -1.0133
15850TIP3    H268966   3.596   3.003  16.289 -0.5975  1.3571 -0.2841
15851TIP3   OH268967   6.055   0.697  15.787  0.0263  0.0358 -0.1902
15851TIP3    H168968   6.118   0.652  15.842 -0.0590  1.4834  1.1569
15851TIP3    H268969   6.065   0.656  15.701  2.8421  0.2501 -0.0499
15852TIP3   OH268970   0.602   4.154  13.180  0.1998 -0.1928 -0.4722
15852TIP3    H168971   0.552   4.226  13.141 -2.2253 -0.2885  2.1099
15852TIP3    H268972   0.648   4.114  13.106 -1.6833  1.4194 -2.6822
15853TIP3   OH268973   0.755   4.420   1.631  0.4264 -0.7703 -0.0231
15853TIP3    H168974   0.765   4.513   1.610  0.3744 -0.6026  0.6941
15853TIP3    H268975   0.788   4.375   1.553  0.8139 -0.1590 -0.2200
15854TIP3   OH268976   0.225   1.315   4.768  0.4781 -1.0271  0.3823
15854TIP3    H168977   0.172   1.238   4.746  1.2405 -1.5491  0.3320
15854TIP3    H268978   0.308   1.279   4.798  1.2013 -0.1979 -0.5511
15855TIP3   OH268979   6.660   6.212  14.344 -0.2133 -0.0285 -0.0709
15855TIP3    H168980   6.688   6.165  14.266  1.7596 -0.7571  0.9868
15855TIP3    H268981   6.682   6.303  14.326  0.3573 -0.2121 -0.3276
15856TIP3   OH268982   0.068   2.867   2.586 -0.2812 -0.1980 -0.1620
15856TIP3    H168983   0.080   2.795   2.647  1.3501  0.1058 -0.0675
15856TIP3    H268984   0.123   2.938   2.621 -0.9016  0.6780 -0.8959
15857TIP3   OH268985   0.219   0.764  13.102 -0.2478  0.0462 -0.3077
15857TIP3    H168986   0.191   0.761  13.010  1.1192 -2.1296 -0.7344
15857TIP3    H268987   0.144   0.801  13.149 -0.7915  1.7197 -2.3191
15858TIP3   OH268988   6.488   5.256   2.131 -0.0652  0.1769  0.1886
15858TIP3    H168989   6.483   5.262   2.227 -1.4047 -5.0102  0.7074
15858TIP3    H268990   6.580   5.273   2.111  0.9524 -1.5587  2.8215
15859TIP3   OH268991   4.057   6.448   3.475 -0.7229 -0.1016  0.5568
15859TIP3    H168992   4.012   6.490   3.401 -0.8927 -1.6423 -0.2408
15859TIP3    H268993   3.991   6.444   3.543 -1.2925 -0.7871 -0.0210
15860TIP3   OH268994   0.011   4.715   2.822  0.2192 -0.0037  0.1355
15860TIP3    H168995  -0.024   4.802   2.841  1.8814  0.7208  0.0554
15860TIP3    H268996   0.063   4.693   2.900  0.9601 -0.2929 -0.4347
15861TIP3   OH268997   6.267   1.105   6.377  0.3735  0.0695  0.0427
15861TIP3    H168998   6.296   1.091   6.287  0.3988 -0.7276  0.1694
15861TIP3    H268999   6.327   1.052   6.430 -0.2512 -0.2458  0.4444
15862TIP3   OH269000   3.045   0.466  15.945 -0.4995 -0.6991  0.1908
15862TIP3    H169001   3.131   0.483  15.906  0.2191 -0.2213  1.9201
15862TIP3    H269002   3.003   0.407  15.883  0.4476  0.2889 -1.4833
15863TIP3   OH269003   3.391   2.899   4.812 -0.2609  0.3709  0.4377
15863TIP3    H169004   3.459   2.858   4.866 -0.2576  2.1912  1.8998
15863TIP3    H269005   3.312   2.849   4.832 -0.0496  0.4076  1.3928
15864TIP3   OH269006   6.445   3.782   5.045 -0.8242  0.4029 -0.1030
15864TIP3    H169007   6.373   3.843   5.057 -0.6836  0.5762 -0.1347
15864TIP3    H269008   6.517   3.818   5.096 -0.5489  0.5964 -0.6127
15865TIP3   OH269009   4.555   5.372  10.905  0.2479 -0.0745 -0.5497
15865TIP3    H169010   4.525   5.334  10.823 -2.2695  1.8007 -0.6036
15865TIP3    H269011   4.600   5.453  10.879  0.9823 -0.3448 -0.1537
15866TIP3   OH269012   2.686   4.466   4.631 -0.2629 -0.0735 -0.1422
15866TIP3    H169013   2.707   4.452   4.724  3.4336 -0.6349 -0.8845
15866TIP3    H269014   2.659   4.380   4.600 -1.0666  0.0157  0.2660
15867TIP3   OH269015   1.549   1.913  15.836 -0.1651  0.3124 -0.0779
15867TIP3    H169016   1.533   1.987  15.777  1.5613 -0.7847 -2.0798
15867TIP3    H269017   1.609   1.947  15.902 -3.5894  2.0994  2.4146
15868TIP3   OH269018   4.593   1.145   0.992 -0.4936 -0.1032  0.2578
15868TIP3    H169019   4.575   1.126   0.900 -2.1030 -1.3392  0.7788
15868TIP3    H269020   4.579   1.062   1.038  0.6512  0.3829  1.5965
15869TIP3   OH269021   1.778   3.735  16.674  0.0589 -0.1917 -0.0845
15869TIP3    H169022   1.784   3.796  16.600 -1.1352  0.2441  0.1632
15869TIP3    H269023   1.686   3.709  16.677 -0.3519  1.1828  2.3084
15870TIP3   OH269024   3.362   4.777  13.191 -0.1075 -0.1553  0.3271
15870TIP3    H169025   3.457   4.786  13.183 -0.2883  1.5852 -0.4685
15870TIP3    H269026   3.346   4.683  13.187  1.4917 -0.4280 -0.7227
15871TIP3   OH269027   0.937   0.301   1.652 -0.0879 -0.5280 -0.2874
15871TIP3    H169028   0.860   0.279   1.599 -1.0247  0.5285  0.5755
15871TIP3    H269029   0.957   0.220   1.699 -1.7008 -0.4199  0.6911
15872TIP3   OH269030   2.131   0.902  14.870 -0.2342 -0.0517 -0.6344
15872TIP3    H169031   2.058   0.923  14.928 -0.2036  0.5806 -0.8119
15872TIP3    H269032   2.139   0.978  14.812 -2.1771 -1.8157 -3.4798
15873TIP3   OH269033   4.006   6.706   2.430 -0.2084  0.7526  0.1015
15873TIP3    H169034   3.974   6.654   2.504 -1.0696  2.0611  0.6757
15873TIP3    H269035   4.078   6.758   2.466 -0.0912  0.7963 -0.1911
15874TIP3   OH269036   6.390   4.365   3.932 -0.3853 -0.2441 -0.4506
15874TIP3    H169037   6.346   4.287   3.897 -0.4252 -0.3621 -0.1446
15874TIP3    H269038   6.392   4.350   4.027 -3.1178  1.4818 -0.0052
15875TIP3   OH269039   3.384   5.356   5.964  0.4612  0.8070 -0.9923
15875TIP3    H169040   3.290   5.353   5.981  0.7351 -1.4778  0.4600
15875TIP3    H269041   3.390   5.377   5.871 -1.5023  0.1266 -1.3281
15876TIP3   OH269042   0.437   6.333  10.590 -0.0582  0.8075 -0.4344
15876TIP3    H169043   0.431   6.383  10.672  0.5377 -1.5440  1.1419
15876TIP3    H269044   0.524   6.355  10.555  0.5217  0.2998  0.6477
15877TIP3   OH269045   4.241   1.422   1.704 -0.3859 -0.4526  0.4065
15877TIP3    H169046   4.208   1.398   1.791  1.7749  0.9097  1.7215
15877TIP3    H269047   4.218   1.515   1.695  0.9977 -0.0916  0.3795
15878TIP3   OH269048   0.080   2.380  15.718 -0.1080 -0.0540 -0.4284
15878TIP3    H169049   0.166   2.345  15.697  0.6666 -1.0317  3.5787
15878TIP3    H269050   0.019   2.310  15.696  0.3759 -0.3090 -0.9730
15879TIP3   OH269051   3.879   1.446  16.562  0.0536 -0.0916 -0.1253
15879TIP3    H169052   3.969   1.478  16.554 -0.2240  0.2787 -2.8346
15879TIP3    H269053   3.888   1.361  16.605  1.4382  0.8368  1.5338
15880TIP3   OH269054   6.291   5.829   1.326 -0.3773 -0.7610 -0.0162
15880TIP3    H169055   6.337   5.860   1.248  0.1044 -1.1716  0.1032
15880TIP3    H269056   6.249   5.907   1.361  1.5399 -0.0366  0.7739
15881TIP3   OH269057   2.025   2.303   2.645  0.0725 -0.3283 -0.2186
15881TIP3    H169058   2.118   2.282   2.632  0.3942  0.6269  0.4646
15881TIP3    H269059   2.004   2.365   2.575 -0.3692 -1.3921 -1.0610
15882TIP3   OH269060   0.842   0.571   2.091  0.2205 -0.2724  0.4317
15882TIP3    H169061   0.880   0.516   2.023  1.9597 -0.0130  1.1444
15882TIP3    H269062   0.754   0.591   2.059  0.7767 -0.6353 -1.4483
15883TIP3   OH269063   3.890   1.638   4.996  0.2665  0.4070 -0.5835
15883TIP3    H169064   3.845   1.569   5.045  0.1102  1.0486  0.2056
15883TIP3    H269065   3.925   1.696   5.064 -1.0653  2.0309 -1.2150
15884TIP3   OH269066   1.739   5.732  13.717 -0.3800  0.1540 -0.2163
15884TIP3    H169067   1.781   5.800  13.770 -1.1776  1.6446 -1.4228
15884TIP3    H269068   1.767   5.650  13.757  0.9643  1.1700  1.0344
15885TIP3   OH269069   3.280   4.963   3.491  0.6072  0.5555 -0.4313
15885TIP3    H169070   3.324   5.010   3.421 -0.6620  1.6278 -0.5508
15885TIP3    H269071   3.211   4.913   3.446 -0.5891  1.7032  0.0724
15886TIP3   OH269072   3.805   6.012  16.232  0.1359  0.1890  0.1311
15886TIP3    H169073   3.826   6.104  16.217 -2.0461  0.4606 -1.8717
15886TIP3    H269074   3.858   5.964  16.168  0.1135  0.1905  0.1113
15887TIP3   OH269075   5.064   4.149   3.256  0.2174  0.2418  0.0538
15887TIP3    H169076   5.017   4.109   3.183 -0.4841  0.5357  0.3342
15887TIP3    H269077   5.156   4.148   3.229 -0.1321  1.3137 -1.2967
15888TIP3   OH269078   5.661   3.652   6.459 -0.2752  0.4031 -0.1080
15888TIP3    H169079   5.590   3.631   6.520 -1.9156  0.1369 -2.0032
15888TIP3    H269080   5.660   3.747   6.453  0.2196  0.4619  0.6235
15889TIP3   OH269081   0.697   5.355  13.430  0.3411  0.6034  0.1203
15889TIP3    H169082   0.716   5.284  13.492  0.2888 -1.1156 -1.7152
15889TIP3    H269083   0.756   5.426  13.455  1.1524 -0.4731  1.3906
15890TIP3   OH269084   1.369   6.562  15.415  0.5334  0.3473  0.3863
15890TIP3    H169085   1.313   6.485  15.406  2.0075 -0.5320 -3.3049
15890TIP3    H269086   1.415   6.550  15.498 -0.4792 -1.8766  0.7016
15891TIP3   OH269087   6.647   6.235   1.933  0.7424 -0.0327  0.0827
15891TIP3    H169088   6.611   6.243   1.844  0.0800  0.9648  0.4260
15891TIP3    H269089   6.570   6.232   1.990  1.1535  2.0921  0.8350
15892TIP3   OH269090   0.695   0.473   5.322 -0.4100 -0.3187 -0.6761
15892TIP3    H169091   0.705   0.535   5.249 -0.3077  0.0124 -0.3842
15892TIP3    H269092   0.756   0.504   5.389  0.1263 -1.1259 -0.7748
15893TIP3   OH269093   2.639   0.050  10.944 -0.3103 -0.5616  0.4090
15893TIP3    H169094   2.723   0.095  10.938 -0.4422 -0.0323  1.9076
15893TIP3    H269095   2.602   0.054  10.856  0.5540  0.5466  0.0816
15894TIP3   OH269096   5.572   2.011   1.406  0.2598 -0.0623  0.2743
15894TIP3    H169097   5.650   1.963   1.433  0.3313 -1.4058 -2.0573
15894TIP3    H269098   5.593   2.045   1.319 -2.3308 -2.2155 -1.3786
15895TIP3   OH269099   3.012   3.238   1.724 -0.0828 -0.2931  0.1229
15895TIP3    H169100   3.042   3.176   1.658  0.3974 -0.4887  0.5106
15895TIP3    H269101   3.039   3.323   1.691  0.5634 -0.4302  0.2716
15896TIP3   OH269102   1.489   3.446  11.848 -0.3955 -0.5118  0.2136
15896TIP3    H169103   1.517   3.458  11.757  2.2097 -0.2347  0.9759
15896TIP3    H269104   1.491   3.351  11.860  0.3269 -0.4918  0.2788
15897TIP3   OH269105   5.811   5.489  16.208 -0.5617  0.1928  0.3763
15897TIP3    H169106   5.865   5.474  16.285 -1.2905  0.6796  0.9867
15897TIP3    H269107   5.724   5.456  16.232 -0.7152  0.0571 -0.3465
15898TIP3   OH269108   0.314   4.347   5.417 -0.0305 -0.0252 -0.3010
15898TIP3    H169109   0.373   4.317   5.486 -0.1650 -0.2033 -0.2618
15898TIP3    H269110   0.344   4.302   5.338 -1.4057 -1.7880  0.1186
15899TIP3   OH269111   1.834   3.448  16.195 -0.5331 -0.4629  0.0958
15899TIP3    H169112   1.742   3.473  16.196 -0.3075  0.4787 -1.0231
15899TIP3    H269113   1.837   3.366  16.246 -1.4173  1.2480  3.1417
15900TIP3   OH269114   0.204   0.243  14.467 -0.2623 -0.3730  0.4999
15900TIP3    H169115   0.176   0.154  14.445 -1.2941 -0.1226  0.7287
15900TIP3    H269116   0.216   0.241  14.562 -1.2516 -0.0292  0.6455
15901TIP3   OH269117   2.442   5.283  15.577  0.0496  0.3546 -0.1533
15901TIP3    H169118   2.435   5.250  15.488  2.0491  2.5288 -1.2095
15901TIP3    H269119   2.362   5.335  15.590  0.3912  1.1836 -1.2331
15902TIP3   OH269120   0.878   6.504  17.086  0.0175 -0.0921  0.4197
15902TIP3    H169121   0.813   6.497  17.016 -0.4650  0.7711  0.7667
15902TIP3    H269122   0.958   6.533  17.042 -0.2080  0.1679  0.1777
15903TIP3   OH269123   5.100   3.310   0.469  0.3220 -0.0349 -0.3926
15903TIP3    H169124   5.143   3.393   0.448 -0.3241  0.3221 -0.3344
15903TIP3    H269125   5.130   3.289   0.557 -0.2570  0.6374 -0.0214
15904TIP3   OH269126   2.245   1.780  13.144 -0.3755  0.2720  0.7515
15904TIP3    H169127   2.178   1.836  13.182 -0.5054 -0.8211  2.2233
15904TIP3    H269128   2.199   1.699  13.122 -0.1469  0.6039 -1.1203
15905TIP3   OH269129   5.950   0.303  15.857  0.4041 -0.1609 -0.6503
15905TIP3    H169130   5.923   0.212  15.845 -0.5917 -0.4672  2.6912
15905TIP3    H269131   6.036   0.297  15.898  0.3144  0.3792 -0.3772
15906TIP3   OH269132   0.961   2.793   1.157 -0.3167  0.5140 -0.1784
15906TIP3    H169133   0.982   2.886   1.159 -0.0197  0.4495 -0.2384
15906TIP3    H269134   1.027   2.755   1.098 -0.8643  0.3740 -0.7090
15907TIP3   OH269135   5.314   3.413  11.115 -0.1176  0.0976 -0.0272
15907TIP3    H169136   5.386   3.359  11.147  0.2054  1.7591  2.3163
15907TIP3    H269137   5.247   3.350  11.089  1.0494 -1.4565  0.5294
15908TIP3   OH269138   6.743   6.121  14.078 -0.4012  0.3115 -0.3650
15908TIP3    H169139   6.703   6.058  14.018  0.4854 -0.0750 -0.5668
15908TIP3    H269140   6.751   6.202  14.028 -0.0465  0.1100 -0.6337
15909TIP3   OH269141   6.100   6.602   0.742 -0.0238 -0.1000 -0.1091
15909TIP3    H169142   6.164   6.663   0.706  0.3709 -0.4408  0.0185
15909TIP3    H269143   6.137   6.516   0.725 -1.5612 -0.4191 -2.2402
15910TIP3   OH269144   5.624   2.291   3.992  0.3064 -0.0302  0.1725
15910TIP3    H169145   5.613   2.224   3.925 -2.2601  0.1983  0.2529
15910TIP3    H269146   5.581   2.255   4.069  0.7749  0.8381  0.8486
15911TIP3   OH269147   3.966   4.624  16.780 -0.0318  0.0427 -0.3577
15911TIP3    H169148   4.059   4.617  16.798 -0.0900 -0.7030 -0.3276
15911TIP3    H269149   3.959   4.687  16.709  0.5994 -0.9048 -1.2763
15912TIP3   OH269150   2.115   2.762  14.473 -0.2254  0.1555  0.1657
15912TIP3    H169151   2.102   2.751  14.379  0.1258  0.4339  0.0832
15912TIP3    H269152   2.159   2.846  14.482  2.1773 -1.0423  0.3540
15913TIP3   OH269153   5.129   5.891   5.067 -0.1911 -0.3579 -0.8210
15913TIP3    H169154   5.095   5.809   5.031 -0.6886 -0.8571  0.7072
15913TIP3    H269155   5.224   5.881   5.062 -0.2352 -1.2742 -0.1675
15914TIP3   OH269156   3.307   0.047   1.371 -0.0352 -0.4423  0.1720
15914TIP3    H169157   3.263   0.126   1.402  0.7873 -0.2772  0.9887
15914TIP3    H269158   3.316  -0.007   1.450 -0.2178 -1.1724 -0.3004
15915TIP3   OH269159   5.003   5.318  12.300 -0.1563  0.1195 -0.0799
15915TIP3    H169160   4.935   5.291  12.362  0.2761 -0.3348  0.2028
15915TIP3    H269161   4.963   5.389  12.250 -0.3192  0.9182  1.1293
15916TIP3   OH269162   4.355   0.379   5.179  0.1187  0.1242 -0.3524
15916TIP3    H169163   4.343   0.465   5.140  0.3162  0.0404 -0.6024
15916TIP3    H269164   4.449   0.373   5.196  0.0128  0.2297  0.3082
15917TIP3   OH269165   0.419   3.876   5.637  0.0363 -0.4384 -0.2274
15917TIP3    H169166   0.347   3.839   5.586 -0.5564  0.5107 -0.1253
15917TIP3    H269167   0.383   3.958   5.672  0.2283 -1.2828  2.1469
15918TIP3   OH269168   4.914   3.699   0.002  0.1813 -0.2038 -0.6032
15918TIP3    H169169   4.892   3.745   0.083 -0.1025  0.0420 -0.8215
15918TIP3    H269170   4.910   3.765  -0.066 -0.0075 -0.5014 -0.8842
15919TIP3   OH269171   5.359   5.677   4.158  0.0793 -0.0846  0.8194
15919TIP3    H169172   5.409   5.755   4.181  0.5315  0.3310 -1.3339
15919TIP3    H269173   5.425   5.609   4.144 -0.2836 -0.7569  2.2266
15920TIP3   OH269174   4.988   3.483  16.816 -0.5298  0.6923 -0.8619
15920TIP3    H169175   4.997   3.435  16.898 -1.4341  0.7404 -0.7311
15920TIP3    H269176   5.024   3.423  16.750 -2.6814 -0.6955 -0.8609
15921TIP3   OH269177   4.431   0.145   1.695 -0.2846 -0.3098 -0.5245
15921TIP3    H169178   4.478   0.142   1.778 -0.3092  0.1763 -0.4893
15921TIP3    H269179   4.363   0.078   1.703  0.2934 -0.8986 -0.5104
15922TIP3   OH269180   4.354   2.044   5.486 -0.2414 -0.2330  0.7735
15922TIP3    H169181   4.310   1.961   5.470  0.5116 -0.5332  0.2118
15922TIP3    H269182   4.447   2.025   5.477 -0.0836  0.8049 -0.0759
15923TIP3   OH269183   1.849   4.500  17.317 -0.3086  0.4043  0.2168
15923TIP3    H169184   1.852   4.523  17.224  1.7954 -0.6511 -0.0401
15923TIP3    H269185   1.905   4.564  17.360 -1.0110  0.6887  0.7264
15924TIP3   OH269186   1.809   2.127   6.821 -0.5787 -0.8771  0.8031
15924TIP3    H169187   1.903   2.114   6.819 -0.6438 -1.3418 -1.5398
15924TIP3    H269188   1.793   2.200   6.762 -1.7525 -1.4757  0.3400
15925TIP3   OH269189   2.766   0.562   3.618  0.3308 -0.1124  0.5123
15925TIP3    H169190   2.721   0.536   3.698  0.0677 -0.5606  0.2241
15925TIP3    H269191   2.857   0.534   3.631  0.2223 -0.4545  0.5307
15926TIP3   OH269192   4.455   2.979  16.661 -0.2150 -0.3679  0.1307
15926TIP3    H169193   4.512   2.985  16.585  0.0790 -0.4057  0.3459
15926TIP3    H269194   4.513   2.950  16.732 -0.0332  1.5148  0.8281
15927TIP3   OH269195   1.490   4.789  16.240  0.0151  0.1694 -0.1502
15927TIP3    H169196   1.467   4.756  16.327 -2.1168  3.1727  0.5760
15927TIP3    H269197   1.424   4.750  16.182  1.0283 -1.2873 -0.3978
15928TIP3   OH269198   5.355   6.277   2.175 -0.2142  0.0506 -0.1870
15928TIP3    H169199   5.312   6.206   2.222  0.1810 -0.1559 -0.1351
15928TIP3    H269200   5.434   6.297   2.226 -0.5860  0.8792  0.0806
15929TIP3   OH269201   5.481   5.747   2.985  0.0562 -0.4862 -0.2526
15929TIP3    H169202   5.489   5.701   2.901 -1.0835 -1.2220  0.0155
15929TIP3    H269203   5.561   5.726   3.032  0.8408  0.1767 -1.2721
15930TIP3   OH269204   1.483   2.950   0.532 -0.3227  0.0150 -0.3037
15930TIP3    H169205   1.509   2.874   0.584  0.9612  0.2416 -0.5864
15930TIP3    H269206   1.481   3.023   0.595  2.6519  0.5932 -0.7308
15931TIP3   OH269207   5.902   2.477   2.556  0.3185  0.0076 -0.0686
15931TIP3    H169208   5.893   2.549   2.493 -1.9202  0.1222  0.3050
15931TIP3    H269209   5.891   2.519   2.642 -0.1947 -0.6357  0.1939
15932TIP3   OH269210   6.335   2.030  11.370  0.2566  0.1284  0.2218
15932TIP3    H169211   6.311   2.081  11.448 -2.5928 -0.2483 -0.2783
15932TIP3    H269212   6.385   2.091  11.316 -0.0759  1.2768  1.1660
15933TIP3   OH269213   4.194   3.063  16.433 -0.1192 -0.7027 -0.1447
15933TIP3    H169214   4.200   2.967  16.429 -0.2899 -0.7401  0.3794
15933TIP3    H269215   4.157   3.088  16.348 -0.6185 -1.1551 -0.0728
15934TIP3   OH269216   4.933   4.242  16.074 -0.2777 -0.7347  0.1829
15934TIP3    H169217   4.889   4.326  16.057 -1.2350 -1.3317 -0.3506
15934TIP3    H269218   4.992   4.231  16.000 -0.4462 -0.7187  0.0447
15935TIP3   OH269219   4.014   2.515  15.287  0.4579  0.0116 -0.2238
15935TIP3    H169220   4.031   2.607  15.308 -1.2894  0.4919 -0.7305
15935TIP3    H269221   3.921   2.512  15.265  0.3053 -2.0170  0.4483
15936TIP3   OH269222   5.203   0.742  12.639  0.0869 -0.0288  0.1297
15936TIP3    H169223   5.276   0.758  12.698  0.1207  2.6209 -0.5370
15936TIP3    H269224   5.141   0.691  12.692  0.3539  1.7472  2.3085
15937TIP3   OH269225   1.860   4.014   5.402 -0.0508 -0.3761  0.1411
15937TIP3    H169226   1.887   4.064   5.479  0.4503 -1.4594  0.6911
15937TIP3    H269227   1.877   4.072   5.328  0.3521  0.3264  0.7707
15938TIP3   OH269228   1.066   5.232  11.203  0.2808 -0.1675  0.3421
15938TIP3    H169229   1.100   5.318  11.226 -2.2415  1.3032 -0.9962
15938TIP3    H269230   1.075   5.226  11.108  1.2327 -1.8182  0.4853
15939TIP3   OH269231   5.081   5.721  16.418  0.3424  0.2374  0.0102
15939TIP3    H169232   5.070   5.797  16.360 -0.4722 -2.1846 -3.3259
15939TIP3    H269233   5.001   5.670  16.406  1.1553 -1.4929  1.5877
15940TIP3   OH269234   5.453   4.477  13.198  0.5078  0.2613 -0.2686
15940TIP3    H169235   5.455   4.524  13.115  0.7962 -1.5368 -1.3194
15940TIP3    H269236   5.531   4.423  13.197  0.6050  0.3199  1.2732
15941TIP3   OH269237   3.352   5.593   2.313 -0.2589  0.3790  0.3413
15941TIP3    H169238   3.443   5.606   2.287  0.0883 -2.5637 -0.3484
15941TIP3    H269239   3.302   5.605   2.232 -0.2138 -0.0680  0.2427
15942TIP3   OH269240   4.550   5.652   5.000 -0.0495  0.2419  0.2169
15942TIP3    H169241   4.639   5.656   4.966 -0.3050  0.1397 -0.4854
15942TIP3    H269242   4.511   5.577   4.954  0.0467 -0.8675  1.8448
15943TIP3   OH269243   0.046   6.310  11.684 -0.1932 -0.1742  0.3011
15943TIP3    H169244  -0.015   6.255  11.634 -0.2877  0.5504 -0.4046
15943TIP3    H269245   0.106   6.248  11.725  0.9938 -0.7777 -2.1458
15944TIP3   OH269246   3.377   0.989  16.088  0.0569  0.3431 -0.0518
15944TIP3    H169247   3.427   1.051  16.141  0.8808  0.2321 -0.6724
15944TIP3    H269248   3.289   0.992  16.124  0.2943  1.2296  0.4875
15945TIP3   OH269249   4.248   1.363   5.210 -0.8064 -0.1434 -0.1905
15945TIP3    H169250   4.327   1.400   5.249 -1.7027 -0.2664  1.8768
15945TIP3    H269251   4.262   1.268   5.212  0.3020 -0.1321 -2.8831
15946TIP3   OH269252   1.427   1.074  17.206 -0.0517 -0.6444 -0.7190
15946TIP3    H169253   1.420   0.997  17.262 -2.5352 -0.2469 -0.3774
15946TIP3    H269254   1.516   1.070  17.171  0.5293 -2.5837  0.8074
15947TIP3   OH269255   2.125   1.989   3.114  0.4769 -0.1400  0.1163
15947TIP3    H169256   2.152   1.988   3.206  0.7501  3.3370  0.1839
15947TIP3    H269257   2.203   2.015   3.066 -0.1830  0.0323 -0.8884
15948TIP3   OH269258   3.316   5.277  11.491  0.0244 -1.0399  0.4128
15948TIP3    H169259   3.253   5.272  11.563  0.9184 -2.0578  1.1501
15948TIP3    H269260   3.396   5.239  11.527  0.1894 -2.5651 -1.4604
15949TIP3   OH269261   2.798   1.202  14.217  0.1136 -0.2819 -0.7183
15949TIP3    H169262   2.778   1.108  14.219 -1.2340 -0.0153 -0.9803
15949TIP3    H269263   2.713   1.245  14.221  0.7348  0.9516 -0.1650
15950TIP3   OH269264   2.577   4.891  13.499 -0.5367 -0.1192 -0.5829
15950TIP3    H169265   2.536   4.970  13.535 -0.3361 -0.6476  0.8806
15950TIP3    H269266   2.506   4.845  13.455 -0.4879  1.2611 -2.2435
15951TIP3   OH269267   2.893   6.040   1.472 -0.4597 -0.3566  0.4762
15951TIP3    H169268   2.874   6.121   1.424  1.6555  0.4707  0.9096
15951TIP3    H269269   2.880   6.062   1.564 -1.1595 -0.9109  0.5152
15952TIP3   OH269270   3.288   0.910   4.866 -0.5681 -0.4930  0.3440
15952TIP3    H169271   3.322   0.974   4.803 -0.6146 -1.0313 -0.2422
15952TIP3    H269272   3.356   0.904   4.933 -1.8381  2.3897  2.0563
15953TIP3   OH269273   0.954   0.196  11.055  0.0452 -0.2201  0.0626
15953TIP3    H169274   1.003   0.270  11.018 -0.3912  0.7514  1.3704
15953TIP3    H269275   0.943   0.137  10.981  2.4442 -0.1029 -0.4820
15954TIP3   OH269276   0.006   1.889   0.693  0.6225 -0.0307  0.1954
15954TIP3    H169277   0.058   1.865   0.616  0.0811 -0.1032 -0.1514
15954TIP3    H269278  -0.052   1.815   0.707 -0.4393  0.6705 -0.3426
15955TIP3   OH269279   4.778   3.029  12.531 -0.5827 -0.9393  0.2525
15955TIP3    H169280   4.745   3.007  12.617 -1.8667 -0.2316 -0.0338
15955TIP3    H269281   4.725   2.977  12.470 -0.2772 -0.7929 -0.1477
15956TIP3   OH269282   0.355   6.492   3.418  0.3675  0.1918 -0.7240
15956TIP3    H169283   0.359   6.458   3.507 -1.3460  0.3548 -0.5447
15956TIP3    H269284   0.265   6.474   3.389  0.0807  2.4677 -1.4522
15957TIP3   OH269285   0.888   1.474   1.530  0.0231  0.3224  0.0115
15957TIP3    H169286   0.819   1.535   1.505 -2.0375 -1.4298  1.0455
15957TIP3    H269287   0.905   1.423   1.451  0.5689  1.1514 -0.4090
15958TIP3   OH269288   2.925   2.812  15.633 -0.2140 -0.2409  0.1458
15958TIP3    H169289   2.852   2.752  15.613 -0.4795  0.1679 -0.1200
15958TIP3    H269290   2.992   2.755  15.670 -0.0260 -0.9026 -1.1379
15959TIP3   OH269291   6.374   6.201  15.788  0.5475  0.0867  0.3456
15959TIP3    H169292   6.373   6.113  15.826 -0.7542  0.6207  1.6140
15959TIP3    H269293   6.285   6.215  15.756  0.2393  1.5596  1.7056
15960TIP3   OH269294   0.535   4.955  15.324 -0.2721 -0.1555  0.1244
15960TIP3    H169295   0.549   4.860  15.326 -1.0702 -0.4646 -3.4184
15960TIP3    H269296   0.447   4.967  15.289 -0.4965  1.9585  1.1947
15961TIP3   OH269297   4.529   0.887   3.221  0.6275 -0.4247 -0.2996
15961TIP3    H169298   4.451   0.835   3.203 -0.2761  0.7092  0.1907
15961TIP3    H269299   4.601   0.836   3.185 -0.2003 -2.0415  0.2317
15962TIP3   OH269300   0.076   1.173   3.201  0.3039  0.4230 -0.7740
15962TIP3    H169301   0.086   1.161   3.107 -0.7265 -3.1375 -0.5604
15962TIP3    H269302   0.146   1.120   3.239  0.1156  1.0498  0.4820
15963TIP3   OH269303   1.543   3.495  11.592 -0.7800 -0.2035 -0.3780
15963TIP3    H169304   1.614   3.542  11.548  0.1156 -1.4007 -0.2534
15963TIP3    H269305   1.466   3.513  11.538 -0.2838  0.6884 -0.8091
15964TIP3   OH269306   6.261   2.787  17.265  0.5368  0.4219 -0.2866
15964TIP3    H169307   6.326   2.857  17.263 -1.6797  2.6735  0.8599
15964TIP3    H269308   6.246   2.769  17.357 -1.5322  1.0906 -0.4424
15965TIP3   OH269309   5.945   2.896   6.876 -0.7494 -0.0474  0.1023
15965TIP3    H169310   6.013   2.956   6.844 -1.5987  1.7926  1.5263
15965TIP3    H269311   5.894   2.873   6.799  1.5713 -1.6852 -1.0627
15966TIP3   OH269312   3.222   6.701   2.551 -0.2437  0.0572 -0.3144
15966TIP3    H169313   3.240   6.630   2.613 -1.9344  1.1372  1.5165
15966TIP3    H269314   3.144   6.744   2.585  1.4774  3.7233 -0.4492
15967TIP3   OH269315   5.662   5.285  12.264 -0.2567  0.2925 -0.3332
15967TIP3    H169316   5.678   5.248  12.351 -0.2123 -1.0954 -0.9197
15967TIP3    H269317   5.653   5.210  12.207 -2.9817  1.0838 -1.0947
15968TIP3   OH269318   4.861   6.192   5.898 -0.3043 -0.2495 -0.1163
15968TIP3    H169319   4.928   6.179   5.965  0.9045  2.0068 -0.7989
15968TIP3    H269320   4.780   6.201   5.947  0.2774 -0.4492  0.9057
15969TIP3   OH269321   4.582   5.628  11.092  0.5097  0.0879 -0.5460
15969TIP3    H169322   4.515   5.610  11.026  2.1295 -2.0136 -1.7280
15969TIP3    H269323   4.653   5.567  11.072  1.3112 -0.3050  2.8772
15970TIP3   OH269324   0.039   4.437  17.357  0.1689  0.2522 -0.1154
15970TIP3    H169325   0.064   4.418  17.267  0.3296 -1.1355  0.1930
15970TIP3    H269326   0.121   4.454  17.403 -0.0323  3.0123 -0.6097
15971TIP3   OH269327   4.570   1.166   1.937 -0.3804  0.1891 -0.1482
15971TIP3    H169328   4.634   1.104   1.901  0.0329 -1.3128  2.8943
15971TIP3    H269329   4.623   1.241   1.964 -0.4862  0.6512 -1.1801
15972TIP3   OH269330   5.227   0.332   2.715  0.2024 -0.2944 -0.8007
15972TIP3    H169331   5.216   0.427   2.719 -1.8808 -0.4962 -0.5052
15972TIP3    H269332   5.169   0.298   2.784  0.6329 -1.8040 -1.1370
15973TIP3   OH269333   4.831   2.254  11.182  0.4100 -0.1443  0.2411
15973TIP3    H169334   4.745   2.275  11.217  0.0591 -0.9754 -0.0899
15973TIP3    H269335   4.823   2.268  11.088  0.5100 -0.6040  0.1589
15974TIP3   OH269336   1.540   5.758  16.635 -0.2810  0.4073 -0.4213
15974TIP3    H169337   1.549   5.663  16.630  1.9604  0.3716  2.3348
15974TIP3    H269338   1.452   5.772  16.670 -0.3293 -0.6916 -0.0727
15975TIP3   OH269339   6.608   0.312  12.742 -0.1145 -0.0279 -0.4664
15975TIP3    H169340   6.545   0.355  12.684 -2.3309 -0.6754  1.3122
15975TIP3    H269341   6.608   0.366  12.821  1.4348 -0.1972 -0.3183
15976TIP3   OH269342   4.727   5.399  15.748 -0.2460 -0.1735 -0.1140
15976TIP3    H169343   4.806   5.359  15.711 -0.3786  0.1540 -0.7683
15976TIP3    H269344   4.751   5.491  15.761  0.3243 -0.5637  2.1321
15977TIP3   OH269345   4.073   5.897   3.711  0.0995 -0.3077 -0.2495
15977TIP3    H169346   4.163   5.911   3.683 -0.4158  0.4398 -1.5986
15977TIP3    H269347   4.059   5.803   3.702 -0.1835 -0.0671 -3.0885
15978TIP3   OH269348   1.013   3.523   0.216 -0.5039 -0.4963  0.0271
15978TIP3    H169349   0.939   3.581   0.202  0.3530  1.2584  2.0532
15978TIP3    H269350   0.998   3.486   0.303  0.3022 -1.2027 -0.1216
15979TIP3   OH269351   2.948   0.508  10.994  0.0298 -0.2895  0.4398
15979TIP3    H169352   3.031   0.550  10.974  0.2711 -0.3191  1.3043
15979TIP3    H269353   2.894   0.521  10.916  0.3309  1.0303  0.4275
15980TIP3   OH269354   5.879   2.588   2.800 -0.1279  0.0643  0.3145
15980TIP3    H169355   5.856   2.677   2.774  0.2147  0.2423  0.6038
15980TIP3    H269356   5.815   2.565   2.867  0.2165  0.3608  0.7471
15981TIP3   OH269357   0.207   5.483  14.776  0.1920  0.4085 -0.4828
15981TIP3    H169358   0.169   5.564  14.742 -0.9879 -0.6705 -1.8234
15981TIP3    H269359   0.139   5.446  14.833  1.3272  1.0986  1.4485
15982TIP3   OH269360   0.899   3.011   5.357  0.1926 -0.0451  0.3021
15982TIP3    H169361   0.872   2.950   5.425  0.3216 -0.6895 -0.2081
15982TIP3    H269362   0.944   3.081   5.404  0.7397 -0.7382  0.8348
15983TIP3   OH269363   6.374   0.493  12.870 -0.7682 -0.1122  0.4506
15983TIP3    H169364   6.429   0.572  12.867 -0.4869 -0.2963  0.6771
15983TIP3    H269365   6.356   0.473  12.778  0.4310 -0.6604  0.3117
15984TIP3   OH269366   0.818   4.262  11.102  0.5052 -0.0010 -0.0229
15984TIP3    H169367   0.885   4.307  11.050 -0.4181  0.6232 -0.7030
15984TIP3    H269368   0.736   4.305  11.078 -0.2183 -1.0950  0.4056
15985TIP3   OH269369   0.845   4.019   1.518 -0.0396 -0.4874 -0.0312
15985TIP3    H169370   0.888   3.940   1.484 -0.9180 -0.1344 -2.1004
15985TIP3    H269371   0.754   3.993   1.532 -0.2262  0.0405 -0.2541
15986TIP3   OH269372   5.025   1.321  11.534  0.2690 -0.1129  0.2374
15986TIP3    H169373   4.964   1.291  11.465 -0.0477 -0.1779  0.5427
15986TIP3    H269374   5.025   1.249  11.598 -0.6624  0.6119  1.0860
15987TIP3   OH269375   3.441   2.892  15.295  0.0759  0.6064 -0.4221
15987TIP3    H169376   3.425   2.807  15.336  1.2113  0.6953  0.2626
15987TIP3    H269377   3.507   2.934  15.351  1.0564  1.0874 -1.8606
15988TIP3   OH269378   1.245   3.303  14.082 -0.2212 -0.7914 -0.5840
15988TIP3    H169379   1.243   3.211  14.057  2.1262 -0.9966 -0.2684
15988TIP3    H269380   1.269   3.303  14.175  1.2999  0.0987 -0.9302
15989TIP3   OH269381   6.594   6.145  11.614  0.1176 -0.1319 -0.6014
15989TIP3    H169382   6.648   6.079  11.570  0.0467 -2.4277  2.4055
15989TIP3    H269383   6.521   6.095  11.651 -1.3393  2.1013 -0.2854
15990TIP3   OH269384   1.706   5.120  15.417  0.5014 -1.0409  0.1692
15990TIP3    H169385   1.779   5.062  15.396  0.2025 -1.4020  0.1246
15990TIP3    H269386   1.629   5.076  15.381  0.3391 -0.3737 -0.3061
15991TIP3   OH269387   4.982   4.832   0.182  0.7438 -0.5660  0.8825
15991TIP3    H169388   5.009   4.920   0.207 -0.1407 -0.2298  0.6782
15991TIP3    H269389   5.005   4.777   0.257  2.9635 -0.5089  0.3320
15992TIP3   OH269390   1.277   3.174   3.062 -0.0556  0.2522  0.2149
15992TIP3    H169391   1.354   3.204   3.012  0.2002 -0.5811  0.0940
15992TIP3    H269392   1.266   3.082   3.036  0.4367 -0.3822  2.1342
15993TIP3   OH269393   5.875   3.256   3.197 -0.3703  0.2815 -0.0837
15993TIP3    H169394   5.958   3.214   3.174 -0.3323  0.6254 -0.5945
15993TIP3    H269395   5.901   3.337   3.241 -0.4396  0.3723 -0.2123
15994TIP3   OH269396   2.031   5.565  16.250 -0.1823  0.6325  0.8853
15994TIP3    H169397   2.060   5.523  16.169 -0.5499  1.2833  0.3995
15994TIP3    H269398   1.938   5.545  16.255 -0.7696  2.7526 -0.2692
15995TIP3   OH269399   5.178   0.766   5.964 -0.0933 -0.4256 -0.0335
15995TIP3    H169400   5.103   0.803   5.919  1.0373  1.5175 -0.4564
15995TIP3    H269401   5.211   0.837   6.019  2.5806 -0.5037 -1.3532
15996TIP3   OH269402   0.274   6.039   4.165  0.0127 -0.2360 -0.1593
15996TIP3    H169403   0.310   5.953   4.187 -0.8011 -1.6017 -3.5765
15996TIP3    H269404   0.204   6.053   4.229  0.5785 -1.8088  0.8491
15997TIP3   OH269405   4.286   5.933  16.014 -0.1702 -0.0782  0.2596
15997TIP3    H169406   4.310   5.894  15.930  1.9614  0.8318  0.3918
15997TIP3    H269407   4.325   5.874  16.079  0.2001  0.4731  0.5396
15998TIP3   OH269408   1.756   2.862   3.219  0.6293 -0.3612 -0.3181
15998TIP3    H169409   1.694   2.930   3.245  2.5763  1.2973  0.2569
15998TIP3    H269410   1.792   2.892   3.136  0.7477 -1.2483 -0.6056
15999TIP3   OH269411   4.395   3.592  14.231 -0.4231 -0.0070  0.1936
15999TIP3    H169412   4.394   3.687  14.220 -0.9096 -0.0770 -0.3880
15999TIP3    H269413   4.414   3.579  14.324 -1.5445  0.6838  0.5396
16000TIP3   OH269414   2.060   2.488  13.773 -0.5374  0.0322  0.0104
16000TIP3    H169415   2.107   2.557  13.821 -0.2527  0.5120 -0.9275
16000TIP3    H269416   1.980   2.532  13.742 -1.0078 -0.4380  0.5448
16001TIP3   OH269417   1.099   4.222   6.465  0.0805 -0.0656  0.7664
16001TIP3    H169418   1.130   4.300   6.511  0.0974 -0.6344  1.7500
16001TIP3    H269419   1.010   4.245   6.437  0.4892  0.6964  0.0771
16002TIP3   OH269420   1.009   6.003   4.103 -0.2760  0.0220 -0.4600
16002TIP3    H169421   0.922   6.024   4.071  0.0082  0.3215 -1.0512
16002TIP3    H269422   1.045   6.086   4.134  0.7941  0.4377 -2.6644
16003TIP3   OH269423   2.578   6.021  16.831 -0.2082 -0.4268 -1.4146
16003TIP3    H169424   2.614   6.100  16.790 -2.2687  1.2642 -0.1713
16003TIP3    H269425   2.629   6.010  16.911 -1.4186  1.1538 -0.3556
16004TIP3   OH269426   2.423   5.026   1.420 -0.9411  0.1022 -0.3619
16004TIP3    H169427   2.443   4.947   1.469 -3.0493 -0.2805 -0.0089
16004TIP3    H269428   2.492   5.088   1.444 -1.2716 -0.4327  2.2767
16005TIP3   OH269429   2.259   3.754  16.003 -0.1510 -0.0140  0.6186
16005TIP3    H169430   2.263   3.714  15.917 -0.4351  0.9847  0.1281
16005TIP3    H269431   2.211   3.691  16.057 -0.2030 -0.5225 -0.0147
16006TIP3   OH269432   1.933   0.305   0.713 -0.7893 -0.0862  0.3741
16006TIP3    H169433   1.890   0.365   0.652 -0.2365  0.4111  0.4589
16006TIP3    H269434   1.890   0.221   0.699  0.5175 -0.4700 -2.0472
16007TIP3   OH269435   5.791   3.745   1.618 -0.1804  0.0481  0.3852
16007TIP3    H169436   5.709   3.707   1.585 -0.4538  0.2667  0.8004
16007TIP3    H269437   5.764   3.823   1.666  0.2286 -0.1202  0.9012
16008TIP3   OH269438   1.450   3.580   4.613  0.1894  0.5618 -0.0464
16008TIP3    H169439   1.455   3.485   4.603 -0.0651  0.7215 -2.3712
16008TIP3    H269440   1.370   3.595   4.663 -1.7868 -0.4058 -2.6809
16009TIP3   OH269441   1.912   4.627  16.527 -0.0359  0.5499 -0.0530
16009TIP3    H169442   1.885   4.540  16.558  0.3200  0.9135  1.3448
16009TIP3    H269443   1.831   4.667  16.495 -0.0010 -0.7350 -1.9235
16010TIP3   OH269444   5.441   0.819   4.318  0.0322  0.2479  0.1642
16010TIP3    H169445   5.377   0.826   4.389 -0.1844  0.7929 -0.0764
16010TIP3    H269446   5.447   0.726   4.299 -0.3085  0.1496  0.5392
16011TIP3   OH269447   5.148   6.305   2.680 -0.4393  0.0136  0.3355
16011TIP3    H169448   5.164   6.372   2.747 -1.4224  1.7663 -1.0833
16011TIP3    H269449   5.177   6.346   2.599  0.9810 -2.1593 -0.3446
16012TIP3   OH269450   2.085   2.451  13.363 -0.5079 -0.3341 -0.3821
16012TIP3    H169451   2.144   2.377  13.379  0.6765  0.6655  0.0750
16012TIP3    H269452   2.118   2.490  13.282  0.8934  1.5094  0.9783
16013TIP3   OH269453   1.940   3.279  12.878  0.0725  0.0325  0.4895
16013TIP3    H169454   1.941   3.305  12.971 -1.4442  0.0117  0.5352
16013TIP3    H269455   1.885   3.345  12.836  1.4363  0.5256 -0.5755
16014TIP3   OH269456   1.454   2.877  15.690 -0.4123 -0.0192  0.4646
16014TIP3    H169457   1.436   2.970  15.675  2.6824  0.3787 -1.6533
16014TIP3    H269458   1.452   2.837  15.603  1.5328 -1.2042  0.8851
16015TIP3   OH269459   6.476   4.324  14.675 -0.3067 -0.4572 -0.5314
16015TIP3    H169460   6.522   4.368  14.747  1.4650 -0.4153 -1.6180
16015TIP3    H269461   6.432   4.394  14.628 -1.3451 -0.4660  0.3991
16016TIP3   OH269462   2.655   4.267  12.773 -0.2485 -0.6913 -0.0276
16016TIP3    H169463   2.715   4.271  12.699 -0.4638 -3.3396 -0.4246
16016TIP3    H269464   2.689   4.196  12.828 -0.7958  0.3881  1.8203
16017TIP3   OH269465   3.521   1.496   4.108  0.4344  0.3237  0.3045
16017TIP3    H169466   3.570   1.414   4.114  1.7206  0.6866 -3.0016
16017TIP3    H269467   3.587   1.562   4.086 -1.0405  1.5525 -0.6394
16018TIP3   OH269468   0.799   3.665   2.843  0.4028 -0.1931  0.3242
16018TIP3    H169469   0.854   3.606   2.893  1.8063 -0.2498 -1.1942
16018TIP3    H269470   0.733   3.695   2.905  2.2048 -0.0266  2.2847
16019TIP3   OH269471   6.286   6.595   3.686  0.2958 -0.5768  0.6819
16019TIP3    H169472   6.292   6.501   3.666  0.8811 -0.4086 -0.0016
16019TIP3    H269473   6.353   6.635   3.630 -0.0527  0.2667  0.8550
16020TIP3   OH269474   5.510   0.606  13.149  0.2637 -0.1194 -0.1745
16020TIP3    H169475   5.492   0.616  13.242 -1.0196  0.3105 -0.4420
16020TIP3    H269476   5.496   0.694  13.112 -0.4218 -0.5273 -0.9363
16021TIP3   OH269477   3.121   5.893   3.669  0.7218  0.6214 -0.2745
16021TIP3    H169478   3.037   5.856   3.643  1.2570  0.6161 -2.1152
16021TIP3    H269479   3.122   5.980   3.631  0.8237  1.3237  1.2725
16022TIP3   OH269480   1.023   1.886   6.368  0.3485  0.2413  0.3505
16022TIP3    H169481   1.088   1.937   6.417 -1.0180  2.5352 -0.0547
16022TIP3    H269482   0.952   1.870   6.430 -0.8048  2.0161 -0.4248
16023TIP3   OH269483   0.736   0.406  13.006  0.2184  0.5005 -0.1461
16023TIP3    H169484   0.679   0.359  12.945 -0.1942 -1.4608  1.6096
16023TIP3    H269485   0.706   0.378  13.092  2.7309  0.7493  0.8887
16024TIP3   OH269486   2.032   0.021  12.987 -0.6937  0.1414  0.3094
16024TIP3    H169487   1.980   0.101  12.997  0.0581  0.6040  0.6294
16024TIP3    H269488   1.972  -0.050  13.008 -1.3873  0.6196 -0.0367
16025TIP3   OH269489   4.501   1.130  14.194  0.3379 -0.3175 -0.0108
16025TIP3    H169490   4.590   1.160  14.173 -0.0429  1.0044  0.1821
16025TIP3    H269491   4.465   1.102  14.109  1.8651 -3.6078  0.2966
16026TIP3   OH269492   4.179   6.546  12.562 -0.2194  0.3801  0.5126
16026TIP3    H169493   4.253   6.562  12.503  0.2541  1.4540  1.3704
16026TIP3    H269494   4.198   6.599  12.639 -1.3852 -0.1371  1.1759
16027TIP3   OH269495   3.178   1.506   5.775  0.4918  0.2617 -0.1692
16027TIP3    H169496   3.193   1.557   5.695  0.3077  1.1259  0.3366
16027TIP3    H269497   3.189   1.569   5.846  0.3906 -0.4385  0.4816
16028TIP3   OH269498   1.073   5.540   4.267 -0.4787  0.4828 -0.1785
16028TIP3    H169499   1.030   5.607   4.321 -0.6680  0.5879 -0.4585
16028TIP3    H269500   1.087   5.583   4.183 -1.5889 -0.1756 -0.7165
16029TIP3   OH269501   0.728   0.463  11.996  0.0028 -0.7978  0.1227
16029TIP3    H169502   0.713   0.557  12.011  1.4896 -0.3773 -0.8233
16029TIP3    H269503   0.708   0.450  11.903  1.1293 -1.1137 -0.0872
16030TIP3   OH269504   2.434   3.224  14.823  0.3305  0.1547 -0.5218
16030TIP3    H169505   2.462   3.303  14.868 -2.5386  1.3043 -0.5191
16030TIP3    H269506   2.480   3.153  14.868  0.4556  1.5545  1.7076
16031TIP3   OH269507   2.481   4.400  17.033 -0.8389  0.0927  0.6014
16031TIP3    H169508   2.515   4.433  17.116 -0.4096  1.8963 -0.2346
16031TIP3    H269509   2.558   4.389  16.978 -1.1015 -1.2578  0.4554
16032TIP3   OH269510   3.032   4.949  11.678  0.3201 -0.0495  0.0882
16032TIP3    H169511   2.988   4.882  11.731  0.9840  0.4846  1.3585
16032TIP3    H269512   3.042   4.909  11.592 -0.2559 -1.1759  0.5275
16033TIP3   OH269513   1.432   6.506   2.083  0.6516  0.3138 -0.0404
16033TIP3    H169514   1.480   6.564   2.025  0.2745 -1.2781 -2.0573
16033TIP3    H269515   1.355   6.479   2.033  0.2248 -1.0127  1.2367
16034TIP3   OH269516   3.093   0.155   2.316 -0.3663  0.0551  0.3156
16034TIP3    H169517   3.090   0.167   2.411 -0.0931 -0.1921  0.3571
16034TIP3    H269518   3.062   0.066   2.301  0.1337 -0.1059  0.2208
16035TIP3   OH269519   3.704   0.430   5.888 -0.2194 -0.2361 -0.0663
16035TIP3    H169520   3.749   0.347   5.876  0.2512  0.0484 -0.2879
16035TIP3    H269521   3.758   0.479   5.951  0.1780  0.3856 -0.8700
16036TIP3   OH269522   2.642   4.766  15.273 -0.1223  0.2590  0.7210
16036TIP3    H169523   2.681   4.773  15.186 -0.2284 -0.2566  0.6326
16036TIP3    H269524   2.661   4.677  15.301  1.3285  0.9079  1.9034
16037TIP3   OH269525   5.311   1.974  15.377 -0.2163  0.3994 -0.4726
16037TIP3    H169526   5.262   1.892  15.390  1.0404 -0.1294  1.3939
16037TIP3    H269527   5.402   1.950  15.394  0.5737  1.6357 -2.6002
16038TIP3   OH269528   6.476   1.033   2.781 -0.0861 -0.8563 -0.3730
16038TIP3    H169529   6.515   1.113   2.816  1.0781 -0.8049 -1.6947
16038TIP3    H269530   6.395   1.021   2.831  1.7048 -1.1202  2.7397
16039TIP3   OH269531   5.744   1.944  15.399 -0.1787  0.3357 -0.3772
16039TIP3    H169532   5.827   1.903  15.420  0.4089  1.7517  0.2352
16039TIP3    H269533   5.687   1.925  15.474  0.3453  1.2661  0.2771
16040TIP3   OH269534   2.190   4.846  12.940  0.6060 -0.3410  0.7030
16040TIP3    H169535   2.108   4.804  12.912  0.2254  1.0392 -0.3307
16040TIP3    H269536   2.162   4.927  12.982  1.4304 -0.0698  0.7378
16041TIP3   OH269537   6.695   2.511  15.388  0.7418 -0.3540  0.1138
16041TIP3    H169538   6.647   2.429  15.402 -0.4095  0.2525 -0.1185
16041TIP3    H269539   6.669   2.566  15.462  0.2779  0.3365 -0.5420
16042TIP3   OH269540   4.228   1.013  13.213  0.0338 -0.3312 -0.1074
16042TIP3    H169541   4.292   0.952  13.249 -0.3675 -0.8001 -0.1696
16042TIP3    H269542   4.236   1.003  13.118  0.2313 -0.0052 -0.1263
16043TIP3   OH269543   5.772   5.951  11.116  0.0100 -0.3180  0.5955
16043TIP3    H169544   5.679   5.963  11.094  0.3985 -0.3044 -1.2433
16043TIP3    H269545   5.814   6.032  11.087  1.1499 -1.8316 -2.5249
16044TIP3   OH269546   4.970   6.485  12.923 -0.3460  0.2222 -0.0133
16044TIP3    H169547   5.066   6.484  12.917 -0.4120  0.1666 -1.2941
16044TIP3    H269548   4.950   6.421  12.991  0.5063 -0.0394  0.0086
16045TIP3   OH269549   2.848   0.019   0.059  0.3222 -0.4063  0.4277
16045TIP3    H169550   2.928   0.040   0.011  0.9568 -0.4745  1.4183
16045TIP3    H269551   2.821   0.102   0.098  1.1868 -0.7815  1.9261
16046TIP3   OH269552   6.222   1.367  12.862 -0.0702  0.3768 -0.1444
16046TIP3    H169553   6.308   1.362  12.821  0.4482 -0.5361  1.0133
16046TIP3    H269554   6.240   1.376  12.956 -1.1852 -1.7386  0.3422
16047TIP3   OH269555   5.900   1.171  16.611 -0.3247 -0.3698 -0.2277
16047TIP3    H169556   5.982   1.146  16.569  0.0505  1.1647 -0.4606
16047TIP3    H269557   5.839   1.186  16.539 -0.6289 -0.8771 -0.0820
16048TIP3   OH269558   1.296   6.266   1.304  0.4913 -0.1097  0.0480
16048TIP3    H169559   1.349   6.272   1.225 -0.1862  1.2205 -0.3321
16048TIP3    H269560   1.359   6.247   1.374  1.4998  1.4560 -0.3833
16049TIP3   OH269561   3.397   4.851  13.564  0.4787  0.2374  0.2340
16049TIP3    H169562   3.330   4.786  13.545  0.0225  1.2671 -1.9645
16049TIP3    H269563   3.477   4.816  13.524  0.8449 -0.1344  1.2618
16050TIP3   OH269564   1.603   2.950  14.674  0.5295  0.7361 -0.3805
16050TIP3    H169565   1.614   2.994  14.758  1.1933 -2.2997  1.2232
16050TIP3    H269566   1.680   2.894  14.666 -2.0040 -3.0649 -0.3883
16051TIP3   OH269567   1.544   4.624   0.918 -0.2772 -0.1669 -0.2696
16051TIP3    H169568   1.622   4.618   0.862  0.6792  0.3749  0.9503
16051TIP3    H269569   1.514   4.533   0.927 -0.8681 -0.2057 -2.1750
16052TIP3   OH269570   6.186   3.849  10.693  0.3847  0.0276 -0.2360
16052TIP3    H169571   6.111   3.800  10.658  0.4150 -0.4672  0.3891
16052TIP3    H269572   6.156   3.940  10.694 -0.3548 -0.2141  0.3784
16053TIP3   OH269573   4.361   0.412  11.462 -0.6815 -0.4599  0.0712
16053TIP3    H169574   4.447   0.442  11.433 -0.5755 -2.1710 -1.5389
16053TIP3    H269575   4.355   0.442  11.553  1.9732 -0.9662  0.5087
16054TIP3   OH269576   3.360   3.583  16.519  0.2011 -0.6099 -0.1999
16054TIP3    H169577   3.352   3.559  16.611  0.0933  0.7093  0.1536
16054TIP3    H269578   3.434   3.643  16.516 -3.3455  4.4188  0.1924
16055TIP3   OH269579   5.553   4.881   6.590 -0.3161  0.1436 -0.4831
16055TIP3    H169580   5.635   4.852   6.551  0.0511 -1.0183  1.0335
16055TIP3    H269581   5.496   4.804   6.588 -0.3070  0.0622  1.1377
16056TIP3   OH269582   1.930   4.988   3.976  0.4600  0.0229  0.0044
16056TIP3    H169583   1.853   5.005   4.031  0.7986 -0.5169  0.6571
16056TIP3    H269584   2.002   4.978   4.038  1.3189  1.7891 -0.6542
16057TIP3   OH269585   3.998   3.882   1.517 -0.2405 -0.1366  0.1785
16057TIP3    H169586   4.089   3.899   1.492 -0.7024 -0.6708 -2.1114
16057TIP3    H269587   3.949   3.887   1.435 -1.7991 -3.0536  0.7886
16058TIP3   OH269588   1.496   0.759   5.428 -0.1692 -0.0339  0.5036
16058TIP3    H169589   1.415   0.761   5.377  0.0911  0.4133  0.1023
16058TIP3    H269590   1.483   0.688   5.491 -0.2937 -0.9786 -0.5339
16059TIP3   OH269591   0.419   6.734   1.870  0.3854  0.2017 -0.0196
16059TIP3    H169592   0.375   6.680   1.804  2.3738 -0.7738 -0.6389
16059TIP3    H269593   0.400   6.691   1.953  1.7635 -1.4131 -0.4839
16060TIP3   OH269594   5.876   2.100   6.540  0.1450 -0.0172  0.2018
16060TIP3    H169595   5.842   2.137   6.622 -0.0678 -2.1482  1.1386
16060TIP3    H269596   5.910   2.176   6.493  0.2242  1.3024  2.2254
16061TIP3   OH269597   4.851   3.800   6.099 -0.3929 -0.2408 -0.3038
16061TIP3    H169598   4.770   3.794   6.149 -0.4968 -0.3976 -0.4860
16061TIP3    H269599   4.920   3.806   6.164 -0.4134 -1.7179 -0.1002
16062TIP3   OH269600   3.721   2.532  14.079 -0.3635  0.7380 -0.7457
16062TIP3    H169601   3.658   2.494  14.018 -2.3136  0.8155  1.1071
16062TIP3    H269602   3.746   2.616  14.039 -0.9183  0.4149 -1.8099
16063TIP3   OH269603   4.591   4.860   3.263 -0.1034 -0.0215  0.0061
16063TIP3    H169604   4.546   4.943   3.273  0.3213  0.3761 -1.2735
16063TIP3    H269605   4.682   4.884   3.245  0.1263 -0.7728  0.1333
16064TIP3   OH269606   4.241   0.725  11.930 -0.2104 -0.2264  0.0704
16064TIP3    H169607   4.249   0.798  11.868 -0.4787 -0.6203 -0.4331
16064TIP3    H269608   4.232   0.647  11.875 -0.9613 -0.5260  0.6019
16065TIP3   OH269609   6.543   0.211  13.723  0.0453  0.3604 -0.7135
16065TIP3    H169610   6.601   0.283  13.700  1.3030 -0.9661 -1.9342
16065TIP3    H269611   6.602   0.138  13.743 -1.0939  0.2097  2.7878
16066TIP3   OH269612   5.909   5.239   0.941 -0.1072 -0.2743 -0.0249
16066TIP3    H169613   5.995   5.222   0.901  0.0565  2.0067 -0.7994
16066TIP3    H269614   5.930   5.280   1.025 -0.4226  0.1199 -0.1354
16067TIP3   OH269615   0.081   3.380  14.930  0.6488 -0.0881 -0.4042
16067TIP3    H169616   0.100   3.446  14.998  0.4147  0.5493 -0.9454
16067TIP3    H269617  -0.005   3.405  14.897  1.3412  0.4521 -1.8906
16068TIP3   OH269618   2.895   1.568   6.679 -0.0036 -0.3487  0.2516
16068TIP3    H169619   2.918   1.649   6.634 -0.2152 -0.2411  0.3337
16068TIP3    H269620   2.938   1.499   6.630  0.8443 -0.1125  0.6510
16069TIP3   OH269621   5.527   0.029  14.822  0.0243 -0.0126  0.0245
16069TIP3    H169622   5.445   0.010  14.775 -0.8255  2.7204  0.1899
16069TIP3    H269623   5.514  -0.008  14.909 -1.3337  0.8820  0.2337
16070TIP3   OH269624   4.362   4.042  15.513  0.0349  0.3477 -0.4230
16070TIP3    H169625   4.271   4.064  15.492  0.6084  1.7335 -1.6812
16070TIP3    H269626   4.356   3.976  15.582 -1.9427 -0.8936 -1.6882
16071TIP3   OH269627   0.064   4.998  15.555 -0.7404  0.0005 -0.2734
16071TIP3    H169628   0.139   5.041  15.596 -1.4036  2.1473 -1.1630
16071TIP3    H269629   0.102   4.933  15.497  0.4147  0.5682 -0.1720
16072TIP3   OH269630   2.863   1.344   4.175  0.0707 -0.1231  0.3567
16072TIP3    H169631   2.918   1.275   4.139  1.5601 -0.7978  3.5171
16072TIP3    H269632   2.909   1.425   4.154 -0.5065 -0.2349 -1.4478
16073TIP3   OH269633   6.633   1.647   0.713  0.0859 -0.5854 -0.5165
16073TIP3    H169634   6.607   1.578   0.651 -0.1382 -1.2833  0.3357
16073TIP3    H269635   6.696   1.604   0.771 -1.4391 -0.6366  1.1838
16074TIP3   OH269636   5.627   4.222  13.143 -0.2855 -0.5083  0.5773
16074TIP3    H169637   5.538   4.212  13.110  0.1040 -1.0000 -0.3577
16074TIP3    H269638   5.643   4.142  13.194 -0.1998 -0.6713  0.2993
16075TIP3   OH269639   3.198   0.652  11.673  0.0168 -0.3056 -0.2238
16075TIP3    H169640   3.235   0.679  11.589  1.0891  0.7631  0.5518
16075TIP3    H269641   3.112   0.618  11.652  0.3359 -0.2068 -1.7732
16076TIP3   OH269642   0.918   4.392   3.927 -0.3783  0.0486  0.3551
16076TIP3    H169643   0.854   4.463   3.923 -0.0946  0.3122  0.4616
16076TIP3    H269644   0.933   4.378   4.020 -0.0103  0.2383  0.3288
16077TIP3   OH269645   2.810   6.736   4.675 -0.5220 -0.3351  0.2608
16077TIP3    H169646   2.781   6.812   4.725  1.2171  1.3261 -1.0714
16077TIP3    H269647   2.892   6.710   4.717  0.2660  0.2463 -0.8605
16078TIP3   OH269648   2.242   6.331   3.522 -0.3176 -0.1146  0.3408
16078TIP3    H169649   2.333   6.347   3.550 -0.0909 -0.9374  0.1058
16078TIP3    H269650   2.206   6.275   3.591 -0.0427 -1.3782 -0.4903
16079TIP3   OH269651   6.586   4.658  17.355 -0.2855 -0.2584  0.6082
16079TIP3    H169652   6.662   4.616  17.394  0.5386  1.2725  0.7304
16079TIP3    H269653   6.583   4.625  17.265  0.6587 -0.1843  0.5431
16080TIP3   OH269654   0.471   2.307   3.853 -0.6992 -0.6283  0.5426
16080TIP3    H169655   0.505   2.262   3.930 -0.6567  1.4587  1.8176
16080TIP3    H269656   0.377   2.287   3.853 -0.3318 -2.5136 -0.2430
16081TIP3   OH269657   3.442   5.399   3.318  0.6156  0.3141 -1.1664
16081TIP3    H169658   3.480   5.370   3.401 -0.4918  0.1113 -0.7101
16081TIP3    H269659   3.484   5.484   3.301 -0.1751  1.0471  0.3424
16082TIP3   OH269660   5.302   5.743   5.311 -0.1339  0.3189  0.2407
16082TIP3    H169661   5.299   5.839   5.312 -1.9579  0.2856  0.2514
16082TIP3    H269662   5.214   5.716   5.286  0.2713 -1.3714  0.5103
16083TIP3   OH269663   2.194   1.440   0.549 -0.5375  0.4977  0.0325
16083TIP3    H169664   2.214   1.413   0.459 -3.6770 -0.9197 -0.3776
16083TIP3    H269665   2.130   1.376   0.579 -0.3838  1.5721  2.9474
16084TIP3   OH269666   3.861   6.396   1.743  0.2733  0.5367  0.3444
16084TIP3    H169667   3.886   6.388   1.835  0.4334  1.5872  0.4124
16084TIP3    H269668   3.769   6.369   1.741  0.6967 -1.0027  0.5208
16085TIP3   OH269669   4.025   3.447   6.091  0.2152  0.4833  0.2211
16085TIP3    H169670   3.938   3.459   6.054  0.5588  2.6031 -0.0213
16085TIP3    H269671   4.084   3.492   6.030  1.6435 -1.6769 -0.1188
16086TIP3   OH269672   4.625   3.954  13.595 -0.1204  0.0511  0.3182
16086TIP3    H169673   4.659   3.995  13.674 -0.8898 -0.7884  1.1141
16086TIP3    H269674   4.703   3.939  13.541  0.1791  2.7358 -0.1564
16087TIP3   OH269675   1.143   6.066  11.916 -0.8790 -0.6261  0.5457
16087TIP3    H169676   1.226   6.047  11.959 -1.6859 -1.5980  1.7272
16087TIP3    H269677   1.168   6.108  11.833  0.8751 -2.8777 -0.1751
16088TIP3   OH269678   5.775   5.558  12.630  0.1427 -0.0512  0.3066
16088TIP3    H169679   5.721   5.618  12.682  1.3422  0.4748  1.0011
16088TIP3    H269680   5.854   5.546  12.683 -0.0246 -2.2089  0.1483
16089TIP3   OH269681   0.127   5.606   5.327  0.1125 -0.1649  0.0471
16089TIP3    H169682   0.193   5.654   5.376 -0.5125 -0.2943  1.0557
16089TIP3    H269683   0.129   5.643   5.239 -1.1129  2.5087  1.0493
16090TIP3   OH269684   4.871   1.798   3.518  0.2797 -0.0716 -0.1299
16090TIP3    H169685   4.855   1.734   3.448 -1.2557  1.4474 -1.2437
16090TIP3    H269686   4.788   1.843   3.529  1.8938  3.5534 -1.3370
16091TIP3   OH269687   4.259   1.835   0.131 -0.0184 -0.4204  0.7380
16091TIP3    H169688   4.323   1.847   0.201  0.4125 -3.5574  1.0311
16091TIP3    H269689   4.311   1.804   0.056 -1.0760 -3.1525  1.0177
16092TIP3   OH269690   4.470   3.510  12.205  0.1914  0.7681  0.4700
16092TIP3    H169691   4.421   3.558  12.139 -0.6809 -0.8220 -0.0708
16092TIP3    H269692   4.484   3.574  12.276 -1.2880  1.6905 -0.0379
16093TIP3   OH269693   0.680   6.675  15.538 -0.2751 -0.4225  0.3316
16093TIP3    H169694   0.691   6.761  15.578  0.3450 -1.2125  1.9445
16093TIP3    H269695   0.585   6.659  15.542 -0.7985  1.3090 -2.5573
16094TIP3   OH269696   0.028   5.190  14.387 -0.3194 -0.2511 -0.3666
16094TIP3    H169697   0.037   5.281  14.356 -0.3845  0.1882  0.8624
16094TIP3    H269698   0.072   5.138  14.320 -1.1622  0.5726 -1.6300
16095TIP3   OH269699   4.082   5.619  12.581 -0.1863  0.0566 -0.0598
16095TIP3    H169700   4.114   5.650  12.666 -0.7109  0.1954  0.0937
16095TIP3    H269701   4.011   5.680  12.559  0.4039  0.4507 -0.9342
16096TIP3   OH269702   3.457   6.385   0.081 -0.3296  0.3731 -0.3073
16096TIP3    H169703   3.381   6.443   0.082 -0.4718  0.1968  1.0439
16096TIP3    H269704   3.515   6.420   0.148  0.0599 -0.4128 -0.2211
16097TIP3   OH269705   6.106   5.617  15.703  0.6476 -0.4396  0.0496
16097TIP3    H169706   6.030   5.568  15.671 -0.5273  1.1432  0.3020
16097TIP3    H269707   6.122   5.581  15.790 -0.0803 -0.5210  0.1615
16098TIP3   OH269708   3.517   3.752  11.994  0.0367  0.1400 -0.4355
16098TIP3    H169709   3.528   3.720  12.084 -3.0097 -0.8060 -0.2886
16098TIP3    H269710   3.468   3.682  11.950  0.6220  1.0138 -2.5745
16099TIP3   OH269711   5.229   1.579   1.533 -0.0308  0.4034  0.0009
16099TIP3    H169712   5.301   1.642   1.539  0.7027 -0.1607 -1.9695
16099TIP3    H269713   5.173   1.599   1.608  2.8421 -0.0237  2.4630
16100TIP3   OH269714   0.355   3.630   5.293 -0.3567 -0.2767  0.3458
16100TIP3    H169715   0.399   3.715   5.295 -2.1920  0.7633 -0.5939
16100TIP3    H269716   0.356   3.604   5.201 -1.9125 -0.0842  0.2502
16101TIP3   OH269717   0.147   4.089  12.042 -0.2476  0.1563 -0.0336
16101TIP3    H169718   0.240   4.070  12.057 -0.6442 -2.3304 -0.3682
16101TIP3    H269719   0.144   4.184  12.031  2.4672  0.1950 -1.3988
16102TIP3   OH269720   1.533   4.968  14.801  0.5660  0.0865  0.2626
16102TIP3    H169721   1.536   5.014  14.718  1.4134 -1.1398 -0.4185
16102TIP3    H269722   1.594   5.015  14.857  1.9990 -0.6108 -0.6602
16103TIP3   OH269723   5.737   5.937   4.713  0.6045 -0.4833 -0.4507
16103TIP3    H169724   5.741   5.841   4.708 -0.0584 -0.7376  2.2248
16103TIP3    H269725   5.650   5.959   4.679  0.1371 -1.0161  0.3540
16104TIP3   OH269726   3.708   5.358   4.178  0.0554 -0.4606 -0.0761
16104TIP3    H169727   3.655   5.298   4.125 -0.0574  0.9657 -1.6539
16104TIP3    H269728   3.791   5.365   4.132  0.0041  0.7172 -0.0236
16105TIP3   OH269729   2.332   6.435   2.938  0.0491 -0.3518 -0.1253
16105TIP3    H169730   2.346   6.524   2.972 -3.0042  0.6986 -1.2616
16105TIP3    H269731   2.288   6.388   3.008  0.6947 -0.6611  0.0833
16106TIP3   OH269732   2.858   6.330  13.686 -0.2153 -0.2577 -0.3326
16106TIP3    H169733   2.845   6.380  13.606  0.2195 -0.0600 -0.2810
16106TIP3    H269734   2.950   6.302  13.683 -0.2083 -0.2945  0.0698
16107TIP3   OH269735   5.613   0.926   0.759 -0.0415  0.1559 -0.5192
16107TIP3    H169736   5.611   0.884   0.845 -1.9719  0.1564 -0.5219
16107TIP3    H269737   5.614   0.854   0.697 -0.6206  0.1202 -0.4956
16108TIP3   OH269738   1.274   1.359   2.629  0.3573  0.0862 -0.1434
16108TIP3    H169739   1.203   1.423   2.625 -0.3605 -0.7200 -0.4941
16108TIP3    H269740   1.287   1.344   2.723 -1.5955 -1.5487 -0.0839
16109TIP3   OH269741   0.234   0.861   2.982 -0.3950 -0.0978 -0.3908
16109TIP3    H169742   0.304   0.807   3.018  0.3594  0.0163 -1.6159
16109TIP3    H269743   0.155   0.807   2.991 -0.4782  0.3684  2.3702
16110TIP3   OH269744   3.659   2.020   5.302 -0.4007 -0.5004  0.1371
16110TIP3    H169745   3.643   2.029   5.396 -1.1583  1.9450 -0.1769
16110TIP3    H269746   3.694   2.105   5.275  0.8007 -1.4941 -1.6368
16111TIP3   OH269747   4.212   1.774  10.645  0.0601  0.6889 -0.3718
16111TIP3    H169748   4.215   1.701  10.707 -0.2401  0.2693 -0.8477
16111TIP3    H269749   4.127   1.815  10.659  0.0860  0.7330 -0.3440
16112TIP3   OH269750   5.036   0.503   2.248  0.0499  0.3603 -0.0819
16112TIP3    H169751   5.037   0.414   2.213 -0.9115  0.9019 -1.5538
16112TIP3    H269752   5.005   0.493   2.338 -2.1281 -0.6049 -0.8924
16113TIP3   OH269753   5.209   0.653   1.468 -0.3820 -0.6512 -0.7348
16113TIP3    H169754   5.266   0.583   1.435  1.2491 -0.7428  1.9867
16113TIP3    H269755   5.254   0.734   1.446  0.0815 -0.6659  0.1285
16114TIP3   OH269756   1.284   5.906  10.737  0.1671 -0.4133  0.0220
16114TIP3    H169757   1.369   5.869  10.713  1.1842  1.3695  0.7229
16114TIP3    H269758   1.295   6.001  10.727 -2.0875 -0.1917 -0.9359
16115TIP3   OH269759   2.771   4.928  10.580  0.5170 -0.1734 -0.4578
16115TIP3    H169760   2.756   4.933  10.485 -1.7162  0.2310 -0.1393
16115TIP3    H269761   2.863   4.906  10.588  0.5446 -1.1849 -2.7449
16116TIP3   OH269762   3.907   4.467   0.857 -0.0424  0.0166  0.1103
16116TIP3    H169763   3.834   4.523   0.830  0.8305  1.4830  0.6929
16116TIP3    H269764   3.898   4.459   0.952  0.5837  0.2628  0.1953
16117TIP3   OH269765   6.671   0.002  16.004  0.0306  0.8835 -0.0363
16117TIP3    H169766   6.664   0.041  16.091  1.8795 -0.4479  0.7717
16117TIP3    H269767   6.728  -0.074  16.017 -1.2108 -0.4661 -2.0507
16118TIP3   OH269768   2.758   0.521   2.274 -0.0338  0.0564 -0.4535
16118TIP3    H169769   2.835   0.575   2.295  1.1995 -1.1996 -1.5577
16118TIP3    H269770   2.690   0.585   2.252  0.2269  1.2455  1.8818
16119TIP3   OH269771   3.183   5.484  11.016 -0.4133 -0.1458  0.1525
16119TIP3    H169772   3.207   5.426  11.089 -2.1088  0.1903  1.0172
16119TIP3    H269773   3.261   5.538  11.002  0.3630 -1.0269  0.8970
16120TIP3   OH269774   0.660   1.220   3.945 -0.1368  0.0979 -0.5788
16120TIP3    H169775   0.740   1.173   3.926 -0.1001  0.3381 -1.0234
16120TIP3    H269776   0.590   1.156   3.933 -0.1009  0.1931 -1.3431
16121TIP3   OH269777   2.186   3.681   2.436  0.4673 -0.4904  0.6440
16121TIP3    H169778   2.250   3.655   2.369  0.0042 -1.2769  0.5012
16121TIP3    H269779   2.161   3.599   2.479 -3.1889 -0.8584 -1.7231
16122TIP3   OH269780   1.218   6.723   2.711  0.2496  0.6434 -0.1283
16122TIP3    H169781   1.289   6.729   2.775 -0.6183  0.8935  0.8389
16122TIP3    H269782   1.164   6.651   2.743 -0.1339  0.6983 -0.6530
16123TIP3   OH269783   3.972   3.976   0.610 -0.2249 -0.2326 -0.3711
16123TIP3    H169784   3.993   3.914   0.540 -1.5667 -1.2989  0.1241
16123TIP3    H269785   4.031   3.953   0.682  0.0016 -0.2400 -0.5596
16124TIP3   OH269786   4.041   6.461   4.364  0.4064 -0.1615  0.0474
16124TIP3    H169787   3.987   6.463   4.444 -0.1321  0.5101 -0.3203
16124TIP3    H269788   4.125   6.496   4.392 -0.6101  2.7825 -0.2405
16125TIP3   OH269789   5.409   0.205  12.700 -0.1413 -0.0297  0.2064
16125TIP3    H169790   5.356   0.263  12.645 -0.1855  1.4188  1.7160
16125TIP3    H269791   5.345   0.150  12.744 -0.4608  1.5989  1.8914
16126TIP3   OH269792   0.159   2.090   0.865 -0.0173  0.1071 -0.5112
16126TIP3    H169793   0.129   2.001   0.848  1.5939 -0.2657 -1.7269
16126TIP3    H269794   0.116   2.143   0.798 -1.3644  0.3712  0.5178
16127TIP3   OH269795   1.922   1.319   2.114 -0.6080  0.1305 -0.1988
16127TIP3    H169796   1.878   1.234   2.121  1.2257 -1.0005 -1.4420
16127TIP3    H269797   1.924   1.337   2.020 -0.3384  1.1914  0.0007
16128TIP3   OH269798   1.842   1.342   5.470 -0.5471  0.2030  0.2646
16128TIP3    H169799   1.894   1.314   5.545 -0.3167 -1.4194 -0.4382
16128TIP3    H269800   1.751   1.327   5.497 -0.4300 -1.4766 -0.1205
16129TIP3   OH269801   6.217   3.708  12.885 -0.1527  0.0057  0.6031
16129TIP3    H169802   6.210   3.631  12.829 -0.9905  1.1146 -0.8792
16129TIP3    H269803   6.128   3.740  12.893  0.1147  0.5420  1.6541
16130TIP3   OH269804   4.922   2.956   2.151 -0.3806  0.0498 -0.4499
16130TIP3    H169805   4.869   2.911   2.084 -0.0997 -0.4917 -0.3107
16130TIP3    H269806   5.012   2.945   2.121 -0.2989  0.3953 -0.3336
16131TIP3   OH269807   0.105   6.741  14.179 -0.4273 -0.6428  0.8389
16131TIP3    H169808   0.183   6.731  14.233 -0.1739  0.4046  0.6944
16131TIP3    H269809   0.105   6.833  14.154 -0.6739 -1.0557 -0.7523
16132TIP3   OH269810   1.686   2.299   4.529 -0.4989  0.1444 -0.5053
16132TIP3    H169811   1.743   2.273   4.457  0.8502  0.0787  0.5519
16132TIP3    H269812   1.708   2.391   4.545 -0.6165  0.0944 -0.0338
16133TIP3   OH269813   0.338   4.182   4.952 -0.3267  0.2867  0.4019
16133TIP3    H169814   0.295   4.250   4.900  2.0684  1.8451  0.2912
16133TIP3    H269815   0.387   4.130   4.888  0.4327  0.5056  0.7916
16134TIP3   OH269816   1.838   3.176   1.198 -0.5735  0.2172 -0.2165
16134TIP3    H169817   1.792   3.206   1.277  0.1643 -0.2649  0.4069
16134TIP3    H269818   1.900   3.246   1.178  0.6552 -0.5339  0.8285
16135TIP3   OH269819   2.752   4.167  13.128  0.8492  0.1074 -0.6937
16135TIP3    H169820   2.802   4.177  13.046 -1.1598 -2.0196 -2.3031
16135TIP3    H269821   2.666   4.203  13.108  0.1222 -1.0418  0.2499
16136TIP3   OH269822   1.154   0.680   3.153  0.2885  0.1718 -0.2298
16136TIP3    H169823   1.133   0.755   3.098 -0.6465 -0.0758 -0.2242
16136TIP3    H269824   1.250   0.682   3.161  0.3025  1.1417 -0.5286
16137TIP3   OH269825   5.070   2.377  15.236 -0.0679 -0.1576 -0.1587
16137TIP3    H169826   5.119   2.379  15.154  0.3360 -0.0775  0.0762
16137TIP3    H269827   5.132   2.339  15.299 -0.4429 -0.4097  0.0623
16138TIP3   OH269828   3.583   2.183   0.243 -0.7701 -0.7798 -0.2001
16138TIP3    H169829   3.574   2.145   0.331  2.0476  0.3912  0.7274
16138TIP3    H269830   3.674   2.167   0.220 -1.0841  0.1933 -2.3130
16139TIP3   OH269831   3.385   1.414  13.582  0.0619 -0.4026  0.4780
16139TIP3    H169832   3.440   1.416  13.504 -0.8211 -0.7101 -0.1609
16139TIP3    H269833   3.314   1.474  13.563 -0.7633 -1.3260  0.5798
16140TIP3   OH269834   6.464   5.367  15.865  0.2435  0.4869  0.5336
16140TIP3    H169835   6.483   5.457  15.839 -1.3363  1.0221  1.1299
16140TIP3    H269836   6.369   5.361  15.863  0.3259 -1.5650 -0.7495
16141TIP3   OH269837   4.990   5.326  14.382 -0.6603  0.4388  0.0619
16141TIP3    H169838   5.034   5.406  14.355  1.1226  0.0372  1.5546
16141TIP3    H269839   5.036   5.299  14.462 -0.5052 -2.5980 -0.9102
16142TIP3   OH269840   3.501   5.511   0.367  0.0332  0.1776  0.3083
16142TIP3    H169841   3.527   5.597   0.333 -1.2900  0.4034 -0.1621
16142TIP3    H269842   3.426   5.529   0.423  0.5684 -0.5241  1.2867
16143TIP3   OH269843   3.636   4.059   1.274  0.2648  0.1856  0.1063
16143TIP3    H169844   3.657   4.023   1.360  0.0242  1.0158  0.5263
16143TIP3    H269845   3.552   4.103   1.287 -1.3093 -2.1968 -1.2893
16144TIP3   OH269846   2.028   0.414  15.993 -0.0024 -0.0744  0.3291
16144TIP3    H169847   1.939   0.448  15.983  0.1329  1.0633  2.3921
16144TIP3    H269848   2.081   0.492  16.012  1.0265 -0.9722  1.2501
16145TIP3   OH269849   3.617   1.874  16.691 -0.9411  0.0890 -0.0516
16145TIP3    H169850   3.542   1.817  16.673 -1.7855 -0.1721  3.6206
16145TIP3    H269851   3.630   1.868  16.785  1.3844  3.0677 -0.0386
16146TIP3   OH269852   5.241   3.599  14.327 -0.3943  0.3234  0.2020
16146TIP3    H169853   5.299   3.666  14.363 -1.0013  1.6681 -1.1973
16146TIP3    H269854   5.179   3.581  14.398 -1.1142  2.3545  0.1615
16147TIP3   OH269855   1.323   6.602   2.976 -0.2941  1.0656 -1.1822
16147TIP3    H169856   1.260   6.537   2.944 -0.6630 -0.7961  2.7267
16147TIP3    H269857   1.268   6.673   3.010 -0.5665 -0.5108  2.1286
16148TIP3   OH269858   5.427   5.767  10.990  0.2885 -0.5042  0.3751
16148TIP3    H169859   5.463   5.698  11.045 -0.7989 -1.1611  0.2828
16148TIP3    H269860   5.461   5.848  11.028  0.5356 -1.0112  1.2568
16149TIP3   OH269861   1.673   0.165  13.788  0.1718 -0.0356  0.2925
16149TIP3    H169862   1.759   0.132  13.763 -0.1247 -1.8508  1.4749
16149TIP3    H269863   1.690   0.220  13.865  0.2839 -0.4314  0.5551
16150TIP3   OH269864   1.797   1.024   0.021 -0.0922  0.2797 -0.2755
16150TIP3    H169865   1.782   1.049   0.112 -1.8054  2.3993 -1.0605
16150TIP3    H269866   1.732   0.955   0.005 -1.4348  1.5519 -0.5024
16151TIP3   OH269867   0.548   3.472   4.639  0.1716 -0.1803  0.0552
16151TIP3    H169868   0.498   3.424   4.572 -0.9313  0.7170  0.1899
16151TIP3    H269869   0.497   3.460   4.720  0.3497  0.4713  0.2729
16152TIP3   OH269870   0.439   0.038  16.935 -0.0829  0.3434 -0.1988
16152TIP3    H169871   0.362   0.072  16.980  0.1150  0.0280  0.3965
16152TIP3    H269872   0.484  -0.015  17.002  0.3170  0.0214 -0.7166
16153TIP3   OH269873   6.297   1.507   3.878 -0.1672 -0.2927  0.4538
16153TIP3    H169874   6.247   1.579   3.917 -0.7012 -0.5403  0.2438
16153TIP3    H269875   6.342   1.547   3.803 -1.0065 -0.3181 -0.0742
16154TIP3   OH269876   2.272   1.725   2.916  0.4537  0.2050  0.0351
16154TIP3    H169877   2.214   1.793   2.949 -0.5892 -0.9365  0.6562
16154TIP3    H269878   2.306   1.682   2.994 -0.0051 -0.8581 -0.3268
16155TIP3   OH269879   2.685   0.799  13.475 -0.5028 -0.3432 -0.0914
16155TIP3    H169880   2.700   0.747  13.396 -2.0262  2.6020 -2.5198
16155TIP3    H269881   2.590   0.804  13.484 -0.4138 -1.8962  2.9864
16156TIP3   OH269882   6.455   3.031   4.805 -0.2581 -0.1912 -0.1233
16156TIP3    H169883   6.376   3.041   4.859 -0.7099  1.5605 -1.0053
16156TIP3    H269884   6.427   3.058   4.718  0.9863 -0.8901 -0.7580
16157TIP3   OH269885   2.828   5.822  13.638 -0.2362  0.5558 -0.4192
16157TIP3    H169886   2.805   5.827  13.545 -2.2338 -0.5073 -0.0421
16157TIP3    H269887   2.783   5.896  13.678 -0.8256  0.0172 -0.0621
16158TIP3   OH269888   5.854   1.902  13.544  0.1075 -0.8129  0.0646
16158TIP3    H169889   5.819   1.988  13.520 -0.7002 -0.9150  0.7978
16158TIP3    H269890   5.894   1.915  13.630  1.6856 -0.7605 -0.6601
16159TIP3   OH269891   4.188   1.974   2.591 -0.1250  0.1620 -0.1398
16159TIP3    H169892   4.229   1.982   2.677  0.2111 -0.2929 -0.2602
16159TIP3    H269893   4.134   1.895   2.597  0.8764 -0.5879 -0.7426
16160TIP3   OH269894   3.260   1.944  16.583  0.3128 -0.3440  1.0390
16160TIP3    H169895   3.308   2.023  16.612  0.8662  1.0464 -3.0436
16160TIP3    H269896   3.328   1.877  16.575  0.5524 -0.0670  0.7276
16161TIP3   OH269897   3.609   1.150  16.612  0.5321 -0.1044 -0.6942
16161TIP3    H169898   3.536   1.210  16.594  0.3817  0.2178  0.8368
16161TIP3    H269899   3.605   1.086  16.541 -1.1821 -0.0302 -0.7232
16162TIP3   OH269900   1.630   5.195   1.898  0.3323 -0.7921 -0.2665
16162TIP3    H169901   1.685   5.256   1.849  0.3531 -1.5624 -1.2258
16162TIP3    H269902   1.624   5.118   1.843  1.1198 -2.0734  1.3499
16163TIP3   OH269903   1.665   5.940  14.989 -0.7023 -0.7761 -0.1872
16163TIP3    H169904   1.675   6.010  14.924 -2.0067 -0.2274  0.1709
16163TIP3    H269905   1.667   5.859  14.938  0.4947 -0.4657 -0.6440
16164TIP3   OH269906   1.388   1.893  11.927 -0.4980 -0.6889 -0.4644
16164TIP3    H169907   1.438   1.895  12.009 -0.6886  1.1929 -0.3526
16164TIP3    H269908   1.436   1.832  11.871  1.8905  0.9129 -0.3096
16165TIP3   OH269909   5.701   2.824   1.999 -0.2880  0.4423  0.1274
16165TIP3    H169910   5.754   2.748   2.025  3.6198  3.6551  2.7744
16165TIP3    H269911   5.736   2.850   1.914 -0.2184  0.4554  0.1602
16166TIP3   OH269912   3.023   6.307   2.624  0.1506  0.3323  0.2197
16166TIP3    H169913   3.111   6.319   2.658  0.4145 -0.2511 -0.2240
16166TIP3    H269914   2.997   6.220   2.655 -0.2678  0.5013  0.3470
16167TIP3   OH269915   6.127   0.025  15.632 -0.4571 -0.3455 -0.1297
16167TIP3    H169916   6.190   0.093  15.608 -1.0579 -0.7841 -3.4351
16167TIP3    H269917   6.182  -0.052  15.652  0.1766 -0.5629 -2.4204
16168TIP3   OH269918   6.455   2.447   3.262 -0.3985  0.1902 -0.0717
16168TIP3    H169919   6.492   2.393   3.333 -0.9877 -0.6073 -0.3604
16168TIP3    H269920   6.462   2.392   3.184 -2.9799 -0.3614  0.0098
16169TIP3   OH269921   4.725   1.284  14.116  0.6459 -0.4642 -0.3345
16169TIP3    H169922   4.716   1.373  14.149  0.3475 -0.7852  0.4801
16169TIP3    H269923   4.768   1.294  14.031  0.5025  0.4607 -0.3099
16170TIP3   OH269924   1.229   3.048   2.662 -0.0467  0.3303  0.1014
16170TIP3    H169925   1.319   3.048   2.630 -0.4590  1.8261 -1.2168
16170TIP3    H269926   1.208   3.141   2.674 -0.6635 -0.0845  2.7207
16171TIP3   OH269927   4.165   2.389   0.480 -0.6967 -0.0537 -0.5681
16171TIP3    H169928   4.194   2.384   0.389 -2.6628 -0.0801 -1.2411
16171TIP3    H269929   4.178   2.300   0.514  1.7554  0.3722 -0.2000
16172TIP3   OH269930   5.578   3.298  12.352 -0.1577  0.0113 -0.1486
16172TIP3    H169931   5.670   3.269  12.350 -0.2345 -0.2073 -0.7839
16172TIP3    H269932   5.572   3.354  12.429  0.5551  0.1606 -0.1964
16173TIP3   OH269933   1.617   5.285   6.485 -0.5209 -0.0852 -0.1810
16173TIP3    H169934   1.580   5.203   6.517 -0.1393 -0.2455 -0.1424
16173TIP3    H269935   1.710   5.266   6.471 -0.1832  0.6607  0.9412
16174TIP3   OH269936   2.696   3.838   1.324 -0.1929  0.0879  0.9937
16174TIP3    H169937   2.779   3.885   1.315  0.5496 -1.2688  0.4959
16174TIP3    H269938   2.678   3.840   1.418  2.0406 -2.2428  1.5704
16175TIP3   OH269939   1.413   5.107  11.528 -0.0215  0.1839 -0.2844
16175TIP3    H169940   1.342   5.128  11.467 -1.5570  1.5129  1.8166
16175TIP3    H269941   1.385   5.146  11.611  1.8708 -1.6823  1.3388
16176TIP3   OH269942   0.444   5.272  14.813 -0.3026  0.2001 -0.2295
16176TIP3    H169943   0.474   5.358  14.842 -0.7099  0.0241  0.7602
16176TIP3    H269944   0.376   5.290  14.748 -0.6306  0.6362  0.2300
16177TIP3   OH269945   3.838   1.597   4.320 -0.0253 -0.9312  0.1522
16177TIP3    H169946   3.766   1.535   4.326  0.1586 -1.0789  0.9697
16177TIP3    H269947   3.805   1.667   4.263 -1.4885 -0.1135  1.8984
16178TIP3   OH269948   6.504   4.795  12.896 -0.4650  0.2992  0.2704
16178TIP3    H169949   6.533   4.716  12.851 -0.1862  0.7049 -0.2710
16178TIP3    H269950   6.466   4.763  12.979  1.3083 -0.2723  0.9087
16179TIP3   OH269951   6.144   0.665  13.802  0.3918 -0.5468  0.3085
16179TIP3    H169952   6.149   0.587  13.748 -1.9683  0.5691 -1.7196
16179TIP3    H269953   6.181   0.735  13.748 -0.0331  0.2353  0.9990
16180TIP3   OH269954   2.163   2.181   5.807  0.2193 -0.3110  0.6684
16180TIP3    H169955   2.181   2.273   5.787  2.1373 -0.8608 -0.3973
16180TIP3    H269956   2.139   2.142   5.723 -2.5364 -0.4420  1.4224
16181TIP3   OH269957   5.702   6.573  15.266 -0.2136  0.1470 -0.5322
16181TIP3    H169958   5.767   6.633  15.301  0.1825 -0.6685  0.1401
16181TIP3    H269959   5.740   6.486  15.276 -0.8776 -0.2456 -1.2810
16182TIP3   OH269960   4.096   4.432   5.617 -0.4250 -0.4274  0.2490
16182TIP3    H169961   4.086   4.363   5.551 -2.7859 -0.1426  0.2249
16182TIP3    H269962   4.188   4.458   5.610 -0.4706 -0.6992 -2.6441
16183TIP3   OH269963   3.248   3.432  13.083  0.1505  0.2745 -0.5330
16183TIP3    H169964   3.337   3.447  13.051  0.6787 -0.4248  0.5558
16183TIP3    H269965   3.197   3.414  13.005  1.7954 -3.4735 -0.9283
16184TIP3   OH269966   1.559   4.687  11.980  0.1494  0.3689  0.1567
16184TIP3    H169967   1.475   4.660  12.017 -0.5309 -0.7994 -2.0889
16184TIP3    H269968   1.587   4.760  12.036 -0.8324 -1.1607  2.8341
16185TIP3   OH269969   3.985   5.545  11.330 -0.5414  0.6700  0.1266
16185TIP3    H169970   4.056   5.600  11.361 -0.5756 -0.2335  1.9322
16185TIP3    H269971   4.028   5.466  11.296 -0.6216  0.7142 -0.0841
16186TIP3   OH269972   5.710   5.854  16.337  0.2050 -0.1841 -0.2380
16186TIP3    H169973   5.792   5.809  16.357  0.5059 -0.7672 -2.5563
16186TIP3    H269974   5.727   5.945  16.359  1.0206 -0.5055  0.5277
16187TIP3   OH269975   1.164   4.360   3.769  0.2946  0.5407 -0.3053
16187TIP3    H169976   1.176   4.272   3.735 -0.3161  0.3596 -0.0751
16187TIP3    H269977   1.076   4.359   3.808  0.7285  0.9229  0.7158
16188TIP3   OH269978   5.198   5.713  13.408 -0.0587  0.1182  0.3217
16188TIP3    H169979   5.134   5.643  13.394 -0.3357  0.2264  1.0074
16188TIP3    H269980   5.199   5.761  13.324 -0.3138 -0.3375  0.0527
16189TIP3   OH269981   1.750   6.237   4.677 -0.2211  0.3209  0.5425
16189TIP3    H169982   1.721   6.168   4.616 -1.9771 -0.4844  2.2034
16189TIP3    H269983   1.673   6.293   4.688 -0.2285 -0.0399  2.6302
16190TIP3   OH269984   2.665   6.192   2.804 -0.5411 -0.3186 -0.1311
16190TIP3    H169985   2.688   6.107   2.767 -2.6173 -0.7420 -0.6176
16190TIP3    H269986   2.703   6.256   2.745  1.2890 -0.8618  0.3904
16191TIP3   OH269987   6.596   4.135  15.088  0.2877  0.1242 -0.3632
16191TIP3    H169988   6.618   4.067  15.151 -1.6839 -1.1693 -0.9684
16191TIP3    H269989   6.602   4.093  15.003 -3.5400 -0.2408 -0.6344
16192TIP3   OH269990   4.217   4.607   1.859 -0.5513 -0.5845 -0.1682
16192TIP3    H169991   4.282   4.542   1.885  0.1681  0.5815  1.0578
16192TIP3    H269992   4.158   4.613   1.934 -1.9382 -1.3886 -1.1398
16193TIP3   OH269993   5.035   3.729  12.311 -0.1803 -0.2722 -0.0504
16193TIP3    H169994   5.116   3.780  12.312 -0.9585  1.0123  1.7862
16193TIP3    H269995   4.975   3.776  12.369 -1.5886 -2.2519  0.2195
16194TIP3   OH269996   5.231   3.213  14.604  0.1811 -0.2919 -0.1632
16194TIP3    H169997   5.140   3.188  14.587  0.1260 -0.7873  0.8084
16194TIP3    H269998   5.225   3.298  14.648  0.2079 -0.1711 -0.3902
16195TIP3   OH269999   2.288   1.506  10.832  0.6115 -0.0199 -0.6306
16195TIP3    H170000   2.328   1.438  10.886  1.0502  0.2400 -0.6248
16195TIP3    H270001   2.251   1.459  10.758 -0.3758 -0.4337  0.0971
16196TIP3   OH270002   1.034   6.107   2.844  0.3247 -0.1403 -0.6017
16196TIP3    H170003   1.025   6.142   2.932  0.5732  0.0984 -0.6666
16196TIP3    H270004   0.958   6.051   2.831  0.8568 -1.0670  0.1659
16197TIP3   OH270005   3.552   1.070  12.159 -0.4199  0.1423 -0.2149
16197TIP3    H170006   3.565   1.091  12.067  0.2645 -0.3012 -0.2238
16197TIP3    H270007   3.493   0.995  12.158  0.6011 -0.6795 -0.3532
16198TIP3   OH270008   6.743   3.478  14.160 -0.1846 -0.0164 -0.2431
16198TIP3    H170009   6.802   3.544  14.123 -1.6244  2.2290  1.2002
16198TIP3    H270010   6.682   3.459  14.089 -0.5233  1.2302 -0.3197
16199TIP3   OH270011   5.438   1.190   4.671  0.1427  0.1770 -0.1513
16199TIP3    H170012   5.497   1.147   4.609  1.4216  1.0152  0.4410
16199TIP3    H270013   5.393   1.119   4.716 -0.8539 -0.4627 -2.0354
16200TIP3   OH270014   2.417   4.616   4.823  0.0772  0.0001  0.3894
16200TIP3    H170015   2.427   4.631   4.917 -0.7169  2.6415  0.1492
16200TIP3    H270016   2.421   4.703   4.784  0.8342 -1.0517 -2.1105
16201TIP3   OH270017   5.854   4.630  15.977  0.3003 -0.1145 -0.3191
16201TIP3    H170018   5.786   4.592  15.922 -1.6838 -0.4868  2.2151
16201TIP3    H270019   5.844   4.725  15.964  0.3742 -0.2130 -1.1535
16202TIP3   OH270020   5.996   6.559   3.563 -0.1955  0.6034 -0.0783
16202TIP3    H170021   5.936   6.585   3.632 -0.3893  0.5452 -0.2254
16202TIP3    H270022   6.079   6.543   3.608 -0.0763  1.4698  0.0131
16203TIP3   OH270023   3.317   2.002  16.935  0.0815 -0.1105  0.2638
16203TIP3    H170024   3.247   2.061  16.960  0.0012 -1.1619  2.7988
16203TIP3    H270025   3.343   2.031  16.848 -3.2098  0.5659 -0.6341
16204TIP3   OH270026   5.867   3.255  15.610  0.0955  0.5702  0.1848
16204TIP3    H170027   5.931   3.253  15.681 -0.2030 -0.8120  0.4525
16204TIP3    H270028   5.806   3.184  15.631 -1.6672  1.9769  0.0501
16205TIP3   OH270029   1.530   0.400   4.841  0.0147  0.8394  0.0868
16205TIP3    H170030   1.493   0.472   4.790  0.2614  0.0910 -1.2143
16205TIP3    H270031   1.622   0.422   4.852 -0.2382  1.4564  1.0584
16206TIP3   OH270032   5.410   4.066  16.129  0.1557  0.4130  0.3383
16206TIP3    H170033   5.342   4.131  16.147  0.2394  1.1354 -1.7407
16206TIP3    H270034   5.424   4.071  16.035  2.5683 -0.2658  0.5980
16207TIP3   OH270035   2.453   2.429  12.412  0.8357 -0.3415  0.0066
16207TIP3    H170036   2.388   2.386  12.355 -1.5372  1.7273  0.9711
16207TIP3    H270037   2.484   2.503  12.360 -1.2937  1.5178  1.2297
16208TIP3   OH270038   2.646   4.957  16.675 -0.3616  0.0587 -0.1982
16208TIP3    H170039   2.604   5.040  16.696 -0.8759 -0.0733 -0.6550
16208TIP3    H270040   2.599   4.926  16.597  1.8920  0.8580 -1.9795
16209TIP3   OH270041   2.668   1.189   1.987  0.6505 -0.8344 -0.1778
16209TIP3    H170042   2.687   1.236   2.068  1.2376 -0.2647 -0.6362
16209TIP3    H270043   2.655   1.098   2.014  0.8276 -0.6445  0.5548
16210TIP3   OH270044   6.102   0.793  16.140  0.0089 -0.4688 -0.1196
16210TIP3    H170045   6.037   0.823  16.077 -2.5569 -2.2791  1.4582
16210TIP3    H270046   6.128   0.707  16.108  0.4006 -0.4303  0.0975
16211TIP3   OH270047   1.097   3.517   3.824  0.0764  0.3985  0.4293
16211TIP3    H170048   1.069   3.578   3.755 -0.1297 -1.3185 -1.0669
16211TIP3    H270049   1.151   3.571   3.882 -0.6535  2.1682 -0.4360
16212TIP3   OH270050   4.408   2.132  15.588 -0.2716  0.6380 -0.2006
16212TIP3    H170051   4.332   2.108  15.642  2.1062 -0.8973  2.7623
16212TIP3    H270052   4.451   2.202  15.637  2.5090 -1.4489  0.5968
16213TIP3   OH270053   1.937   0.704  15.455 -0.0343 -0.0997  0.3321
16213TIP3    H170054   1.981   0.785  15.481 -1.5244  0.1941  2.1716
16213TIP3    H270055   1.995   0.634  15.484  1.4605  0.2561 -1.6405
16214TIP3   OH270056   2.702   5.563   3.424 -0.8134  0.0527 -0.5071
16214TIP3    H170057   2.699   5.479   3.469 -1.9799  0.5109  0.3342
16214TIP3    H270058   2.615   5.600   3.438  0.3579  2.4463  1.2236
16215TIP3   OH270059   4.387   5.737  13.048  0.3545 -0.3693  0.1299
16215TIP3    H170060   4.333   5.793  13.104 -0.1980 -0.8013  0.0404
16215TIP3    H270061   4.406   5.661  13.103  0.6670 -0.3301  0.0751
16216TIP3   OH270062   3.430   5.872  16.705  0.1413 -0.5853 -0.1456
16216TIP3    H170063   3.485   5.942  16.669  2.2787 -2.5587 -1.0048
16216TIP3    H270064   3.367   5.853  16.636 -0.0674  0.0782 -0.1454
16217TIP3   OH270065   6.366   5.662   0.789  0.4680 -0.4572 -0.4778
16217TIP3    H170066   6.350   5.602   0.717 -1.3055 -0.1346 -0.3831
16217TIP3    H270067   6.432   5.723   0.755  0.0482 -0.6308 -1.6418
16218TIP3   OH270068   4.536   4.767  11.660 -0.1661  0.1598 -0.4562
16218TIP3    H170069   4.624   4.743  11.686  1.3576  4.7849 -0.4507
16218TIP3    H270070   4.525   4.730  11.573  1.3794 -1.2389 -0.0879
16219TIP3   OH270071   2.095   1.843   2.047 -0.1557  0.1090  0.6983
16219TIP3    H170072   2.066   1.925   2.007  2.2791  1.6956  1.9129
16219TIP3    H270073   2.100   1.862   2.141  1.8890 -0.8841  0.8662
16220TIP3   OH270074   3.601   2.540  15.061 -0.2808  0.4398 -0.2537
16220TIP3    H170075   3.686   2.519  15.022 -0.9048 -0.8146 -1.0213
16220TIP3    H270076   3.620   2.547  15.155  0.6375 -0.0730 -0.3787
16221TIP3   OH270077   4.847   4.964   0.876 -0.4009  0.1647  0.0383
16221TIP3    H170078   4.756   4.944   0.896  0.0803 -0.6112  1.6987
16221TIP3    H270079   4.845   5.050   0.834 -1.9171 -0.0572 -0.4016
16222TIP3   OH270080   1.654   6.312   2.529 -0.4520 -0.3125 -0.6019
16222TIP3    H170081   1.602   6.371   2.583  0.0748  0.4725 -0.9399
16222TIP3    H270082   1.646   6.347   2.440  0.4390 -0.3209 -0.6991
16223TIP3   OH270083   4.304   0.539  16.989 -0.2609  0.2681 -0.6283
16223TIP3    H170084   4.385   0.548  17.038  0.5837  0.0528 -1.9236
16223TIP3    H270085   4.317   0.461  16.935 -2.2212 -1.0832  0.7225
16224TIP3   OH270086   1.276   2.075  12.835 -0.2147 -0.2485 -0.1364
16224TIP3    H170087   1.199   2.060  12.889 -0.6723  0.6132 -0.5434
16224TIP3    H270088   1.250   2.143  12.773  0.5754 -0.6113 -0.8910
16225TIP3   OH270089   4.386   0.808  16.963 -0.2019 -0.1163  0.0026
16225TIP3    H170090   4.337   0.726  16.956  0.6023 -0.5757 -0.3924
16225TIP3    H270091   4.418   0.810  17.053 -0.8302  0.1267  0.2264
16226TIP3   OH270092   1.340   1.920  14.264  0.8300  0.2848 -0.4568
16226TIP3    H170093   1.276   1.907  14.194  0.0043  2.9868 -0.3507
16226TIP3    H270094   1.425   1.916  14.221  0.4759 -0.7788 -1.0844
16227TIP3   OH270095   2.514   4.947   1.987  0.0914 -0.0914 -0.2621
16227TIP3    H170096   2.448   4.890   2.025  0.5715 -0.7242 -0.3556
16227TIP3    H270097   2.494   5.034   2.021 -0.6675 -0.3076 -0.1421
16228TIP3   OH270098   4.090   4.494  15.063 -0.2943  0.3475  0.6591
16228TIP3    H170099   4.092   4.435  15.138 -1.9917  0.3118  0.7146
16228TIP3    H270100   4.118   4.441  14.989 -1.2583 -0.4064  0.8085
16229TIP3   OH270101   1.035   2.852   3.126  0.2187 -0.3460 -0.1864
16229TIP3    H170102   1.123   2.851   3.164 -0.1206  0.1084  0.6394
16229TIP3    H270103   1.007   2.944   3.134 -0.8492 -0.7339  0.8070
16230TIP3   OH270104   4.913   3.058  16.243  0.3204  0.3241  0.5241
16230TIP3    H170105   4.917   3.106  16.326  0.9084  0.8393  0.2079
16230TIP3    H270106   4.982   3.097  16.189 -0.3056  0.2647 -0.3504
16231TIP3   OH270107   5.362   2.795   3.060 -0.8851  0.3755 -0.3794
16231TIP3    H170108   5.414   2.873   3.079  0.4747 -0.2747 -1.3201
16231TIP3    H270109   5.390   2.731   3.124 -1.9845  0.6169  0.3758
16232TIP3   OH270110   5.776   4.980   0.972 -0.3046  0.1413 -0.1574
16232TIP3    H170111   5.815   5.066   0.959  0.0837  0.0942  0.6066
16232TIP3    H270112   5.687   4.988   0.940 -0.3524  0.9129  0.1589
16233TIP3   OH270113   6.096   2.478  14.693  0.7391  0.3108 -0.3283
16233TIP3    H170114   6.188   2.501  14.704  0.6079  0.1679  1.2563
16233TIP3    H270115   6.055   2.502  14.776 -0.9790  1.8199 -1.5206
16234TIP3   OH270116   4.767   3.312  12.608  0.3050 -0.2772 -0.0132
16234TIP3    H170117   4.810   3.310  12.693  0.6921  0.2792 -0.1875
16234TIP3    H270118   4.781   3.224  12.572  1.0269 -0.2053  0.0707
16235TIP3   OH270119   0.605   1.152   1.341  0.9462  0.3895  0.1247
16235TIP3    H170120   0.528   1.100   1.317  0.2659  0.6340  1.6427
16235TIP3    H270121   0.578   1.242   1.325  1.0301  0.4570  0.3639
16236TIP3   OH270122   0.600   3.669   4.947 -0.9226  0.2835  0.0678
16236TIP3    H170123   0.628   3.578   4.935 -1.4414  0.1125  0.1545
16236TIP3    H270124   0.634   3.693   5.033  2.0154  1.2180 -1.1928
16237TIP3   OH270125   0.695   6.152   2.956 -0.3115  0.3955 -0.0561
16237TIP3    H170126   0.623   6.111   3.005 -0.5988  0.8301 -0.1000
16237TIP3    H270127   0.758   6.082   2.941 -0.7014  0.0223  0.0395
16238TIP3   OH270128   5.060   0.970  11.285 -0.4707  0.2173 -0.4517
16238TIP3    H170129   5.002   1.012  11.222  0.4576  1.1958 -0.6826
16238TIP3    H270130   5.042   1.015  11.368  1.3569  2.0081 -0.9310
16239TIP3   OH270131   4.554   1.396   0.356 -0.4990 -0.0253  0.2663
16239TIP3    H170132   4.604   1.406   0.437  2.2558 -0.0301 -1.2791
16239TIP3    H270133   4.521   1.306   0.359  3.6333 -1.8297 -0.5238
16240TIP3   OH270134   1.738   5.670  15.181  0.1674  0.1522 -0.8623
16240TIP3    H170135   1.701   5.614  15.249  0.4227  0.8728 -0.1220
16240TIP3    H270136   1.665   5.724  15.151 -0.5040 -1.6429 -2.7482
16241TIP3   OH270137   1.550   4.201   0.575  0.1166 -0.0489  0.1532
16241TIP3    H170138   1.505   4.129   0.532  0.4995  0.3059 -0.8645
16241TIP3    H270139   1.569   4.168   0.663 -0.4356 -0.8798 -0.0263
16242TIP3   OH270140   3.650   2.821   0.239  0.4538  0.2167 -0.6450
16242TIP3    H170141   3.633   2.894   0.299  2.1293  1.1001 -1.1850
16242TIP3    H270142   3.665   2.746   0.296 -1.2817  0.2374 -0.0792
16243TIP3   OH270143   3.627   3.186   5.794 -0.0440 -1.1297  0.0418
16243TIP3    H170144   3.579   3.256   5.837 -0.4231  0.0019 -2.1191
16243TIP3    H270145   3.718   3.215   5.793 -0.0696 -1.0550 -0.1165
16244TIP3   OH270146   4.910   4.524   2.705  0.6538  0.2931  0.4050
16244TIP3    H170147   4.929   4.606   2.659  1.1921 -0.4147 -0.6852
16244TIP3    H270148   4.940   4.455   2.645 -0.9491 -0.7477  0.7363
16245TIP3   OH270149   1.656   6.677  15.506 -0.1211 -0.0812  0.6337
16245TIP3    H170150   1.676   6.591  15.543 -0.3281  0.1249  1.2473
16245TIP3    H270151   1.739   6.709  15.472  0.0602 -0.3157  0.8517
16246TIP3   OH270152   0.420   4.265  15.837 -0.2904  0.0664  0.0345
16246TIP3    H170153   0.435   4.186  15.888  1.3603  1.4995  1.8882
16246TIP3    H270154   0.505   4.285  15.798 -0.6947  0.9346 -0.4341
16247TIP3   OH270155   3.343   6.405   4.158  0.2055  0.0004 -0.0730
16247TIP3    H170156   3.302   6.319   4.152 -0.5325  0.4394 -2.3716
16247TIP3    H270157   3.416   6.401   4.096 -0.3524  1.2609 -0.8504
16248TIP3   OH270158   4.962   3.726  13.787 -0.4665  0.2205 -0.1268
16248TIP3    H170159   5.052   3.759  13.781 -0.7202  1.3127  1.4929
16248TIP3    H270160   4.937   3.709  13.696  0.5985  2.0313 -0.8143
16249TIP3   OH270161   5.432   4.898  13.759 -0.2307 -0.0311 -0.0909
16249TIP3    H170162   5.488   4.851  13.698  0.8546  1.8826 -0.6724
16249TIP3    H270163   5.355   4.922  13.707  0.4828  1.1930 -0.6257
16250TIP3   OH270164   4.472   2.788   4.497  0.1582 -0.4433  0.4011
16250TIP3    H170165   4.446   2.877   4.475  0.5440  0.2129  2.3249
16250TIP3    H270166   4.527   2.760   4.424 -2.8006 -0.5192 -1.9769
16251TIP3   OH270167   5.178   6.582  12.109 -0.4000 -0.0450  0.3772
16251TIP3    H170168   5.148   6.572  12.019  0.1355  0.4751  0.1337
16251TIP3    H270169   5.200   6.493  12.137 -0.9222 -0.2538  0.1205
16252TIP3   OH270170   2.948   2.960   2.107 -0.0168 -0.2332  0.5087
16252TIP3    H170171   2.994   3.044   2.107  1.5869 -1.0836  0.0508
16252TIP3    H270172   2.880   2.970   2.174  0.9326  1.0031  1.3330
16253TIP3   OH270173   3.346   3.003   4.096 -0.1423  0.5234 -0.0823
16253TIP3    H170174   3.321   2.971   4.183 -0.0943 -1.5914 -0.7917
16253TIP3    H270175   3.440   3.016   4.101 -0.1129  0.2265  0.1372
16254TIP3   OH270176   3.651   3.780  14.125 -0.3131 -0.3807 -0.1013
16254TIP3    H170177   3.657   3.778  14.029  1.9620 -2.0242 -0.0045
16254TIP3    H270178   3.742   3.793  14.154 -1.0060  0.4552  1.8618
16255TIP3   OH270179   2.154   3.612  15.330 -0.1633 -0.5414  0.2782
16255TIP3    H170180   2.244   3.642  15.325  0.1375 -1.3861  0.4571
16255TIP3    H270181   2.139   3.567  15.247 -1.0135  1.1410 -0.5324
16256TIP3   OH270182   1.704   1.644  15.406 -0.2694 -0.2426  0.5022
16256TIP3    H170183   1.786   1.675  15.366 -0.7414 -0.8611 -1.0404
16256TIP3    H270184   1.658   1.724  15.432 -0.1601  0.2239 -0.6852
16257TIP3   OH270185   6.485   5.395  14.134 -1.2520  0.2672 -0.2322
16257TIP3    H170186   6.560   5.341  14.110 -1.6895 -2.2150  3.2799
16257TIP3    H270187   6.442   5.414  14.051 -0.3906 -3.8698 -1.8428
16258TIP3   OH270188   6.161   4.648  16.900  0.7061 -0.0016  0.4245
16258TIP3    H170189   6.125   4.734  16.921  1.0973 -0.0362  1.2926
16258TIP3    H270190   6.103   4.614  16.831  1.7996  1.8144 -1.4974
16259TIP3   OH270191   6.575   5.619   1.713  0.6607  0.7264  0.0380
16259TIP3    H170192   6.622   5.701   1.727  0.6485  0.7521 -0.0692
16259TIP3    H270193   6.641   5.559   1.679  0.2386  1.3115 -2.0006
16260TIP3   OH270194   0.263   0.020  16.331 -0.0798 -0.3603 -0.0720
16260TIP3    H170195   0.249  -0.005  16.422 -1.6764 -0.5270 -0.3468
16260TIP3    H270196   0.215   0.102  16.321 -0.5086 -0.7185 -0.9594
16261TIP3   OH270197   1.082   1.033  11.872 -0.2848  0.5547  0.0857
16261TIP3    H170198   1.050   1.033  11.782  1.7618  0.2953 -0.6812
16261TIP3    H270199   1.107   1.124  11.889  2.0074  0.1086 -0.6531
16262TIP3   OH270200   0.856   6.401  16.366 -0.1008 -0.1592  0.1377
16262TIP3    H170201   0.937   6.350  16.358  0.5437  1.0810 -1.8047
16262TIP3    H270202   0.820   6.403  16.278 -1.1134  1.1332  0.5538
16263TIP3   OH270203   0.941   1.479   4.954 -0.1840  0.2471  0.1025
16263TIP3    H170204   0.997   1.403   4.970 -2.3853 -1.3125  1.0565
16263TIP3    H270205   0.907   1.465   4.865 -1.7478 -0.7896  0.8088
16264TIP3   OH270206   3.809   2.285  15.183  0.5270 -0.1011  0.1036
16264TIP3    H170207   3.787   2.327  15.266 -0.8162 -0.7883  0.1267
16264TIP3    H270208   3.748   2.212  15.177  0.6084 -0.0664 -1.4872
16265TIP3   OH270209   6.500   3.027  13.588  0.1450 -0.2492 -0.1517
16265TIP3    H170210   6.538   3.095  13.644 -0.4899  1.9106 -2.1585
16265TIP3    H270211   6.539   3.043  13.502 -1.5689 -1.1225 -1.1381
16266TIP3   OH270212   0.954   2.280  11.727 -0.3620  0.2111 -0.1095
16266TIP3    H170213   1.005   2.216  11.776  1.0256  2.1175  1.0676
16266TIP3    H270214   1.000   2.289  11.643  0.5983  1.0340  0.4804
16267TIP3   OH270215   4.801   1.245  17.200  0.4464  0.2776  0.1943
16267TIP3    H170216   4.711   1.218  17.182  0.3072  0.8697 -0.0290
16267TIP3    H270217   4.792   1.324  17.252  0.8284  0.7926 -0.5023
16268TIP3   OH270218   4.562   4.483  11.019  0.6803  0.3432  0.5573
16268TIP3    H170219   4.610   4.551  11.067  0.8601  2.0539 -1.8313
16268TIP3    H270220   4.593   4.492  10.929 -1.3099 -1.1380 -0.3420
16269TIP3   OH270221   6.338   5.677  16.874  0.2712  0.2516 -0.3667
16269TIP3    H170222   6.293   5.659  16.957 -0.6542  1.0610 -0.6770
16269TIP3    H270223   6.329   5.772  16.862  0.6397  0.1819 -1.2631
16270TIP3   OH270224   6.722   3.188   0.676 -0.3532 -0.1430 -0.1865
16270TIP3    H170225   6.689   3.278   0.684 -1.0686 -0.2055 -2.0475
16270TIP3    H270226   6.787   3.193   0.606 -0.0246 -0.9905  0.0509
16271TIP3   OH270227   2.685   6.107   5.727 -0.7956  0.2801 -0.2331
16271TIP3    H170228   2.771   6.070   5.748  0.0725  2.3304  0.0651
16271TIP3    H270229   2.686   6.193   5.768 -2.6536  0.7022 -1.0081
16272TIP3   OH270230   0.318   3.853  13.536  0.2968  0.1719 -0.2173
16272TIP3    H170231   0.371   3.867  13.458  1.3292  0.8842  0.5776
16272TIP3    H270232   0.262   3.931  13.541  1.3764  0.9136  0.6159
16273TIP3   OH270233   1.757   4.626   4.967  0.1554 -0.0051 -0.0395
16273TIP3    H170234   1.760   4.617   5.063  0.5454 -0.2423 -0.0719
16273TIP3    H270235   1.803   4.709   4.950  0.6129 -0.2576 -0.0588
16274TIP3   OH270236   3.590   5.583   2.865  0.0717  0.8663 -0.2715
16274TIP3    H170237   3.622   5.658   2.915 -1.5267  0.8426  0.8502
16274TIP3    H270238   3.670   5.541   2.833  1.0520  2.2862  0.1867
16275TIP3   OH270239   2.238   0.655  15.203 -0.1404 -0.7260  0.2456
16275TIP3    H170240   2.273   0.656  15.292 -1.1106 -1.6696  0.6487
16275TIP3    H270241   2.262   0.568  15.169  0.4252 -0.2918 -0.5140
16276TIP3   OH270242   5.015   1.699  13.475 -0.0421 -0.3889  0.1290
16276TIP3    H170243   5.096   1.736  13.440 -0.3523 -0.4223 -0.6412
16276TIP3    H270244   5.024   1.605  13.462  0.9295 -0.6907  2.4707
16277TIP3   OH270245   5.833   3.228   5.282 -0.5020 -0.0124  0.6769
16277TIP3    H170246   5.891   3.290   5.239 -0.5468 -1.5167 -1.7463
16277TIP3    H270247   5.746   3.267   5.275 -0.6506 -0.6356 -1.5761
16278TIP3   OH270248   6.537   5.341  13.628  0.1493 -0.1160 -0.3534
16278TIP3    H170249   6.618   5.325  13.580  0.6422  1.0243  0.0488
16278TIP3    H270250   6.551   5.426  13.670 -1.0920 -0.1035  0.0739
16279TIP3   OH270251   6.523   3.276  16.069 -0.0588  0.4904  0.2827
16279TIP3    H170252   6.537   3.215  16.141  4.5257  0.6827 -0.1745
16279TIP3    H270253   6.491   3.356  16.111  0.4077 -0.0912  1.7996
16280TIP3   OH270254   3.730   4.748   0.501  0.3324  0.1582  0.5743
16280TIP3    H170255   3.648   4.791   0.527  0.0854  1.2438 -1.7340
16280TIP3    H270256   3.797   4.791   0.554 -0.5032 -0.6161  2.3673
16281TIP3   OH270257   0.645   6.603  11.901 -0.5144 -0.1758  0.3177
16281TIP3    H170258   0.662   6.688  11.942 -0.3814  0.8927 -1.8398
16281TIP3    H270259   0.554   6.609  11.870 -0.2031 -0.4437 -0.6736
16282TIP3   OH270260   0.897   6.287   6.245  0.0223 -0.1408 -0.1174
16282TIP3    H170261   0.934   6.202   6.270  0.4051 -0.0575 -0.3879
16282TIP3    H270262   0.916   6.344   6.319 -0.7296 -0.4306  0.3022
16283TIP3   OH270263   5.693   5.623  14.566 -0.4136 -0.4971 -0.2073
16283TIP3    H170264   5.765   5.578  14.611  0.3401 -0.7147 -1.5809
16283TIP3    H270265   5.734   5.661  14.488 -1.8309 -0.8250 -1.1399
16284TIP3   OH270266   2.864   1.371   0.290 -0.6112  0.1864 -0.3435
16284TIP3    H170267   2.919   1.331   0.223 -0.4002 -1.3104  0.6728
16284TIP3    H270268   2.775   1.340   0.270 -0.4109 -1.0359  0.5929
16285TIP3   OH270269   0.655   1.609   1.480  0.0377 -0.2412  0.3361
16285TIP3    H170270   0.607   1.690   1.497  1.9670  0.6879  1.6744
16285TIP3    H270271   0.588   1.541   1.475 -1.5137  1.2368  0.4663
16286TIP3   OH270272   2.896   4.317  16.346 -0.0341 -0.5525  0.4653
16286TIP3    H170273   2.982   4.294  16.310  0.0099  0.1085  0.1266
16286TIP3    H270274   2.892   4.271  16.430  1.0945  0.2475  0.9800
16287TIP3   OH270275   0.236   2.787   6.130 -0.5588 -0.7156 -0.2019
16287TIP3    H170276   0.238   2.717   6.197 -1.0863 -0.1880  0.3731
16287TIP3    H270277   0.169   2.847   6.160 -0.1232  0.0373 -0.7111
16288TIP3   OH270278   2.347   0.996  12.209  0.0551 -0.1923 -0.4517
16288TIP3    H170279   2.273   0.954  12.166 -0.4342 -1.2445  1.2967
16288TIP3    H270280   2.321   1.088  12.216 -0.3695 -0.2376 -1.2671
16289TIP3   OH270281   0.134   2.634  15.061 -0.5727  0.5775 -0.1648
16289TIP3    H170282   0.138   2.694  15.136 -0.4336  0.1359  0.1875
16289TIP3    H270283   0.136   2.547  15.100 -1.0826  0.3385 -0.6576
16290TIP3   OH270284   2.942   6.375   0.391  0.2228  0.0189 -0.4063
16290TIP3    H170285   2.877   6.408   0.453  1.5597  1.2054  0.4304
16290TIP3    H270286   2.944   6.440   0.322  1.2801  0.5940  0.1330
16291TIP3   OH270287   2.137   2.859   2.834 -0.4183  0.3357  0.0079
16291TIP3    H170288   2.199   2.855   2.761 -0.6608 -2.7330 -0.1465
16291TIP3    H270289   2.188   2.897   2.906  1.2788 -0.8292 -0.5078
16292TIP3   OH270290   0.302   4.482  14.074  0.0363  0.2900 -0.3030
16292TIP3    H170291   0.307   4.533  13.994 -0.9925  1.2664  0.2207
16292TIP3    H270292   0.379   4.425  14.072  0.1961  0.5277 -1.8080
16293TIP3   OH270293   2.967   3.533  13.594  0.2321 -0.4398  0.2309
16293TIP3    H170294   2.904   3.534  13.522  2.2242 -0.7180 -1.6368
16293TIP3    H270295   2.935   3.464  13.653 -1.1912 -0.5721 -0.6452
16294TIP3   OH270296   5.579   1.018  12.784  0.6405 -0.6574 -0.4934
16294TIP3    H170297   5.661   0.969  12.775  1.2473  0.3137 -0.3468
16294TIP3    H270298   5.578   1.077  12.709  0.6872  0.2166  0.1845
16295TIP3   OH270299   2.504   5.686  15.364 -0.1643 -0.2105  0.2326
16295TIP3    H170300   2.579   5.662  15.310  0.6414 -0.1836  1.2960
16295TIP3    H270301   2.447   5.735  15.305  0.0435 -1.3191 -0.9215
16296TIP3   OH270302   4.781   3.817   5.836 -0.4203  0.3083  0.6376
16296TIP3    H170303   4.844   3.885   5.811 -1.0053  0.6315 -0.0043
16296TIP3    H270304   4.799   3.800   5.929  0.0533  0.9990  0.6784
16297TIP3   OH270305   3.062   4.342  13.800 -0.0490  0.1719 -0.0917
16297TIP3    H170306   3.137   4.301  13.844  0.9484  0.3421 -1.5835
16297TIP3    H270307   3.097   4.422  13.763 -1.5902  1.5827  1.3252
16298TIP3   OH270308   5.975   3.134   3.497  0.3595  0.0890  0.9190
16298TIP3    H170309   6.047   3.102   3.443  0.5143  0.3931  0.9422
16298TIP3    H270310   5.896   3.098   3.457  0.5035 -0.0124  0.7271
16299TIP3   OH270311   2.130   3.034  14.731  0.1543 -0.5913  0.6407
16299TIP3    H170312   2.202   3.070  14.680  0.9583 -0.5033  1.7942
16299TIP3    H270313   2.173   2.989  14.804 -0.9530  1.5168  2.7315
16300TIP3   OH270314   2.337   0.610  11.204 -0.1547 -0.3084  0.1381
16300TIP3    H170315   2.370   0.520  11.201 -1.3796 -0.7540 -2.1668
16300TIP3    H270316   2.331   0.636  11.113  0.8882  2.4453  0.7564
16301TIP3   OH270317   0.931   3.589  16.495  0.3659  0.3762 -0.2448
16301TIP3    H170318   0.844   3.587  16.455 -0.1247  0.4818  0.7787
16301TIP3    H270319   0.972   3.508  16.466  0.9643  1.5137 -2.8931
16302TIP3   OH270320   1.892   5.398   0.291  0.4052  0.1512  0.6339
16302TIP3    H170321   1.930   5.485   0.273  0.0396  0.6173  2.0039
16302TIP3    H270322   1.805   5.401   0.251  0.2973  0.5147  0.8871
16303TIP3   OH270323   1.742   5.812  11.617  0.5853 -0.0028  0.7923
16303TIP3    H170324   1.710   5.874  11.683  0.3852 -0.2735  0.9524
16303TIP3    H270325   1.721   5.726  11.653  0.2393 -0.1462  0.2577
16304TIP3   OH270326   2.573   0.640  15.204  0.2812  0.6592 -0.4877
16304TIP3    H170327   2.540   0.553  15.183  0.8490  0.3863 -0.2695
16304TIP3    H270328   2.652   0.624  15.255  0.4502  1.3027 -0.5392
16305TIP3   OH270329   4.720   6.036  12.234  0.0045  0.1843 -0.4035
16305TIP3    H170330   4.664   6.014  12.159  0.1439  1.2840 -0.8400
16305TIP3    H270331   4.809   6.024  12.201  0.0650  0.6103 -0.4011
16306TIP3   OH270332   1.627   5.127  13.124 -0.6221  0.5697 -0.1320
16306TIP3    H170333   1.668   5.189  13.065  0.8073  1.5269  1.7545
16306TIP3    H270334   1.533   5.144  13.116 -0.4371  0.9994 -1.7012
16307TIP3   OH270335   4.142   0.595   2.353 -0.3355 -0.0161 -0.1761
16307TIP3    H170336   4.103   0.576   2.267  0.3706  0.2619 -0.5580
16307TIP3    H270337   4.117   0.685   2.371 -0.5917 -0.1144 -0.0216
16308TIP3   OH270338   1.341   3.004  12.943 -0.5530  0.0195 -0.1910
16308TIP3    H170339   1.417   3.052  12.911  0.8082 -2.8141 -1.6618
16308TIP3    H270340   1.373   2.956  13.019 -1.2429 -0.2152 -0.0417
16309TIP3   OH270341   5.667   3.642  15.664  0.3761 -0.1378 -0.0323
16309TIP3    H170342   5.731   3.707  15.636  1.0317 -0.5668  0.4275
16309TIP3    H270343   5.698   3.559  15.627 -0.5015 -0.1869 -0.6898
16310TIP3   OH270344   6.455   1.261   4.651 -0.1969 -0.3880  0.7026
16310TIP3    H170345   6.532   1.268   4.595 -1.5664  0.2043 -1.2496
16310TIP3    H270346   6.489   1.245   4.739  2.2412  2.0858  0.3521
16311TIP3   OH270347   0.676   6.250  11.022 -0.5164  0.1923  0.2955
16311TIP3    H170348   0.735   6.293  10.960  0.1703  0.4985  1.1436
16311TIP3    H270349   0.662   6.163  10.985  0.7752 -0.0212  0.2746
16312TIP3   OH270350   5.063   2.316   4.488  0.6146 -0.3405  0.5543
16312TIP3    H170351   5.080   2.222   4.495  0.9364 -0.4650 -1.2181
16312TIP3    H270352   5.034   2.327   4.397  1.0976  1.3506  0.5874
16313TIP3   OH270353   0.544   2.090   5.352  0.1925  0.1559  0.5031
16313TIP3    H170354   0.623   2.039   5.370 -0.4173 -0.8111  0.5056
16313TIP3    H270355   0.528   2.077   5.259 -0.7895 -0.8938  0.7906
16314TIP3   OH270356   2.851   5.569  16.254 -0.3237 -0.4830  0.0424
16314TIP3    H170357   2.844   5.474  16.245 -0.1660 -0.5831  0.8371
16314TIP3    H270358   2.939   5.583  16.289 -0.0896  0.0123 -0.7368
16315TIP3   OH270359   1.748   2.635   3.421  0.0342 -0.0514 -0.0596
16315TIP3    H170360   1.718   2.716   3.381  0.8782  0.8154  0.9947
16315TIP3    H270361   1.832   2.657   3.460  1.5580 -2.0979 -1.9230
16316TIP3   OH270362   4.533   0.013  15.204 -0.6522  0.0278 -0.1903
16316TIP3    H170363   4.505  -0.022  15.288  0.0210 -0.1414 -0.0331
16316TIP3    H270364   4.494  -0.046  15.139 -0.2406 -0.5095  0.0426
16317TIP3   OH270365   4.027   4.835   2.749  0.6421 -0.4841 -0.0474
16317TIP3    H170366   4.059   4.922   2.772 -0.0891 -0.1979 -0.0907
16317TIP3    H270367   4.098   4.796   2.698  1.5978 -0.4854  1.2246
16318TIP3   OH270368   5.772   3.517  11.515  0.0085  0.3974 -0.1113
16318TIP3    H170369   5.721   3.577  11.460 -1.2668  0.6618  1.2765
16318TIP3    H270370   5.713   3.496  11.588  0.9589 -1.4057  0.1924
16319TIP3   OH270371   6.207   5.425  11.407 -0.0229 -0.4973  1.0039
16319TIP3    H170372   6.130   5.481  11.405  2.8295  3.9415  2.6744
16319TIP3    H270373   6.247   5.436  11.320 -0.1658 -1.0908  0.8595
16320TIP3   OH270374   1.272   5.548   5.995  0.0331 -0.3088  0.5193
16320TIP3    H170375   1.365   5.546   5.971  0.1089  1.8395  0.4107
16320TIP3    H270376   1.265   5.618   6.060 -1.1618 -2.0268  2.3384
16321TIP3   OH270377   0.995   4.536  16.248  0.3481  0.5428 -0.3072
16321TIP3    H170378   0.952   4.518  16.332 -0.4303 -0.7442 -0.9482
16321TIP3    H270379   0.927   4.577  16.194 -0.3522 -1.9835 -1.5059
16322TIP3   OH270380   4.753   6.000   5.414  0.2563 -0.2355  0.1678
16322TIP3    H170381   4.815   6.041   5.354 -0.2868 -0.6744 -0.7104
16322TIP3    H270382   4.683   6.064   5.424  0.3936 -0.1226  0.4183
16323TIP3   OH270383   5.764   2.280   2.398  0.2337 -0.0172 -0.1982
16323TIP3    H170384   5.813   2.345   2.447  2.5309 -0.7801 -1.3335
16323TIP3    H270385   5.691   2.328   2.359 -0.4908  0.9798  2.2483
16324TIP3   OH270386   6.018   1.851   2.300  0.0700  0.1419 -0.6123
16324TIP3    H170387   5.971   1.806   2.371 -2.8392 -1.0278 -3.0157
16324TIP3    H270388   6.034   1.939   2.334  0.8787 -0.9776  2.2469
16325TIP3   OH270389   1.597   3.456   0.312  0.0866 -0.1285  0.5862
16325TIP3    H170390   1.614   3.393   0.242 -1.8668 -0.4041  0.2967
16325TIP3    H270391   1.575   3.402   0.388  1.2123  0.1820  1.1442
16326TIP3   OH270392   4.925   5.166   2.619  0.2586 -0.4221  0.3177
16326TIP3    H170393   4.929   5.072   2.639  0.9881 -0.2697  0.9538
16326TIP3    H270394   4.880   5.204   2.694  0.6187 -0.1782  0.4143
16327TIP3   OH270395   0.437   4.565  13.336  0.0182  0.4952  0.3124
16327TIP3    H170396   0.386   4.583  13.415  0.3210 -0.9008  0.8448
16327TIP3    H270397   0.513   4.515  13.366  0.2626  0.1409 -0.8269
16328TIP3   OH270398   0.764   0.567  10.908 -0.1450  0.5286  0.2724
16328TIP3    H170399   0.784   0.521  10.826 -1.1143  0.1047  0.2602
16328TIP3    H270400   0.837   0.544  10.966  0.3495  0.5146 -0.3359
16329TIP3   OH270401   4.904   0.437  11.188 -0.1140  0.5461  0.1314
16329TIP3    H170402   4.946   0.517  11.158  1.2979 -0.3821 -0.5134
16329TIP3    H270403   4.966   0.400  11.251 -0.1727 -0.5924 -0.4375
16330TIP3   OH270404   0.458   5.566   0.684 -0.0885  0.1381 -0.1724
16330TIP3    H170405   0.430   5.603   0.600 -0.8132  0.4478  0.2027
16330TIP3    H270406   0.379   5.567   0.738  0.9651  2.6244  1.4932
16331TIP3   OH270407   4.245   1.075   4.382 -0.4384 -0.8070  0.2842
16331TIP3    H170408   4.289   1.000   4.341  0.1511 -0.2190 -0.1803
16331TIP3    H270409   4.271   1.150   4.329 -0.4217 -0.1645  1.1800
16332TIP3   OH270410   1.424   5.391  12.860  0.7724  0.7067 -0.0232
16332TIP3    H170411   1.382   5.419  12.779 -0.5927 -0.9384  0.0633
16332TIP3    H270412   1.453   5.301  12.842  1.2234  0.6264  1.0383
16333TIP3   OH270413   1.207   4.538   0.731  0.2083  0.4741 -0.2486
16333TIP3    H170414   1.228   4.631   0.740  1.5639  0.2190 -0.6065
16333TIP3    H270415   1.126   4.528   0.781  1.4688  1.3176  2.1821
16334TIP3   OH270416   3.420   2.063  12.414 -0.4927  0.7804 -0.7008
16334TIP3    H170417   3.387   2.110  12.490  0.0670  0.5731 -0.3268
16334TIP3    H270418   3.515   2.066  12.423 -0.4428 -0.4207 -0.6796
16335TIP3   OH270419   1.562   2.740  12.910  0.6794 -0.1390 -0.8590
16335TIP3    H170420   1.554   2.648  12.884  2.3126 -0.5245 -0.1291
16335TIP3    H270421   1.558   2.739  13.005 -0.0973  0.6594 -0.8692
16336TIP3   OH270422   5.356   1.949   5.434  0.5994 -0.4969 -0.0760
16336TIP3    H170423   5.337   1.866   5.477 -1.9431  0.2608  0.3943
16336TIP3    H270424   5.444   1.936   5.397 -0.0419 -3.7058 -0.8400
16337TIP3   OH270425   2.130   1.461   6.719  0.5309  0.0021 -0.0554
16337TIP3    H170426   2.211   1.474   6.769  0.9521  0.5312 -0.8583
16337TIP3    H270427   2.143   1.377   6.674 -0.3430 -1.0937  1.6136
16338TIP3   OH270428   3.078   5.424  14.211  0.2437  0.0374 -0.4994
16338TIP3    H170429   3.100   5.454  14.299  1.0346  1.6055 -1.1987
16338TIP3    H270430   3.127   5.482  14.153 -1.6247  0.1745 -2.0165
16339TIP3   OH270431   2.650   6.635   1.497 -0.0088  0.5878  0.2276
16339TIP3    H170432   2.580   6.640   1.432 -0.1124  0.9445  0.3647
16339TIP3    H270433   2.624   6.562   1.554  0.4178 -0.1559 -0.5125
16340TIP3   OH270434   4.465   6.616   5.899  0.0842  0.5710 -0.0026
16340TIP3    H170435   4.460   6.523   5.918 -1.8428  0.5551 -0.4020
16340TIP3    H270436   4.526   6.623   5.826  1.1374 -0.2270  0.7708
16341TIP3   OH270437   5.111   2.987   5.209 -0.5410  0.3627 -0.8625
16341TIP3    H170438   5.165   2.934   5.150 -0.8832 -0.6099 -0.3161
16341TIP3    H270439   5.163   3.066   5.224  0.7120 -0.5185 -0.3927
16342TIP3   OH270440   2.306   5.666   0.204 -0.8046  0.2990 -0.5423
16342TIP3    H170441   2.336   5.585   0.245 -1.5405  0.0274 -0.5169
16342TIP3    H270442   2.361   5.735   0.242 -1.0237 -0.0275  0.4005
16343TIP3   OH270443   5.801   1.423   6.065  0.4249 -0.5085  0.1794
16343TIP3    H170444   5.837   1.481   5.998 -0.3998 -0.2563 -0.0602
16343TIP3    H270445   5.873   1.366   6.089  0.9646 -0.0483 -0.3199
16344TIP3   OH270446   6.566   3.561  12.907 -0.1386 -0.2512  0.0506
16344TIP3    H170447   6.486   3.509  12.904  0.0583 -0.5110 -1.3842
16344TIP3    H270448   6.539   3.648  12.875 -0.3368  0.4036  1.8663
16345TIP3   OH270449   1.802   6.155  14.464  0.3407 -0.5806  0.5421
16345TIP3    H170450   1.848   6.173  14.382 -0.4926  0.1532  0.2242
16345TIP3    H270451   1.752   6.234  14.481  0.3429 -0.8044  1.6651
16346TIP3   OH270452   1.768   6.300   4.027 -0.2602 -0.0942 -0.3391
16346TIP3    H170453   1.787   6.380   3.977 -0.8213  0.3886  0.2138
16346TIP3    H270454   1.841   6.291   4.087  1.1111 -1.3961 -2.0788
16347TIP3   OH270455   5.236   5.927  11.407 -1.0794  0.3573  0.5788
16347TIP3    H170456   5.244   6.001  11.346 -0.5032  2.2578  2.8007
16347TIP3    H270457   5.312   5.872  11.389  2.3129  3.7125  2.9519
16348TIP3   OH270458   4.594   2.322  11.300  0.2818 -0.4110  0.3954
16348TIP3    H170459   4.535   2.334  11.225 -0.1439  1.0598  0.9357
16348TIP3    H270460   4.552   2.370  11.371  2.1513  0.7417  0.7855
16349TIP3   OH270461   1.084   1.533  11.164  0.7778  0.1842 -0.0505
16349TIP3    H170462   1.101   1.439  11.165  0.5703  0.1375  1.3356
16349TIP3    H270463   0.988   1.540  11.158  0.7550  0.2854  0.3648
16350TIP3   OH270464   0.292   1.850  10.453 -0.7249  0.4021  0.1866
16350TIP3    H170465   0.209   1.804  10.441  0.5754 -1.8220 -0.9619
16350TIP3    H270466   0.337   1.801  10.523  0.7018 -0.1995 -1.0864
16351TIP3   OH270467   0.453   3.146   5.996  0.3842 -0.0373 -0.1489
16351TIP3    H170468   0.537   3.160   5.952  0.9695  0.8404  1.1891
16351TIP3    H270469   0.456   3.055   6.025  1.9956  0.6364  2.0636
16352TIP3   OH270470   6.223   5.015   2.184 -0.2355 -0.1435 -0.3584
16352TIP3    H170471   6.164   4.969   2.124  0.4242 -0.8558 -0.4706
16352TIP3    H270472   6.266   4.945   2.233  0.5400  0.3719 -0.2993
16353TIP3   OH270473   4.666   5.055   5.329  0.3953  0.3431  0.2132
16353TIP3    H170474   4.745   5.082   5.282  0.1962 -0.5536 -0.6617
16353TIP3    H270475   4.690   4.971   5.369  0.1994  0.5589  0.7966
16354TIP3   OH270476   6.464   0.242   1.349  0.2890  0.0234 -0.0734
16354TIP3    H170477   6.560   0.241   1.352  0.4186  2.0668 -1.1390
16354TIP3    H270478   6.440   0.160   1.305  1.5939 -0.2288 -0.3506
16355TIP3   OH270479   3.947   2.589   5.847  0.2634  0.0483 -0.1318
16355TIP3    H170480   3.895   2.559   5.922 -0.5000  0.4622 -0.4848
16355TIP3    H270481   4.037   2.585   5.878 -0.1070  1.5754  1.3253
16356TIP3   OH270482   5.129   2.178  17.082 -0.2209 -0.0707  0.2276
16356TIP3    H170483   5.217   2.198  17.112 -0.8473  1.2397  1.2990
16356TIP3    H270484   5.120   2.224  16.998  0.1691 -0.3800  0.0138
16357TIP3   OH270485   2.142   6.420  11.704 -0.1423  0.1643 -0.8649
16357TIP3    H170486   2.135   6.432  11.799 -0.8755  0.0404 -0.8956
16357TIP3    H270487   2.079   6.482  11.668 -0.4030 -0.3111 -1.2325
16358TIP3   OH270488   2.092   5.374  15.195  0.7132  0.2393 -0.2383
16358TIP3    H170489   2.183   5.344  15.205  0.9771 -1.1298 -4.6945
16358TIP3    H270490   2.099   5.469  15.184  1.8197  0.0161 -1.7789
16359TIP3   OH270491   4.385   5.408  12.319 -0.3855  0.2427  0.3180
16359TIP3    H170492   4.332   5.330  12.332 -0.1980 -0.0918 -0.8003
16359TIP3    H270493   4.409   5.406  12.226 -0.1815  1.5016  0.3150
16360TIP3   OH270494   1.978   0.698   5.069  0.0355  0.5572  0.1570
16360TIP3    H170495   1.943   0.784   5.049 -0.0461  0.3756 -0.4900
16360TIP3    H270496   1.906   0.652   5.113 -0.5057  0.2368 -1.0343
16361TIP3   OH270497   5.873   6.329   2.831 -0.6325 -0.2997 -0.0053
16361TIP3    H170498   5.848   6.421   2.829 -1.1924 -0.4454  0.0822
16361TIP3    H270499   5.793   6.283   2.855 -0.3309 -0.8016  0.0568
16362TIP3   OH270500   2.801   1.308  17.319  0.2635 -0.3116 -0.1123
16362TIP3    H170501   2.836   1.221  17.335 -0.9014 -0.5929  1.0250
16362TIP3    H270502   2.717   1.310  17.366  0.2730  1.4169 -0.0959
16363TIP3   OH270503   1.848   4.358  12.216  0.8987 -1.0483 -0.1297
16363TIP3    H170504   1.809   4.271  12.208  0.1196 -0.6483 -0.8835
16363TIP3    H270505   1.778   4.412  12.252  1.5737 -0.8489  0.9488
16364TIP3   OH270506   0.398   4.024  16.434 -0.2181  0.2916 -0.0287
16364TIP3    H170507   0.306   4.002  16.426 -0.8423  1.5298  2.6785
16364TIP3    H270508   0.442   3.968  16.370 -2.7845 -0.4522 -1.2740
16365TIP3   OH270509   3.795   5.048  16.186  0.1449  0.1752 -0.5956
16365TIP3    H170510   3.725   5.015  16.241 -1.5337  0.1308 -2.6357
16365TIP3    H270511   3.776   5.142  16.176  1.8101  0.7250  0.7695
16366TIP3   OH270512   5.092   1.796  12.310 -0.4418 -0.4466  0.4868
16366TIP3    H170513   5.076   1.848  12.232  0.9883 -0.6921 -0.0009
16366TIP3    H270514   5.006   1.787  12.351 -1.6307 -1.9260 -2.0607
16367TIP3   OH270515   6.183   1.577   5.993  0.4105 -0.0507 -0.1032
16367TIP3    H170516   6.278   1.567   6.001  0.3531  0.1247  0.8964
16367TIP3    H270517   6.148   1.547   6.077 -0.3913  0.2302 -0.3243
16368TIP3   OH270518   2.492   3.118   2.680 -0.0767  0.1175 -0.3825
16368TIP3    H170519   2.551   3.057   2.723  0.2792 -0.8151 -2.1373
16368TIP3    H270520   2.526   3.128   2.591 -0.5060  2.3713 -0.3683
16369TIP3   OH270521   4.198   6.741   0.298  0.0137  0.1040  0.0433
16369TIP3    H170522   4.216   6.784   0.215  0.9619  1.3893  0.8791
16369TIP3    H270523   4.249   6.790   0.362 -0.2810 -1.1861  1.3139
16370TIP3   OH270524   5.492   1.226   2.755 -0.4740 -0.1554  0.0744
16370TIP3    H170525   5.486   1.259   2.844  0.2466 -2.6493  1.1159
16370TIP3    H270526   5.450   1.294   2.702  1.1889  2.5673  1.9501
16371TIP3   OH270527   1.468   1.180   1.077  0.8154 -0.9750  0.2151
16371TIP3    H170528   1.474   1.126   1.155  0.4117 -1.8611 -0.3486
16371TIP3    H270529   1.403   1.247   1.099 -1.3238 -2.7764 -0.2006
16372TIP3   OH270530   4.752   6.437  14.489  0.2499  0.6708  0.3898
16372TIP3    H170531   4.818   6.369  14.500 -0.0428  0.1624 -0.7952
16372TIP3    H270532   4.698   6.407  14.416  0.1876  2.2318 -0.2593
16373TIP3   OH270533   1.035   3.797  10.665 -0.0707 -0.0322  0.2468
16373TIP3    H170534   0.987   3.718  10.640 -0.5758  0.8621 -1.7574
16373TIP3    H270535   1.013   3.810  10.757 -2.3511 -0.5848 -0.1762
16374TIP3   OH270536   5.426   0.214  14.338  0.2021  0.1034  0.1807
16374TIP3    H170537   5.511   0.251  14.313  0.9861 -1.0400  1.0242
16374TIP3    H270538   5.406   0.150  14.270 -0.7781  1.4697 -0.8631
16375TIP3   OH270539   4.914   3.750  15.045  0.2356 -0.2006 -0.2352
16375TIP3    H170540   4.894   3.767  14.953 -0.9211 -0.2988 -0.0083
16375TIP3    H270541   4.873   3.822  15.092  0.5449 -0.3283  0.2328
16376TIP3   OH270542   0.832   3.485   1.336  0.1138 -0.6607 -0.1077
16376TIP3    H170543   0.894   3.413   1.350  0.8351 -0.0962 -0.3393
16376TIP3    H270544   0.834   3.535   1.417 -1.5459 -1.7372  0.6478
16377TIP3   OH270545   3.246   4.800   2.911 -0.4046 -0.5973  0.1254
16377TIP3    H170546   3.180   4.800   2.981  0.3467  3.3008  1.1031
16377TIP3    H270547   3.317   4.853   2.946  3.4120 -4.4954 -0.9042
16378TIP3   OH270548   4.461   3.574   4.463 -0.3066 -0.5142  0.9904
16378TIP3    H170549   4.532   3.538   4.516 -0.1461  0.2382  1.3031
16378TIP3    H270550   4.458   3.667   4.487 -0.3920 -0.2073 -0.1413
16379TIP3   OH270551   6.646   6.664   1.916  0.1129 -0.4308 -0.4983
16379TIP3    H170552   6.633   6.748   1.873  0.0550  0.2494  0.7943
16379TIP3    H270553   6.685   6.608   1.849  1.9354  1.1752 -0.8517
16380TIP3   OH270554   3.034   1.284   1.626  0.0237  0.0333 -0.2177
16380TIP3    H170555   2.966   1.261   1.690 -0.4294 -3.0854 -1.6320
16380TIP3    H270556   3.115   1.283   1.677 -0.5519 -0.2180  0.7242
16381TIP3   OH270557   4.498   2.404  13.131  0.3175  0.5430 -0.1983
16381TIP3    H170558   4.436   2.337  13.102 -0.9334  1.8417 -0.6613
16381TIP3    H270559   4.481   2.413  13.225 -0.6757  1.3308 -0.4349
16382TIP3   OH270560   2.514   5.451   4.376 -0.5598  0.7031  0.0958
16382TIP3    H170561   2.567   5.440   4.455  1.1074  0.5397 -0.9969
16382TIP3    H270562   2.507   5.546   4.364  0.7564  0.7428 -0.5335
16383TIP3   OH270563   2.495   2.714  16.496 -0.1526  0.4620  0.1679
16383TIP3    H170564   2.563   2.691  16.560 -0.1203 -1.2652 -0.4327
16383TIP3    H270565   2.488   2.636  16.440 -1.9189  0.9915 -0.3998
16384TIP3   OH270566   6.469   4.046  17.087 -0.6832 -0.3515  0.2935
16384TIP3    H170567   6.505   3.961  17.114 -0.5961 -0.2787  0.4062
16384TIP3    H270568   6.543   4.092  17.048 -0.8756 -0.5683 -0.3391
16385TIP3   OH270569   3.659   1.229   0.208 -0.3406 -0.0255  0.1024
16385TIP3    H170570   3.741   1.269   0.179  0.0294 -1.1625 -0.4726
16385TIP3    H270571   3.592   1.263   0.148 -0.2298  0.5948  0.3247
16386TIP3   OH270572   2.842   6.437   6.148 -0.0373  0.2275 -0.3150
16386TIP3    H170573   2.920   6.439   6.203  0.7480  0.7792 -1.4165
16386TIP3    H270574   2.820   6.529   6.133 -0.0577  0.0933 -1.1714
16387TIP3   OH270575   0.400   1.775   4.605  0.3309  0.5788  0.7020
16387TIP3    H170576   0.438   1.837   4.667  0.9430  0.9428 -0.0260
16387TIP3    H270577   0.420   1.811   4.519  0.3338 -0.4125  0.2703
16388TIP3   OH270578   3.071   5.210  16.657  0.2836 -0.1732 -0.4794
16388TIP3    H170579   3.052   5.174  16.743  0.0526 -0.4279 -0.6322
16388TIP3    H270580   3.166   5.206  16.648  0.2735 -0.5537 -0.4120
16389TIP3   OH270581   3.022   5.766  14.637 -0.0074 -0.0536 -0.1549
16389TIP3    H170582   3.075   5.832  14.593  2.0258 -1.3679  0.1730
16389TIP3    H270583   2.969   5.816  14.699  1.4265  1.2986  0.0629
16390TIP3   OH270584   2.918   4.686  12.040  0.0644 -0.3576 -0.3649
16390TIP3    H170585   2.854   4.755  12.026 -0.6986 -1.1686 -0.9292
16390TIP3    H270586   2.971   4.685  11.960 -0.3857 -0.9004 -0.6604
16391TIP3   OH270587   2.350   6.136  14.830 -0.4538 -0.2117 -0.0742
16391TIP3    H170588   2.346   6.212  14.771  0.4948 -0.9428 -1.1114
16391TIP3    H270589   2.299   6.163  14.907 -0.6118  1.2589 -0.6619
16392TIP3   OH270590   4.646   5.371   2.212 -0.0417 -0.1219 -0.0331
16392TIP3    H170591   4.605   5.294   2.173 -0.5787 -0.3687  0.9877
16392TIP3    H270592   4.719   5.335   2.263  0.9414  0.2380 -1.1607
16393TIP3   OH270593   3.500   1.637  16.216  0.4287 -0.5652  0.3920
16393TIP3    H170594   3.421   1.588  16.240 -0.9572  1.7142  0.7587
16393TIP3    H270595   3.560   1.624  16.290  0.2114 -1.8458  0.3694
16394TIP3   OH270596   5.414   4.260  12.271  0.1056 -0.0656 -0.2294
16394TIP3    H170597   5.349   4.214  12.218  0.0052 -1.5283  1.0755
16394TIP3    H270598   5.363   4.323  12.322 -0.1289 -0.3593 -0.0960
16395TIP3   OH270599   0.004   4.332  15.172  0.3310 -0.4713  0.1993
16395TIP3    H170600  -0.065   4.289  15.122 -0.0874  0.7833 -0.3344
16395TIP3    H270601   0.037   4.264  15.231 -1.0725 -1.2153  0.1687
16396TIP3   OH270602   2.290   5.311  16.125 -0.1206  0.1471 -0.1638
16396TIP3    H170603   2.309   5.224  16.162  0.2491  0.5770  0.6874
16396TIP3    H270604   2.303   5.300  16.031 -1.4766 -1.0818 -0.2344
16397TIP3   OH270605   6.103   1.970   3.607 -0.1147  0.3013  0.2467
16397TIP3    H170606   6.035   1.903   3.609 -0.0217  0.1839 -0.3467
16397TIP3    H270607   6.059   2.049   3.579  0.3022 -0.1720 -1.8830
16398TIP3   OH270608   4.693   2.326   0.231  0.2290 -0.0505  0.1508
16398TIP3    H170609   4.657   2.377   0.304 -1.5224 -2.4183  1.0555
16398TIP3    H270610   4.668   2.376   0.153  0.6289  1.6338  1.0458
16399TIP3   OH270611   5.681   1.262  10.315  1.3381 -0.2934 -0.5941
16399TIP3    H170612   5.744   1.249  10.386 -0.0335  0.5175  0.8280
16399TIP3    H270613   5.599   1.226  10.349  0.3742  1.1627 -1.2999
16400TIP3   OH270614   2.790   1.725   1.934 -0.1194 -0.0388  0.0765
16400TIP3    H170615   2.725   1.773   1.882  0.1000  0.3521  0.1633
16400TIP3    H270616   2.803   1.643   1.885 -1.2431 -0.4631  0.4558
16401TIP3   OH270617   4.172   4.598   3.995  1.0707 -0.5594 -0.5170
16401TIP3    H170618   4.196   4.505   3.993  0.9732 -0.5755 -2.7603
16401TIP3    H270619   4.246   4.643   3.957  0.2512  0.0560 -1.4227
16402TIP3   OH270620   0.205   5.421   4.886 -0.5957 -0.0747  0.1587
16402TIP3    H170621   0.119   5.434   4.927 -1.2923 -1.8193 -0.6413
16402TIP3    H270622   0.261   5.391   4.957 -1.1996 -0.8999  0.3011
16403TIP3   OH270623   3.674   4.721  13.598 -0.7259 -0.4290 -0.1364
16403TIP3    H170624   3.620   4.714  13.676 -1.0101 -1.0645 -0.3852
16403TIP3    H270625   3.684   4.630  13.567  0.7061 -0.3700  0.0634
16404TIP3   OH270626   6.600   0.996  15.734  0.0094  0.0937 -0.3036
16404TIP3    H170627   6.644   0.953  15.660  2.0597  2.1418 -0.3856
16404TIP3    H270628   6.553   0.925  15.778 -3.1093 -0.9348 -4.6678
16405TIP3   OH270629   1.442   5.313   4.423  0.8274 -0.0705  0.0503
16405TIP3    H170630   1.378   5.370   4.466  0.1353 -0.0663 -0.9739
16405TIP3    H270631   1.394   5.233   4.401  1.7084 -0.9544  1.1768
16406TIP3   OH270632   1.874   5.167  16.153 -0.0957 -0.4844  0.2001
16406TIP3    H170633   1.929   5.164  16.232 -0.2683 -1.4796  0.2914
16406TIP3    H270634   1.930   5.132  16.084  0.3060  1.0549 -0.2989
16407TIP3   OH270635   4.627   5.821   0.827 -0.0479 -0.2073 -0.1788
16407TIP3    H170636   4.582   5.770   0.894 -1.8146  2.5095  0.8484
16407TIP3    H270637   4.690   5.874   0.876  0.3470  0.0601 -0.9618
16408TIP3   OH270638   3.930   1.392   6.489 -0.7975  0.1294  0.3471
16408TIP3    H170639   3.893   1.316   6.443 -1.3855  0.5827  0.0607
16408TIP3    H270640   4.018   1.402   6.452 -0.2185 -1.1613  1.2687
16409TIP3   OH270641   1.977   5.289   3.557 -0.9507  0.7845 -0.1673
16409TIP3    H170642   1.977   5.206   3.509 -1.3053 -0.4130  1.8206
16409TIP3    H270643   1.972   5.264   3.649 -0.0992  2.9990  0.5505
16410TIP3   OH270644   4.284   1.100  15.641 -0.2311  0.4805  0.1271
16410TIP3    H170645   4.324   1.127  15.723 -0.2599  1.1187 -0.0605
16410TIP3    H270646   4.281   1.181  15.588 -0.2399  0.0893 -0.4835
16411TIP3   OH270647   4.081   6.491   1.067  0.4706  0.0217 -0.6744
16411TIP3    H170648   4.021   6.460   1.136  1.7607 -0.1447  0.4205
16411TIP3    H270649   4.093   6.414   1.010  1.4627 -0.6869  0.4443
16412TIP3   OH270650   6.229   5.132   4.256  0.3643 -0.6276 -0.0017
16412TIP3    H170651   6.165   5.183   4.205  0.6842  0.3398  0.5354
16412TIP3    H270652   6.175   5.076   4.312 -0.0018 -0.5674 -0.2861
16413TIP3   OH270653   6.207   4.928  17.325 -0.3001  0.3032 -0.1868
16413TIP3    H170654   6.193   4.833  17.325 -0.6294  0.3097 -2.2017
16413TIP3    H270655   6.302   4.938  17.335 -0.3857 -0.1522  1.4383
16414TIP3   OH270656   1.153   2.240   5.736  0.1605  0.0814  0.6145
16414TIP3    H170657   1.143   2.146   5.750  0.5412  0.2853  2.5206
16414TIP3    H270658   1.085   2.279   5.790 -1.5231  0.9008 -1.9137
16415TIP3   OH270659   0.344   2.044   2.267  0.1036  0.6310 -0.4072
16415TIP3    H170660   0.269   2.102   2.251 -0.0335  0.4609 -0.3804
16415TIP3    H270661   0.415   2.104   2.290 -0.2742  0.7292  0.5331
16416TIP3   OH270662   1.336   1.888   6.764  0.0387  0.5321  0.1367
16416TIP3    H170663   1.418   1.883   6.814  0.5816 -0.6058 -0.7869
16416TIP3    H270664   1.283   1.816   6.798 -0.3665  0.9314  0.3606
16417TIP3   OH270665   2.932   5.941  12.932 -0.2951 -0.0133 -0.6243
16417TIP3    H170666   2.842   5.975  12.938 -0.3855 -0.0522 -1.5992
16417TIP3    H270667   2.966   5.978  12.851  0.8371  0.5764  0.1027
16418TIP3   OH270668   6.732   3.526   0.422  0.4962 -0.6257  0.1914
16418TIP3    H170669   6.671   3.566   0.484  1.4979 -0.0812  0.8584
16418TIP3    H270670   6.697   3.549   0.336  0.5183  0.9026  0.5587
16419TIP3   OH270671   3.252   3.203   1.517  0.3059  0.0238  0.0805
16419TIP3    H170672   3.175   3.252   1.487  0.5047  0.9869  1.0658
16419TIP3    H270673   3.322   3.268   1.520  0.9937 -0.6924 -0.1421
16420TIP3   OH270674   0.848   6.537  13.949 -0.1533 -0.1531  0.0965
16420TIP3    H170675   0.830   6.445  13.970 -1.4095  0.0255 -0.1562
16420TIP3    H270676   0.762   6.575  13.933  0.5077  0.5411 -2.0099
16421TIP3   OH270677   6.507   6.370  14.036  0.2991 -0.4789  0.7164
16421TIP3    H170678   6.569   6.368  13.963  0.4309  1.2641  0.7412
16421TIP3    H270679   6.559   6.397  14.112  0.0572 -1.7771  1.3767
16422TIP3   OH270680   5.364   3.386   5.449 -0.3073  0.4571 -0.4181
16422TIP3    H170681   5.302   3.423   5.512 -1.4301 -0.6615 -0.8148
16422TIP3    H270682   5.309   3.339   5.386  0.9416 -0.4819 -0.8533
16423TIP3   OH270683   2.670   0.989   5.601  0.2191 -0.6024 -0.0839
16423TIP3    H170684   2.712   1.036   5.529 -0.9560  1.8380  0.6873
16423TIP3    H270685   2.652   0.902   5.566  1.3223 -0.0842 -2.1032
16424TIP3   OH270686   6.200   3.092   3.654 -0.5797  0.0099  0.2746
16424TIP3    H170687   6.256   3.119   3.581  3.0179 -4.9849  0.6399
16424TIP3    H270688   6.111   3.092   3.618  0.1316  3.5763 -1.9603
16425TIP3   OH270689   2.003   0.986  15.465 -0.4742  0.1076  0.4876
16425TIP3    H170690   1.915   0.990  15.427 -2.0323 -3.4661  3.1646
16425TIP3    H270691   2.006   1.059  15.526 -1.0835  0.9513 -0.4569
16426TIP3   OH270692   0.886   6.070  13.270  0.3011  0.1185  0.2153
16426TIP3    H170693   0.933   6.047  13.350  1.5638  0.6707 -0.3291
16426TIP3    H270694   0.794   6.055  13.290  0.5884  0.3344  1.7907
16427TIP3   OH270695   1.445   4.616   1.744  0.1071 -0.3320  0.0441
16427TIP3    H170696   1.497   4.651   1.817  0.3678  0.7304 -0.6215
16427TIP3    H270697   1.385   4.687   1.721  0.2053 -0.5492 -0.9428
16428TIP3   OH270698   2.978   1.452   0.884 -0.1059 -0.0271 -0.1303
16428TIP3    H170699   2.937   1.404   0.956 -1.0868 -0.7159 -1.1151
16428TIP3    H270700   3.024   1.525   0.926  0.0922 -0.9233  1.2605
16429TIP3   OH270701   3.838   4.820  15.286  0.1914  0.3687  0.1518
16429TIP3    H170702   3.852   4.777  15.371 -1.0525 -0.8089 -0.2045
16429TIP3    H270703   3.787   4.757  15.235  1.0636  0.9805 -1.5564
16430TIP3   OH270704   3.728   3.258   6.416  0.4269 -0.5780 -0.0121
16430TIP3    H170705   3.815   3.265   6.454  1.4976 -2.4350 -1.9413
16430TIP3    H270706   3.689   3.181   6.458 -0.3134  0.2108  0.8023
16431TIP3   OH270707   1.064   5.805  13.255 -0.4816 -0.4925 -0.5035
16431TIP3    H170708   1.137   5.866  13.240  0.7028 -2.0228 -1.2135
16431TIP3    H270709   1.034   5.825  13.344  0.5305  0.4473 -0.3489
16432TIP3   OH270710   2.324   2.346  10.997 -0.1029 -0.2468  0.1252
16432TIP3    H170711   2.402   2.400  10.981  0.2435 -0.6774  0.3189
16432TIP3    H270712   2.339   2.267  10.944 -0.3629 -0.3702  0.2344
16433TIP3   OH270713   3.343   2.423   1.074  0.2150  0.0623  0.0750
16433TIP3    H170714   3.281   2.464   1.013  1.0333  0.0138 -0.8265
16433TIP3    H270715   3.401   2.372   1.017 -0.0220 -1.3605  1.0677
16434TIP3   OH270716   2.933   5.033   4.989 -0.0707 -0.0410 -0.1318
16434TIP3    H170717   2.966   5.040   4.899 -0.1667  0.4835 -0.1302
16434TIP3    H270718   2.863   4.968   4.983 -0.9349  0.8980 -0.7010
16435TIP3   OH270719   5.634   2.791  17.340 -0.0584 -0.3777 -0.3612
16435TIP3    H170720   5.568   2.798  17.410  0.9168  0.2763  0.5286
16435TIP3    H270721   5.691   2.720  17.368  0.5904  0.1749 -0.2707
16436TIP3   OH270722   1.505   0.670  14.614 -0.0503  0.3155  0.0507
16436TIP3    H170723   1.590   0.687  14.573 -0.0280  0.6674  0.2422
16436TIP3    H270724   1.460   0.614  14.551 -0.6027  2.0713 -1.1829
16437TIP3   OH270725   4.709   6.071  13.121 -0.0617 -0.3728  0.7192
16437TIP3    H170726   4.709   6.001  13.056  0.8723  1.1012 -0.9553
16437TIP3    H270727   4.616   6.086  13.139 -0.2734 -2.3231  1.4920
16438TIP3   OH270728   2.160   3.757  12.880  0.2669  0.3949 -0.2183
16438TIP3    H170729   2.146   3.797  12.794 -1.0610 -1.4259 -0.9172
16438TIP3    H270730   2.152   3.829  12.942 -0.5821  1.4524 -1.5083
16439TIP3   OH270731   5.834   0.891  14.026  0.1490  0.0193 -0.2761
16439TIP3    H170732   5.915   0.903  14.075  0.2776  0.7208 -0.6360
16439TIP3    H270733   5.848   0.939  13.944 -0.9886  1.0011  0.0712
16440TIP3   OH270734   0.584   2.657  14.567  0.1249  0.0635 -0.3155
16440TIP3    H170735   0.550   2.712  14.638  0.9825 -0.0017  0.1634
16440TIP3    H270736   0.506   2.623  14.523 -0.4159  0.6681  0.1599
16441TIP3   OH270737   1.657   3.187  16.130  0.5201 -0.2828  0.0154
16441TIP3    H170738   1.658   3.170  16.225 -1.3764  0.2132  0.1665
16441TIP3    H270739   1.569   3.161  16.102 -0.2630  2.9802 -0.9196
16442TIP3   OH270740   3.635   1.205   1.034  0.5676  0.3048  0.4320
16442TIP3    H170741   3.673   1.152   0.964  0.3897  1.4373 -0.5446
16442TIP3    H270742   3.709   1.258   1.067  0.8976 -0.9612  1.8491
16443TIP3   OH270743   4.405   1.599  16.841  0.5925 -0.1217  0.3155
16443TIP3    H170744   4.341   1.642  16.898  1.0330 -0.0304  0.7462
16443TIP3    H270745   4.481   1.656  16.843  1.0776 -0.7706  0.6604
16444TIP3   OH270746   1.535   3.800   3.916  0.2595 -0.5554 -0.3523
16444TIP3    H170747   1.517   3.721   3.966  0.1967 -0.3118  0.0094
16444TIP3    H270748   1.459   3.810   3.859 -0.4066  0.0554  0.6370
16445TIP3   OH270749   0.652   2.937   5.786  0.1080 -0.5477  0.5711
16445TIP3    H170750   0.592   2.914   5.858  0.9766 -2.3305  0.7663
16445TIP3    H270751   0.703   3.010   5.821 -1.4682  0.5884  0.6313
16446TIP3   OH270752   0.217   6.326   0.075 -0.0384 -0.8963  0.2778
16446TIP3    H170753   0.221   6.250   0.133 -4.2233 -2.3838 -1.0295
16446TIP3    H270754   0.164   6.297   0.001 -0.8437  2.9712 -0.8749
16447TIP3   OH270755   3.549   5.250   0.241  0.1878 -0.0946 -0.1999
16447TIP3    H170756   3.545   5.330   0.295  0.2739  1.1903 -2.0028
16447TIP3    H270757   3.460   5.240   0.207  0.1606 -0.8252  0.0652
16448TIP3   OH270758   4.457   0.542   1.196 -0.2135 -0.6531 -0.3055
16448TIP3    H170759   4.459   0.614   1.260  1.2290 -0.7884 -0.1670
16448TIP3    H270760   4.447   0.463   1.249 -0.3346 -0.6711 -0.3539
16449TIP3   OH270761   2.757   0.239  12.653  0.2516  0.6954 -0.5466
16449TIP3    H170762   2.740   0.147  12.637 -0.5157  0.5984  0.7163
16449TIP3    H270763   2.746   0.250  12.748 -2.8915  2.6679 -0.9968
16450TIP3   OH270764   5.377   0.976  16.107  0.5159  0.1754 -0.6358
16450TIP3    H170765   5.288   0.984  16.071 -0.4793 -0.6742  1.4815
16450TIP3    H270766   5.408   1.067  16.114 -0.3746  0.5150 -0.9241
16451TIP3   OH270767   5.432   6.510  16.993  0.0369 -0.6221 -0.1294
16451TIP3    H170768   5.378   6.484  16.918  1.0868 -2.2048 -0.4026
16451TIP3    H270769   5.509   6.550  16.954  0.4742 -1.2241  0.0995
16452TIP3   OH270770   2.150   4.236  16.627 -0.0373 -0.3230  0.1756
16452TIP3    H170771   2.155   4.285  16.709  1.6344 -0.1276 -0.0172
16452TIP3    H270772   2.071   4.270  16.584 -0.3202  0.3569  1.1922
16453TIP3   OH270773   1.213   3.751  13.824  0.1870  0.0973  0.3710
16453TIP3    H170774   1.222   3.741  13.919  0.2999  0.3673  0.3926
16453TIP3    H270775   1.218   3.846  13.810  0.3241  0.0478  0.0804
16454TIP3   OH270776   0.386   6.628   2.110 -0.6309 -0.3051  0.2423
16454TIP3    H170777   0.389   6.657   2.201  0.1726 -1.5076  0.6147
16454TIP3    H270778   0.363   6.535   2.114 -0.2304 -0.4665 -0.7660
16455TIP3   OH270779   5.382   4.548  15.668 -0.3499  0.0216  0.0570
16455TIP3    H170780   5.360   4.572  15.578 -2.2193  2.6014  1.0760
16455TIP3    H270781   5.397   4.632  15.712 -0.8082 -1.0864  2.4683
16456TIP3   OH270782   4.228   1.280  13.259  0.0519 -0.2086  0.1849
16456TIP3    H170783   4.304   1.323  13.220 -0.8207  1.3543  0.1138
16456TIP3    H270784   4.221   1.197  13.212 -0.9051  1.5510 -3.0808
16457TIP3   OH270785   5.119   3.455  14.763 -0.4206  0.0595 -0.1974
16457TIP3    H170786   5.134   3.378  14.818  0.7562 -0.2373 -0.9031
16457TIP3    H270787   5.139   3.529  14.820  0.2458 -0.2265 -0.0457
16458TIP3   OH270788   0.207   6.043  14.295 -0.0863 -0.6737  0.2165
16458TIP3    H170789   0.271   6.040  14.366  0.6273  0.6524 -0.3306
16458TIP3    H270790   0.125   6.015  14.335  0.3107 -0.0051  1.5551
16459TIP3   OH270791   1.197   2.743   2.285  0.1730 -0.0211 -0.3042
16459TIP3    H170792   1.275   2.695   2.315 -0.5458 -1.5973 -0.8837
16459TIP3    H270793   1.201   2.826   2.333  0.6081 -1.2725  2.0131
16460TIP3   OH270794   5.696   0.070  16.476 -0.2039  0.3069  0.5880
16460TIP3    H170795   5.649   0.133  16.530 -1.4692 -1.0137  1.1109
16460TIP3    H270796   5.627   0.017  16.435  0.7909 -0.3957 -0.2393
16461TIP3   OH270797   5.910   3.729  14.645 -0.1949 -0.0967 -0.2599
16461TIP3    H170798   5.993   3.733  14.598  0.5096  2.8335  1.0156
16461TIP3    H270799   5.935   3.713  14.736 -1.0349  0.4068  0.0676
16462TIP3   OH270800   4.163   4.918  11.022 -0.5225 -0.4462 -0.8574
16462TIP3    H170801   4.200   4.829  11.022  1.0410  0.1746  0.0767
16462TIP3    H270802   4.095   4.915  11.090  2.3964  0.1289  2.3347
16463TIP3   OH270803   2.608   6.134   3.781 -0.3231  0.5354 -0.0355
16463TIP3    H170804   2.686   6.081   3.766 -0.9415  0.0855 -1.8006
16463TIP3    H270805   2.534   6.075   3.766 -1.0214  1.5547 -0.7482
16464TIP3   OH270806   3.192   1.674   0.678  0.2147 -0.3028 -0.3508
16464TIP3    H170807   3.161   1.585   0.697  1.0048 -0.5882 -0.3582
16464TIP3    H270808   3.254   1.663   0.606  1.7734 -0.0207  0.8722
16465TIP3   OH270809   4.799   0.955  17.267  0.5958 -0.0020  0.3479
16465TIP3    H170810   4.841   0.946  17.181 -0.5578 -0.5299 -0.1896
16465TIP3    H270811   4.799   1.049  17.285 -0.3523  0.2561 -0.8748
16466TIP3   OH270812   1.453   3.559  13.118  0.1213 -0.3628 -0.4947
16466TIP3    H170813   1.448   3.480  13.171 -0.2215 -1.1882 -1.7194
16466TIP3    H270814   1.387   3.618  13.155  0.3638 -0.6461  0.4072
16467TIP3   OH270815   4.529   0.136  14.754 -0.1871 -0.2277 -0.0297
16467TIP3    H170816   4.586   0.163  14.826  0.3324  0.4676 -0.6815
16467TIP3    H270817   4.541   0.204  14.688  0.9251 -1.8571 -1.6065
16468TIP3   OH270818   2.822   0.230   4.050 -0.0988  0.5826  0.2822
16468TIP3    H170819   2.815   0.144   4.008  0.1677  1.3210 -1.3543
16468TIP3    H270820   2.913   0.255   4.038 -0.5642  1.8433 -0.8567
16469TIP3   OH270821   4.480   0.152  13.246  0.0115 -0.4495  0.3450
16469TIP3    H170822   4.539   0.113  13.181  0.5760  0.3188  0.3865
16469TIP3    H270823   4.513   0.241  13.258 -1.1113 -0.0293  0.4326
16470TIP3   OH270824   2.859   3.810   0.718 -0.0735  0.1326  0.8057
16470TIP3    H170825   2.784   3.833   0.662  0.0212  0.2000  0.7058
16470TIP3    H270826   2.821   3.798   0.805 -0.0614  1.1360  0.9637
16471TIP3   OH270827   1.777   2.578  11.586 -0.3081 -0.7571  0.1119
16471TIP3    H170828   1.798   2.577  11.493  0.5766  0.0685  0.2819
16471TIP3    H270829   1.799   2.490  11.617  0.8209 -0.5985 -0.1780
16472TIP3   OH270830   5.751   2.140   1.737 -0.0611  0.4309 -0.3775
16472TIP3    H170831   5.842   2.122   1.715  0.0933  1.4223 -0.5844
16472TIP3    H270832   5.713   2.054   1.755  1.3001  0.1125  1.2430
16473TIP3   OH270833   1.741   0.074  12.852  0.4372 -0.2601 -0.2036
16473TIP3    H170834   1.715   0.144  12.792  2.2031 -0.8770 -1.7731
16473TIP3    H270835   1.797   0.117  12.917  0.4900 -0.0059 -0.4163
16474TIP3   OH270836   6.091   6.153   3.511 -0.1503  0.3845  0.3476
16474TIP3    H170837   6.137   6.090   3.455  0.0858  0.5914  0.3044
16474TIP3    H270838   6.014   6.177   3.460  0.9967  1.9664 -0.7337
16475TIP3   OH270839   4.018   2.130  15.060 -0.3469  0.2139 -0.0618
16475TIP3    H170840   3.987   2.051  15.017  0.7078 -0.8270  1.0217
16475TIP3    H270841   3.939   2.184  15.071 -1.2709 -1.1182  0.0871
16476TIP3   OH270842   4.292   0.462   4.656  0.6412 -0.0294  0.3121
16476TIP3    H170843   4.333   0.532   4.706  1.3266 -1.1008  1.2827
16476TIP3    H270844   4.289   0.496   4.566 -1.1412  2.1810  1.0887
16477TIP3   OH270845   2.494   2.418  16.007  0.3645 -0.8374  0.0158
16477TIP3    H170846   2.464   2.429  16.097 -0.2720 -0.0010 -0.2828
16477TIP3    H270847   2.427   2.363  15.966  0.1455 -0.4260 -0.1890
16478TIP3   OH270848   5.250   2.132  14.981  0.3483 -0.2322 -0.1856
16478TIP3    H170849   5.192   2.126  15.057  0.7335  0.9462  0.2223
16478TIP3    H270850   5.316   2.064  14.995  1.1409  0.7677  1.1857
16479TIP3   OH270851   2.639   5.170  17.232 -0.1215  0.6122  0.1530
16479TIP3    H170852   2.575   5.224  17.186 -0.8336 -0.5855 -0.2890
16479TIP3    H270853   2.706   5.151  17.167  0.3999  1.3708  0.4522
16480TIP3   OH270854   0.281   4.428   5.705  0.6765  0.2597  0.0234
16480TIP3    H170855   0.265   4.452   5.613 -1.0754  1.5846  0.6205
16480TIP3    H270856   0.322   4.506   5.743  0.4113  0.1067  0.6217
16481TIP3   OH270857   1.205   2.478   4.778  0.1420 -0.5001 -0.8492
16481TIP3    H170858   1.253   2.560   4.789 -0.6098  0.3756 -3.2716
16481TIP3    H270859   1.272   2.411   4.779  0.8662  0.2119  0.4103
16482TIP3   OH270860   3.891   3.595  15.186 -0.1271 -0.8240  0.6536
16482TIP3    H170861   3.803   3.597  15.148 -0.0024  3.9408 -0.0031
16482TIP3    H270862   3.948   3.570  15.112 -0.5741  0.7825 -0.2770
16483TIP3   OH270863   3.303   0.587  13.891  0.4342 -0.4080 -0.2673
16483TIP3    H170864   3.210   0.579  13.912 -0.2014 -0.8860 -2.8607
16483TIP3    H270865   3.320   0.681  13.889  0.2944 -0.3303  1.1712
16484TIP3   OH270866   1.936   5.905   5.754  0.4016 -0.6586 -0.1492
16484TIP3    H170867   1.977   5.955   5.684  1.5314 -2.5768 -0.9472
16484TIP3    H270868   1.990   5.922   5.831  0.7952 -0.6534 -0.4249
16485TIP3   OH270869   0.612   0.960  11.839 -1.1524  0.0323 -0.0149
16485TIP3    H170870   0.652   1.035  11.795  2.2497 -1.3243  0.4193
16485TIP3    H270871   0.525   0.991  11.866 -0.9440  2.8838 -2.1552
16486TIP3   OH270872   2.523   3.942  16.888 -0.1223 -0.4028 -0.5164
16486TIP3    H170873   2.489   3.869  16.836  2.4724 -1.7243 -0.5426
16486TIP3    H270874   2.618   3.938  16.874  0.2408  1.9900  0.8085
16487TIP3   OH270875   6.036   3.808   1.518  0.5607 -0.4658  0.6527
16487TIP3    H170876   5.972   3.758   1.568  0.5649 -0.1638  0.9635
16487TIP3    H270877   6.120   3.771   1.544  0.7566  1.1926  2.6606
16488TIP3   OH270878   1.748   4.817  17.011  0.7387  0.0021  0.1554
16488TIP3    H170879   1.683   4.785  17.073 -0.3113 -0.2032 -1.0279
16488TIP3    H270880   1.781   4.898  17.051 -0.9462  0.6346  0.3164
16489TIP3   OH270881   1.786   1.289  11.733 -0.0682 -0.1792 -0.0726
16489TIP3    H170882   1.778   1.218  11.796  0.7506  0.6945  1.0652
16489TIP3    H270883   1.750   1.365  11.779  2.0956  0.8420  0.0350
16490TIP3   OH270884   3.487   2.913   2.413  0.6160  0.2162 -0.5305
16490TIP3    H170885   3.506   2.968   2.489  0.1358  0.2746 -0.4471
16490TIP3    H270886   3.493   2.823   2.446  4.0198  0.0599 -1.2562
16491TIP3   OH270887   4.025   6.748   0.870 -0.2886  0.5111  0.2214
16491TIP3    H170888   4.081   6.703   0.933  0.5918  0.2377 -0.7252
16491TIP3    H270889   4.051   6.713   0.785  0.1856  2.5074 -0.5264
16492TIP3   OH270890   4.291   4.969   6.045  0.1390  0.0823  0.3940
16492TIP3    H170891   4.293   5.026   6.122  1.4075 -0.2693  0.6497
16492TIP3    H270892   4.273   5.028   5.972  1.4889  0.8480  0.6485
16493TIP3   OH270893   4.439   2.036   4.480  0.3894 -0.0243  0.3903
16493TIP3    H170894   4.510   2.050   4.544  2.3504 -1.4765 -1.3119
16493TIP3    H270895   4.484   2.032   4.396 -2.1657  2.3594 -1.2244
16494TIP3   OH270896   6.191   2.227  11.183 -0.3263 -0.1360 -0.6885
16494TIP3    H170897   6.211   2.136  11.206 -1.2594 -0.3226 -0.5883
16494TIP3    H270898   6.277   2.269  11.177  0.0429 -0.4201  1.6870
16495TIP3   OH270899   0.305   6.453   0.899 -0.1078  0.1484  0.1041
16495TIP3    H170900   0.375   6.390   0.879 -0.9382 -1.3655  1.6637
16495TIP3    H270901   0.252   6.409   0.966 -1.9740  1.6605 -0.2893
16496TIP3   OH270902   3.636   4.853  11.238 -0.1091 -0.2812  0.3054
16496TIP3    H170903   3.568   4.916  11.214  0.7782  0.1525 -1.1874
16496TIP3    H270904   3.615   4.774  11.187  0.6135 -0.0742 -0.3227
16497TIP3   OH270905   5.525   6.566  12.308  0.2817  0.1392  0.1234
16497TIP3    H170906   5.606   6.610  12.334  0.1433  0.7860 -0.5350
16497TIP3    H270907   5.461   6.593  12.373  0.5930 -0.4004  0.6662
16498TIP3   OH270908   0.101   6.293   2.872  0.1775 -0.3697  0.1038
16498TIP3    H170909   0.022   6.344   2.855 -0.3639 -1.0551  0.5199
16498TIP3    H270910   0.143   6.285   2.786  1.4552  2.6146  0.3298
16499TIP3   OH270911   6.142   3.863  12.550  0.2037  0.7455 -0.3113
16499TIP3    H170912   6.114   3.901  12.466  1.0995  1.1445 -0.4349
16499TIP3    H270913   6.062   3.860  12.602 -0.0603  1.9562 -0.6210
16500TIP3   OH270914   4.803   2.321  13.517  0.4477  0.4340  0.1174
16500TIP3    H170915   4.755   2.381  13.573  0.0920  0.6957 -0.4557
16500TIP3    H270916   4.839   2.376  13.447  1.5676  0.2402  0.5193
16501TIP3   OH270917   4.914   1.120  16.870  0.2856  0.5520  0.5543
16501TIP3    H170918   4.956   1.039  16.841  0.1167  0.5614  0.2770
16501TIP3    H270919   4.945   1.132  16.960  0.3813  0.2293  0.5663
16502TIP3   OH270920   0.825   2.896  12.415  0.3451  0.2637  0.1992
16502TIP3    H170921   0.762   2.830  12.386  0.2983  0.4065 -0.0284
16502TIP3    H270922   0.841   2.875  12.507  0.9145 -0.5269 -0.0759
16503TIP3   OH270923   6.261   0.192  11.295 -0.5964 -0.4815 -0.4550
16503TIP3    H170924   6.199   0.120  11.284 -1.9338  0.7682 -1.3476
16503TIP3    H270925   6.246   0.249  11.220  0.4462  0.7412  0.2216
16504TIP3   OH270926   6.243   3.530   0.139 -0.1495  0.4637  0.2546
16504TIP3    H170927   6.266   3.583   0.215 -0.2831 -2.1980  2.2851
16504TIP3    H270928   6.147   3.533   0.136 -0.1824 -0.0660  0.6949
16505TIP3   OH270929   5.838   6.046   6.023  0.1790 -0.3990  0.2720
16505TIP3    H170930   5.901   6.050   5.950  0.7965  2.3387  0.8394
16505TIP3    H270931   5.887   6.079   6.098 -1.6854  1.0518  0.9184
16506TIP3   OH270932   3.582   4.048  16.953 -0.5144  0.1507  0.1390
16506TIP3    H170933   3.565   4.143  16.956  2.8885  1.0361 -2.3676
16506TIP3    H270934   3.502   4.009  16.987 -1.7746  3.8996  2.1711
16507TIP3   OH270935   2.876   0.991  11.155  0.0394  0.3325 -0.0957
16507TIP3    H170936   2.877   0.932  11.079 -0.9380  0.9042 -0.5709
16507TIP3    H270937   2.869   1.078  11.116 -0.0013  0.6633  0.6495
16508TIP3   OH270938   3.326   0.676   1.855  0.1957 -0.1643  0.0354
16508TIP3    H170939   3.300   0.728   1.779 -1.2407  1.2429  1.4403
16508TIP3    H270940   3.339   0.588   1.820 -0.3879  0.4489 -1.8355
16509TIP3   OH270941   0.660   5.480   3.711  0.2013 -0.0206 -0.3501
16509TIP3    H170942   0.612   5.441   3.639  0.2646  0.9294 -0.9254
16509TIP3    H270943   0.648   5.419   3.784  1.8154 -2.0568 -1.6819
16510TIP3   OH270944   0.552   5.875   5.673  1.0242  0.2055 -0.1764
16510TIP3    H170945   0.561   5.911   5.585  0.6325  2.3771  0.6181
16510TIP3    H270946   0.499   5.939   5.720 -2.3316 -2.7516  0.5843
16511TIP3   OH270947   4.328   5.352   0.100  0.2926  0.4398  0.3700
16511TIP3    H170948   4.346   5.442   0.072  0.4505  0.2025 -0.3088
16511TIP3    H270949   4.408   5.324   0.144  0.0868  0.7725  0.9783
16512TIP3   OH270950   4.085   4.233  11.204 -0.0830 -0.3127 -0.2905
16512TIP3    H170951   4.091   4.240  11.109 -1.2439  2.4030 -0.2602
16512TIP3    H270952   3.992   4.224  11.222  0.1504 -1.0873  0.5928
16513TIP3   OH270953   1.649   0.725  16.473  0.6525 -0.0684 -0.8896
16513TIP3    H170954   1.683   0.675  16.398  0.0050 -0.6277 -0.8099
16513TIP3    H270955   1.657   0.666  16.547  1.3745  0.5167 -0.4767
16514TIP3   OH270956   4.743   2.137  17.149  0.1613 -0.0314  0.1305
16514TIP3    H170957   4.822   2.106  17.194  0.3263 -0.6344 -0.5554
16514TIP3    H270958   4.724   2.221  17.189  0.3876 -0.4841  1.2276
16515TIP3   OH270959   6.162   5.888   3.391 -0.0815 -0.1681  0.7067
16515TIP3    H170960   6.145   5.854   3.303 -1.3368  0.2973  0.7595
16515TIP3    H270961   6.098   5.844   3.447  0.2330  0.0802  1.2718
16516TIP3   OH270962   2.121   0.077  14.532  0.4253  0.3193  0.0612
16516TIP3    H170963   2.120   0.172  14.545 -0.3740  0.5485 -1.5105
16516TIP3    H270964   2.099   0.041  14.619 -0.0007  1.5817  0.5018
16517TIP3   OH270965   6.009   2.748   0.656 -0.2917 -0.1879 -0.2118
16517TIP3    H170966   5.961   2.692   0.716  0.7993  0.2899  1.1600
16517TIP3    H270967   5.948   2.819   0.635 -0.4289  0.0606  0.9739
16518TIP3   OH270968   1.805   2.971   3.855 -0.1069  0.0004 -0.6587
16518TIP3    H170969   1.713   2.969   3.880 -0.3214 -1.3128 -1.4617
16518TIP3    H270970   1.851   2.933   3.930 -0.5938 -2.5075 -1.5387
16519TIP3   OH270971   0.748   3.353   0.226 -0.4574 -0.4460  0.2925
16519TIP3    H170972   0.723   3.423   0.285  0.2739 -0.2122  0.3307
16519TIP3    H270973   0.753   3.395   0.140 -0.1641 -0.4787  0.2922
16520TIP3   OH270974   3.855   5.927   5.230 -0.0398 -0.2600 -0.0499
16520TIP3    H170975   3.935   5.928   5.178  0.2587 -0.6085  0.3977
16520TIP3    H270976   3.785   5.948   5.167  0.4422  0.4545 -0.3634
16521TIP3   OH270977   5.964   6.483   4.145 -0.5442  0.5701  0.4661
16521TIP3    H170978   6.003   6.469   4.231  0.6084  0.7519 -0.0088
16521TIP3    H270979   5.995   6.570   4.118 -1.7603  0.9700  0.3165
16522TIP3   OH270980   2.745   0.572  13.042 -0.1514  0.0342  0.6959
16522TIP3    H170981   2.724   0.558  13.134 -1.9669  0.7469  0.4374
16522TIP3    H270982   2.765   0.666  13.037  1.0878 -0.2310  0.5569
16523TIP3   OH270983   0.196   2.552  15.544  0.0998 -0.8379 -0.4966
16523TIP3    H170984   0.193   2.638  15.586  1.1862 -1.0533  0.0699
16523TIP3    H270985   0.137   2.498  15.596 -2.0016 -0.0279 -1.9211
16524TIP3   OH270986   2.612   4.843   4.751  0.3832 -0.1011  0.1301
16524TIP3    H170987   2.616   4.796   4.668  2.7584  0.0062  0.1225
16524TIP3    H270988   2.652   4.928   4.732  0.4963  0.1060  1.2528
16525TIP3   OH270989   0.431   1.356  10.733 -0.1909 -0.0975 -0.7947
16525TIP3    H170990   0.517   1.319  10.756  1.2350  0.8920 -4.0069
16525TIP3    H270991   0.425   1.437  10.785  0.2293 -0.7493  0.3187
16526TIP3   OH270992   3.427   4.446  12.087  0.1098  0.0270  0.4170
16526TIP3    H170993   3.411   4.538  12.112 -0.9580 -0.0035 -0.1006
16526TIP3    H270994   3.421   4.446  11.992  0.3738 -0.5352  0.4008
16527TIP3   OH270995   1.334   1.646   6.553 -0.0119 -0.2670  0.0464
16527TIP3    H170996   1.253   1.598   6.568 -0.3388  0.2445 -0.0962
16527TIP3    H270997   1.402   1.578   6.553 -0.6245 -0.9164 -1.6035
16528TIP3   OH270998   0.524   2.309   4.695 -0.1148 -0.4558  0.0297
16528TIP3    H170999   0.563   2.384   4.740 -1.7450  0.9104 -0.7110
16528TIP3    H271000   0.545   2.234   4.751 -0.1155  0.8310  1.8572
16529TIP3   OH271001   4.472   5.243   0.525  0.3588  0.2630  0.2267
16529TIP3    H171002   4.422   5.169   0.491  1.1638 -0.6750  1.0404
16529TIP3    H271003   4.409   5.315   0.528 -1.0719 -0.9933  1.6027
16530TIP3   OH271004   6.528   3.721  14.863  0.1323  0.0796 -0.2138
16530TIP3    H171005   6.434   3.704  14.868  0.0453  0.4349 -0.6749
16530TIP3    H271006   6.561   3.653  14.804  0.4508 -1.1696  1.3283
16531TIP3   OH271007   2.484   3.955  12.797  0.3954 -0.0192  0.4428
16531TIP3    H171008   2.575   3.943  12.824  0.4506 -1.8984 -0.4902
16531TIP3    H271009   2.437   3.971  12.879  1.3891 -0.0540  1.0358
16532TIP3   OH271010   3.643   4.952  12.976  0.1178 -0.1304 -0.6699
16532TIP3    H171011   3.560   4.964  12.930  0.0279  0.5789 -0.3436
16532TIP3    H271012   3.710   4.966  12.910 -0.0106 -1.4951 -1.1188
16533TIP3   OH271013   0.638   5.592   3.360 -0.1779 -0.2063  0.5143
16533TIP3    H171014   0.583   5.622   3.288  1.8073  0.9622 -0.6077
16533TIP3    H271015   0.616   5.650   3.433  0.5061  1.1641 -0.3316
16534TIP3   OH271016   2.306   5.042  16.190  0.1854 -0.5845 -0.1523
16534TIP3    H171017   2.269   4.981  16.126  0.9877 -1.3644  0.0943
16534TIP3    H271018   2.379   4.994  16.228 -0.1111 -0.0237  1.1598
16535TIP3   OH271019   5.788   0.284   6.161  0.4229  0.0800  0.5167
16535TIP3    H171020   5.781   0.271   6.255  0.0794 -0.2095  0.4526
16535TIP3    H271021   5.698   0.299   6.132  0.3061 -1.5330 -0.0099
16536TIP3   OH271022   6.001   0.251  13.811 -0.4418 -0.1987 -0.1320
16536TIP3    H171023   6.027   0.269  13.902 -0.9713 -0.3759  0.0536
16536TIP3    H271024   6.080   0.213  13.771 -0.3939 -0.6850  0.4163
16537TIP3   OH271025   4.479   5.071   4.599 -0.7909 -0.0911 -0.0301
16537TIP3    H171026   4.534   4.996   4.623 -1.3825  0.0822  2.0563
16537TIP3    H271027   4.409   5.034   4.547  0.1249 -0.6318 -0.9127
16538TIP3   OH271028   5.804   3.490  16.438 -0.1410 -0.1766 -0.4482
16538TIP3    H171029   5.759   3.538  16.368  1.8764 -0.7477 -2.2428
16538TIP3    H271030   5.750   3.505  16.515 -2.0002  1.2363 -1.9112
16539TIP3   OH271031   4.505   2.292   6.637  0.4775  0.3322  0.4372
16539TIP3    H171032   4.444   2.242   6.690  0.1322  1.0714  0.7532
16539TIP3    H271033   4.468   2.289   6.549 -0.8332  1.9762  0.8796
16540TIP3   OH271034   0.858   2.626  13.289 -0.0566  0.5683 -0.0190
16540TIP3    H171035   0.932   2.621  13.349  1.0841  2.9967 -1.0975
16540TIP3    H271036   0.786   2.583  13.336  1.6676 -0.7248  1.5843
16541TIP3   OH271037   1.232   0.338   4.766  0.0064  0.0606  0.8318
16541TIP3    H171038   1.180   0.260   4.785  1.0683 -0.8502  0.1587
16541TIP3    H271039   1.177   0.389   4.707 -1.6264  0.9533  3.0176
16542TIP3   OH271040   4.815   6.486   6.189  0.1658 -0.5163  0.4710
16542TIP3    H171041   4.773   6.456   6.270  0.8387 -0.0708  1.0008
16542TIP3    H271042   4.751   6.544   6.149 -0.0511 -0.4972  0.8401
16543TIP3   OH271043   3.105   0.863   0.868  0.1243  0.2542 -1.0422
16543TIP3    H171044   3.098   0.901   0.956 -2.0966  0.0826 -1.1001
16543TIP3    H271045   3.187   0.899   0.833 -0.4689  2.7832 -0.0655
16544TIP3   OH271046   3.742   1.540  14.975 -0.3471 -0.0881  0.0628
16544TIP3    H171047   3.650   1.565  14.977  0.1628  1.9928 -0.0204
16544TIP3    H271048   3.757   1.506  14.887 -1.0941 -0.7749  0.1934
16545TIP3   OH271049   4.086   1.606  16.768 -0.0059  0.2443 -0.1813
16545TIP3    H171050   4.099   1.572  16.680  0.5959  1.5034 -0.6004
16545TIP3    H271051   4.155   1.672  16.779 -0.5569  0.6694  0.9352
16546TIP3   OH271052   4.882   3.404   2.767 -0.0746  0.2058  0.2068
16546TIP3    H171053   4.881   3.497   2.746 -1.7231  0.3478  0.7791
16546TIP3    H271054   4.868   3.360   2.683 -1.1168  0.5597  0.1778
16547TIP3   OH271055   4.870   2.611   6.755  0.1387 -0.3631 -0.0440
16547TIP3    H171056   4.802   2.545   6.765  0.2883 -0.5393 -0.1845
16547TIP3    H271057   4.827   2.685   6.712  0.2763 -0.8541 -1.0441
16548TIP3   OH271058   5.127   5.598   3.743  0.1711  0.3697  0.2599
16548TIP3    H171059   5.172   5.675   3.777  1.1833 -0.1273  0.0842
16548TIP3    H271060   5.123   5.538   3.818 -0.2891  0.4431  0.2983
16549TIP3   OH271061   4.410   1.114   3.892 -0.4113 -0.5932  0.2670
16549TIP3    H171062   4.448   1.028   3.910  1.1378  0.3831  1.9631
16549TIP3    H271063   4.475   1.158   3.836 -1.1168 -0.4429 -0.4587
16550TIP3   OH271064   3.519   5.122   2.821  0.0816  0.6926 -0.3386
16550TIP3    H171065   3.508   5.206   2.866  0.3379  0.9066 -0.6718
16550TIP3    H271066   3.492   5.057   2.886  0.0993  1.0174  0.0026
16551TIP3   OH271067   1.984   0.826  12.455 -0.1766 -0.4621 -0.4193
16551TIP3    H171068   2.076   0.814  12.434  0.5785 -0.7450  2.5718
16551TIP3    H271069   1.937   0.764  12.398  1.6944 -2.0607 -0.3084
16552TIP3   OH271070   0.428   2.194   0.089  0.4309 -0.2421 -0.5528
16552TIP3    H171071   0.345   2.235   0.113  0.7040  0.3102 -0.5289
16552TIP3    H271072   0.422   2.181  -0.005  0.8512  1.0580 -0.7785
16553TIP3   OH271073   5.968   5.968   5.758 -0.0739  0.4925 -0.5543
16553TIP3    H171074   5.935   5.885   5.724  3.4263 -1.1178 -0.4431
16553TIP3    H271075   6.017   6.006   5.685  1.0691  0.8188  0.3585
16554TIP3   OH271076   6.720   4.028   1.099  0.7618 -0.3902 -0.1916
16554TIP3    H171077   6.628   4.016   1.122  0.6429 -1.3201 -1.0552
16554TIP3    H271078   6.761   4.058   1.179 -0.0347 -1.3589  0.6148
16555TIP3   OH271079   2.750   6.349  15.955  0.2144 -0.1245 -0.0723
16555TIP3    H171080   2.798   6.270  15.930  0.5733 -0.3969  1.3958
16555TIP3    H271081   2.814   6.420  15.946 -0.1883  0.0709 -1.6682
16556TIP3   OH271082   2.704   4.340  11.178  0.3499  0.8875 -0.4422
16556TIP3    H171083   2.681   4.256  11.137  1.5155  1.3726 -2.1696
16556TIP3    H271084   2.784   4.321  11.228 -0.4014  0.5774  0.6792
16557TIP3   OH271085   0.704   6.428   5.300  0.1605  0.2041  0.1646
16557TIP3    H171086   0.760   6.411   5.376 -1.4189  0.1850  1.3631
16557TIP3    H271087   0.726   6.518   5.275  1.8898 -0.3421 -0.4440
16558TIP3   OH271088   2.058   6.712  16.713  0.0754 -0.0970 -0.3867
16558TIP3    H171089   2.134   6.761  16.742 -0.1892  0.8536 -1.2240
16558TIP3    H271090   2.092   6.648  16.651  0.0596  1.3715 -1.9869
16559TIP3   OH271091   0.712   6.438  16.838  0.1066 -0.5435 -0.3411
16559TIP3    H171092   0.783   6.478  16.786 -0.5960  1.6500  0.2778
16559TIP3    H271093   0.632   6.464  16.793 -0.3930 -1.6950 -0.1566
16560TIP3   OH271094   3.602   1.236   2.285 -0.3069 -0.2820  0.4758
16560TIP3    H171095   3.693   1.242   2.258 -0.4803 -0.3564 -0.1539
16560TIP3    H271096   3.601   1.268   2.375  0.3180 -0.1587  0.4432
16561TIP3   OH271097   2.769   4.199  15.361 -0.4692 -0.2436  0.0799
16561TIP3    H171098   2.716   4.153  15.427 -1.9029 -0.1342 -0.9461
16561TIP3    H271099   2.852   4.152  15.359 -0.8331 -0.9591  1.1311
16562TIP3   OH271100   3.516   4.302  16.164  0.1662  0.2428 -0.0980
16562TIP3    H171101   3.543   4.373  16.222  0.8486 -1.2798  1.5360
16562TIP3    H271102   3.431   4.330  16.130 -0.3116  1.1787  1.7232
16563TIP3   OH271103   3.692   2.490   3.943  0.7153 -0.3274  0.1232
16563TIP3    H171104   3.726   2.422   4.001  0.1916  0.4972  1.4474
16563TIP3    H271105   3.769   2.541   3.919  0.9768 -0.8340 -0.1295
16564TIP3   OH271106   5.920   3.533   2.259  0.2424  0.2195 -0.4197
16564TIP3    H171107   5.932   3.616   2.214  0.2345  0.5344  0.1537
16564TIP3    H271108   5.882   3.556   2.344 -1.6403 -0.5155 -1.0066
16565TIP3   OH271109   1.668   4.507   4.499 -0.6068  0.0862 -0.1248
16565TIP3    H171110   1.672   4.522   4.405 -2.0635  0.4526 -0.1468
16565TIP3    H271111   1.644   4.414   4.507  2.7640 -0.8996 -0.0378
16566TIP3   OH271112   2.784   3.697   1.083 -0.7426 -0.0939 -0.2973
16566TIP3    H171113   2.701   3.717   1.040 -1.0188 -0.6934 -0.0699
16566TIP3    H271114   2.772   3.727   1.173 -0.0528  1.4455 -0.6830
16567TIP3   OH271115   5.651   1.860   2.928  0.0791  0.2712  0.0997
16567TIP3    H171116   5.664   1.912   2.849  1.6166 -0.5732 -0.2303
16567TIP3    H271117   5.594   1.788   2.901 -0.1960  0.5190  0.0126
16568TIP3   OH271118   1.157   0.022  13.892 -0.4305 -0.2286  0.2777
16568TIP3    H171119   1.195   0.109  13.900 -1.9963  0.5179 -0.0551
16568TIP3    H271120   1.116   0.021  13.806 -0.0568 -1.4662  0.0959
16569TIP3   OH271121   1.305   5.876  15.972 -0.4770 -0.0191 -0.1800
16569TIP3    H171122   1.289   5.911  15.885  2.6509  1.0046 -0.4461
16569TIP3    H271123   1.313   5.782  15.959 -0.8223  0.0390 -0.8589
16570TIP3   OH271124   2.184   3.200   2.741 -0.3794 -0.1286 -0.3252
16570TIP3    H171125   2.154   3.126   2.689 -1.1460  0.3123 -0.5267
16570TIP3    H271126   2.248   3.163   2.801 -1.3736 -1.1093  0.1545
16571TIP3   OH271127   1.685   1.648  14.375 -0.2667  0.1521 -0.1904
16571TIP3    H171128   1.730   1.592  14.311 -0.8649 -0.4593 -0.0838
16571TIP3    H271129   1.661   1.726  14.325 -0.1604 -0.0411 -0.5504
16572TIP3   OH271130   0.934   1.721  12.707 -0.3609 -0.9842 -0.3078
16572TIP3    H171131   0.945   1.757  12.619 -1.8600  0.2443 -0.0331
16572TIP3    H271132   0.904   1.631  12.693 -0.1451 -0.9406 -1.0560
16573TIP3   OH271133   0.529   5.145   2.718  0.2623  0.1087  0.5031
16573TIP3    H171134   0.484   5.063   2.737 -1.1879  1.1196  1.6944
16573TIP3    H271135   0.494   5.173   2.633 -2.2537  1.3470  1.8197
16574TIP3   OH271136   0.534   3.941  13.680  0.1825  0.2280  0.2225
16574TIP3    H171137   0.597   3.970  13.615 -0.9774  1.0205 -0.5954
16574TIP3    H271138   0.455   3.920  13.629 -0.9388  1.3817  1.3939
16575TIP3   OH271139   3.430   3.283  15.965 -0.1012  0.2577 -0.5837
16575TIP3    H171140   3.507   3.230  15.949  0.2340  0.7027 -0.4624
16575TIP3    H271141   3.459   3.351  16.026 -0.5942  0.4058 -0.5056
16576TIP3   OH271142   3.043   4.211   5.827  0.0859 -0.4413 -0.0184
16576TIP3    H171143   3.056   4.142   5.892  1.5094  1.4546  1.8509
16576TIP3    H271144   3.131   4.243   5.807 -0.5630  1.4074 -0.1362
16577TIP3   OH271145   4.960   4.989  11.341  0.4648  0.2163  0.2607
16577TIP3    H171146   5.026   5.033  11.287 -0.3221  2.6037  1.1246
16577TIP3    H271147   4.983   5.012  11.431 -0.5356 -0.3835  0.6844
16578TIP3   OH271148   5.273   1.955   0.280 -0.0589 -0.3930  0.1275
16578TIP3    H171149   5.266   2.032   0.224 -0.1066  0.9527  1.8798
16578TIP3    H271150   5.201   1.899   0.253 -0.5641  0.5768 -0.6217
16579TIP3   OH271151   0.660   0.097   0.289  0.1610  0.0584 -0.6234
16579TIP3    H171152   0.651   0.004   0.311 -2.4207  0.2485 -0.6277
16579TIP3    H271153   0.744   0.123   0.328 -0.0174 -1.7664  1.1334
16580TIP3   OH271154   3.695   3.135  13.754  0.0733  0.3375 -0.0269
16580TIP3    H171155   3.651   3.069  13.701 -0.5807  0.4718  0.3251
16580TIP3    H271156   3.665   3.117  13.843  1.5116 -0.1708  0.3767
16581TIP3   OH271157   3.141   5.538   0.283 -0.3873  0.1216 -0.1504
16581TIP3    H171158   3.143   5.443   0.287 -1.0435  0.0487 -1.2264
16581TIP3    H271159   3.054   5.559   0.248 -0.2807  1.1185  0.1529
16582TIP3   OH271160   0.680   4.658  15.925 -0.4089 -0.4706 -0.2206
16582TIP3    H171161   0.707   4.683  16.013 -0.8348  2.5012 -0.8118
16582TIP3    H271162   0.597   4.705  15.911  1.1324  1.7325 -3.1968
16583TIP3   OH271163   4.542   4.003   5.766 -0.5209 -0.0015 -0.6130
16583TIP3    H171164   4.462   3.952   5.779 -0.9839 -0.8115 -4.9857
16583TIP3    H271165   4.613   3.939   5.777 -0.6371  0.0032  0.2498
16584TIP3   OH271166   6.692   4.138   2.327 -0.1031 -0.3678  0.1677
16584TIP3    H171167   6.635   4.129   2.404 -0.8934  0.7631 -0.2598
16584TIP3    H271168   6.742   4.218   2.344 -0.1098 -0.2467 -0.3809
16585TIP3   OH271169   5.488   0.307  13.294 -0.0049 -0.0584  0.1782
16585TIP3    H171170   5.435   0.387  13.293 -0.0453 -0.0509  1.5285
16585TIP3    H271171   5.446   0.251  13.359  0.9958 -0.4971  0.4674
16586TIP3   OH271172   4.904   3.003  11.019  0.0723 -0.1661  0.1164
16586TIP3    H171173   4.828   3.048  10.983  2.0755  2.7928 -0.6902
16586TIP3    H271174   4.944   2.959  10.944  0.3046  0.0170  0.1336
16587TIP3   OH271175   1.582   4.146   5.613 -0.0807 -0.2020 -0.0002
16587TIP3    H171176   1.657   4.101   5.652 -0.3846  0.4094  1.3734
16587TIP3    H271177   1.585   4.234   5.652 -0.7115  0.2752 -0.9987
16588TIP3   OH271178   0.470   0.176  15.484 -0.2918 -0.0073  0.6377
16588TIP3    H171179   0.541   0.175  15.548  2.3268 -1.0807 -2.0392
16588TIP3    H271180   0.428   0.090  15.493  1.7214 -1.2082 -0.6617
16589TIP3   OH271181   3.142   0.621  14.782  0.0997  0.1486 -0.1680
16589TIP3    H171182   3.160   0.537  14.740  0.0564  0.0358  0.0412
16589TIP3    H271183   3.124   0.681  14.709  1.0038  0.1872 -0.3712
16590TIP3   OH271184   0.159   2.328   4.153  0.9900 -0.2691 -0.4618
16590TIP3    H171185   0.066   2.332   4.171  1.0566 -1.0518  0.0981
16590TIP3    H271186   0.166   2.338   4.058  0.5319  2.4618 -0.2947
16591TIP3   OH271187   6.287   4.103   5.450 -0.0319 -0.0521 -0.0361
16591TIP3    H171188   6.372   4.069   5.424 -0.4539 -0.4696 -0.8871
16591TIP3    H271189   6.270   4.063   5.536  1.3251  1.2628  0.8996
16592TIP3   OH271190   0.074   3.108   0.944  0.4999  0.2842 -0.0770
16592TIP3    H171191   0.037   3.159   0.872 -1.9846  0.2920  1.0875
16592TIP3    H271192   0.049   3.018   0.926  0.0970  0.2479  0.6126
16593TIP3   OH271193   5.595   4.403   6.296 -0.2628 -0.5893  0.1265
16593TIP3    H171194   5.652   4.479   6.301 -0.9026 -0.1193  0.3919
16593TIP3    H271195   5.573   4.383   6.387  2.9913 -3.5147  0.4749
16594TIP3   OH271196   5.324   5.580  12.392  0.6510  0.1084 -0.4040
16594TIP3    H171197   5.271   5.659  12.377  0.5499  0.2054  0.4420
16594TIP3    H271198   5.359   5.559  12.305 -1.6477 -0.5950 -1.2414
16595TIP3   OH271199   0.557   4.954   3.466  0.0187  0.1442  0.0857
16595TIP3    H171200   0.642   4.944   3.508  1.0104  1.7360 -1.4323
16595TIP3    H271201   0.514   5.024   3.516 -1.7943 -2.6133  2.7979
16596TIP3   OH271202   1.995   1.909   2.320  0.0753 -0.1808  0.1020
16596TIP3    H171203   2.016   2.001   2.303 -0.3233 -0.1077 -0.0172
16596TIP3    H271204   1.946   1.910   2.402  0.3780 -0.3269  0.2850
16597TIP3   OH271205   6.594   0.872   1.800  0.2079 -0.5198  0.7112
16597TIP3    H171206   6.634   0.958   1.788  0.1725 -0.5815  0.1131
16597TIP3    H271207   6.591   0.834   1.712 -0.9690 -0.5984  0.7603
16598TIP3   OH271208   0.300   3.818  17.304 -0.5192 -0.6638  0.2249
16598TIP3    H171209   0.367   3.788  17.242 -0.5622 -0.1091 -0.0950
16598TIP3    H271210   0.331   3.903  17.335 -1.0258 -0.4441  0.1435
16599TIP3   OH271211   4.936   3.777  11.068  0.0311  0.0237 -0.1869
16599TIP3    H171212   4.924   3.759  10.975 -0.8332  1.3391 -0.3618
16599TIP3    H271213   4.910   3.696  11.112  0.8743 -0.7616 -1.0912
16600TIP3   OH271214   4.487   2.083   3.974 -0.7715  0.1940 -0.0440
16600TIP3    H171215   4.501   2.177   3.963 -1.1574  0.0388 -2.4016
16600TIP3    H271216   4.558   2.041   3.926  0.3604 -0.8148  2.3371
16601TIP3   OH271217   1.439   4.147   3.921  0.0158  0.1285 -0.2749
16601TIP3    H171218   1.374   4.078   3.904  0.6966 -0.5269 -0.2808
16601TIP3    H271219   1.522   4.109   3.890  0.2994  1.2004 -0.8573
16602TIP3   OH271220   6.530   3.591   4.625  0.6432 -0.0598 -0.0314
16602TIP3    H171221   6.569   3.526   4.566  1.9247  0.3412  0.3472
16602TIP3    H271222   6.517   3.544   4.707  0.2648 -0.1983 -0.1633
16603TIP3   OH271223   2.473   1.334   3.934  0.3898 -0.4250  0.6295
16603TIP3    H171224   2.491   1.240   3.945  0.5788 -0.6182 -1.0513
16603TIP3    H271225   2.559   1.374   3.929  0.3251  0.0433  2.5693
16604TIP3   OH271226   3.854   2.489  15.007  0.2398  0.2111  0.3876
16604TIP3    H171227   3.845   2.415  15.067 -1.7049 -0.1342 -0.2377
16604TIP3    H271228   3.928   2.539  15.040 -0.4039 -0.2830  2.7206
16605TIP3   OH271229   3.783   4.346  12.834  0.2037 -0.0200 -0.0013
16605TIP3    H171230   3.760   4.381  12.920  0.2091  2.4575 -0.9209
16605TIP3    H271231   3.876   4.364  12.825  0.0552  0.4185 -0.7914
16606TIP3   OH271232   4.345   6.735   0.042 -0.2324 -0.1031 -0.0950
16606TIP3    H171233   4.405   6.711  -0.029 -0.4624 -0.2630 -0.2372
16606TIP3    H271234   4.303   6.653   0.067 -0.2336 -0.0278  0.1545
16607TIP3   OH271235   3.042   4.546  12.689  0.3521  0.1842  0.5861
16607TIP3    H171236   3.076   4.626  12.649  1.0790  0.6648  2.0938
16607TIP3    H271237   3.093   4.476  12.649  1.0113  0.6438  0.6016
16608TIP3   OH271238   5.364   3.622  13.367 -0.3007  0.1491  0.0588
16608TIP3    H171239   5.274   3.595  13.350 -1.4357  3.6129 -0.1701
16608TIP3    H271240   5.382   3.689  13.302  1.7176  1.0046  1.3785
16609TIP3   OH271241   2.980   1.258  15.304  0.0867  0.1276  0.3251
16609TIP3    H171242   3.027   1.210  15.236  0.6730  0.5807  0.4009
16609TIP3    H271243   2.888   1.255  15.277  0.3418  0.4965 -0.5994
16610TIP3   OH271244   4.963   5.576  15.798 -0.2735 -0.1320  0.5854
16610TIP3    H171245   5.027   5.598  15.866 -0.3271 -1.1947  1.0013
16610TIP3    H271246   4.880   5.613  15.830 -0.2228 -0.3042  0.9168
16611TIP3   OH271247   4.667   5.318   3.652 -0.4290  0.8831  0.3775
16611TIP3    H171248   4.660   5.232   3.611 -1.5225  1.2999 -0.3530
16611TIP3    H271249   4.760   5.340   3.648 -0.3876  0.5333 -1.1265
16612TIP3   OH271250   0.655   5.762   2.193  0.6151 -0.0799  0.5335
16612TIP3    H171251   0.576   5.811   2.170 -0.1985 -1.7452 -0.3895
16612TIP3    H271252   0.720   5.789   2.129  0.1914 -0.1421  0.0738
16613TIP3   OH271253   5.924   0.319  11.926 -0.0623  0.9842  0.0654
16613TIP3    H171254   5.832   0.342  11.918 -0.3113 -0.5325 -2.4942
16613TIP3    H271255   5.966   0.359  11.850  0.6153 -1.4429 -0.9493
16614TIP3   OH271256   2.681   5.125  12.182  0.1672  0.2169 -0.2766
16614TIP3    H171257   2.641   5.059  12.125  0.3668 -0.0397 -0.1235
16614TIP3    H271258   2.693   5.201  12.125 -1.9047  0.8398  0.0331
16615TIP3   OH271259   4.201   3.251  11.485 -0.5795  0.7622 -0.2884
16615TIP3    H171260   4.158   3.169  11.509  0.9925 -0.4994 -1.5273
16615TIP3    H271261   4.132   3.317  11.490 -2.8970 -1.2575 -2.9086
16616TIP3   OH271262   6.421   4.717   4.260  0.3043  0.0971  0.0318
16616TIP3    H171263   6.453   4.712   4.350 -0.0452  2.1104  0.3176
16616TIP3    H271264   6.335   4.677   4.263  0.5566 -0.4302  0.4507
16617TIP3   OH271265   5.271   5.545  14.025  0.2560  0.3613 -0.3860
16617TIP3    H171266   5.326   5.623  14.019  2.3528 -0.9721  0.4051
16617TIP3    H271267   5.257   5.518  13.935  2.1449 -0.0480 -0.5952
16618TIP3   OH271268   4.215   3.968  11.767  0.2734 -0.1250  0.2504
16618TIP3    H171269   4.270   4.029  11.816 -1.2621  1.5634 -0.0512
16618TIP3    H271270   4.271   3.939  11.694  0.9897  1.0109  0.3259
16619TIP3   OH271271   1.639   1.579   5.156  0.5592 -0.8003  0.0239
16619TIP3    H171272   1.612   1.586   5.248 -2.1438  2.1674 -0.7820
16619TIP3    H271273   1.590   1.505   5.122 -2.1660  0.8231  0.0686
16620TIP3   OH271274   0.689   3.305   1.152 -0.1432 -0.4607 -0.4341
16620TIP3    H171275   0.715   3.230   1.205  2.0732 -0.0209 -0.8034
16620TIP3    H271276   0.714   3.381   1.203 -0.2219 -0.0041 -1.0576
16621TIP3   OH271277   6.139   3.761  14.453  0.7523  0.1521 -0.4281
16621TIP3    H171278   6.193   3.685  14.476 -0.3187 -0.1505  1.2913
16621TIP3    H271279   6.167   3.830  14.514 -1.5985 -0.4195  1.4922
16622TIP3   OH271280   2.284   5.479  13.722  0.2355  0.0339  0.3025
16622TIP3    H171281   2.256   5.568  13.700 -1.2457  0.0159  1.9224
16622TIP3    H271282   2.227   5.422  13.670 -0.4763  0.0333  1.0618
16623TIP3   OH271283   1.965   4.104  14.820  0.3160  0.0148  0.0481
16623TIP3    H171284   2.037   4.132  14.876  0.7621 -1.5498  0.3045
16623TIP3    H271285   1.994   4.020  14.784 -0.1961  0.6937 -2.1055
16624TIP3   OH271286   1.389   5.490   0.471  0.4289  0.0295  0.2302
16624TIP3    H171287   1.394   5.402   0.508  1.2983 -0.2281 -0.4615
16624TIP3    H271288   1.364   5.546   0.544  0.4460 -0.7110  0.8067
16625TIP3   OH271289   6.313   0.885   1.060  0.1800  0.3511  0.0405
16625TIP3    H171290   6.256   0.946   1.106  0.7202  1.0980 -0.2721
16625TIP3    H271291   6.261   0.804   1.054 -0.7577  0.9451 -0.0394
16626TIP3   OH271292   3.649   4.362  14.405 -0.4258 -0.2537  0.0736
16626TIP3    H171293   3.674   4.271  14.418  3.6857  0.7363  0.4257
16626TIP3    H271294   3.660   4.403  14.491  0.6862  1.0834 -0.6525
16627TIP3   OH271295   1.963   3.845   5.202  0.0305 -0.5536  0.0936
16627TIP3    H171296   1.907   3.882   5.269 -2.4928 -0.6173 -1.8496
16627TIP3    H271297   1.964   3.910   5.131  0.2044 -1.7158 -1.0197
16628TIP3   OH271298   3.265   3.995   3.880  0.5802  0.2068 -0.7789
16628TIP3    H171299   3.306   4.053   3.944 -0.5660  1.8865 -1.4812
16628TIP3    H271300   3.311   4.013   3.798  0.8974 -0.6602 -0.7983
16629TIP3   OH271301   2.936   2.372  12.725  0.3837 -0.4976  0.3292
16629TIP3    H171302   2.869   2.311  12.756 -0.0918 -0.8355 -1.2559
16629TIP3    H271303   3.019   2.333  12.755  0.0409 -1.6116 -0.1063
16630TIP3   OH271304   4.313   0.259  15.303  0.2197  0.5085 -0.0129
16630TIP3    H171305   4.259   0.291  15.375  0.3847  0.1290  0.2832
16630TIP3    H271306   4.402   0.287  15.325  0.4501 -0.5794  0.5152
16631TIP3   OH271307   6.411   6.032  15.275 -0.4340 -0.4537 -0.8327
16631TIP3    H171308   6.501   6.056  15.255 -0.7131  0.5119 -1.0346
16631TIP3    H271309   6.358   6.089  15.218 -1.2055  0.7702  0.9807
16632TIP3   OH271310   0.222   5.254   0.259 -0.0062 -0.6455 -0.1272
16632TIP3    H171311   0.285   5.291   0.321  0.0415 -2.5626  1.0426
16632TIP3    H271312   0.276   5.217   0.189  0.0432 -0.2642 -0.2921
16633TIP3   OH271313   6.678   3.642  12.014 -0.2426 -0.0922 -0.1466
16633TIP3    H171314   6.709   3.661  11.926 -1.2725  0.3217 -0.4375
16633TIP3    H271315   6.742   3.684  12.072  0.5826 -0.5927 -0.6797
16634TIP3   OH271316   1.343   1.946  17.051 -0.4831 -0.2091 -0.6172
16634TIP3    H171317   1.390   1.878  17.100 -0.2544 -0.4222 -1.1206
16634TIP3    H271318   1.274   1.975  17.110 -0.8557 -1.1938 -0.5573
16635TIP3   OH271319   3.791   5.922  10.966  0.2734  0.3827  0.1662
16635TIP3    H171320   3.796   5.986  11.036  3.0579 -0.8330  1.2195
16635TIP3    H271321   3.751   5.845  11.008  1.1910 -0.0749  0.2111
16636TIP3   OH271322   0.195   4.383  16.825 -0.1943  0.0219 -0.5807
16636TIP3    H171323   0.231   4.468  16.798 -2.0655  1.4649  1.1600
16636TIP3    H271324   0.104   4.386  16.796 -0.4658 -1.1105  0.1168
16637TIP3   OH271325   2.586   2.411   0.180  0.5091 -0.6959  0.2137
16637TIP3    H171326   2.627   2.326   0.165  0.5437 -0.4181 -1.5245
16637TIP3    H271327   2.608   2.433   0.271  0.4157 -2.5661  0.7201
16638TIP3   OH271328   1.623   5.224   4.174 -0.4803 -0.3694  0.7532
16638TIP3    H171329   1.560   5.212   4.103 -0.3349  1.4278  0.2710
16638TIP3    H271330   1.588   5.172   4.246 -1.0909 -1.5276 -0.3512
16639TIP3   OH271331   4.283   4.503   0.591 -0.5274  0.2090 -0.8699
16639TIP3    H171332   4.203   4.514   0.539  0.7649 -1.6306 -3.4512
16639TIP3    H271333   4.321   4.590   0.596 -1.2600  0.6148 -2.0672
16640TIP3   OH271334   2.800   2.891   1.009  0.3006  0.0403 -0.0237
16640TIP3    H171335   2.831   2.937   1.087 -2.7221  2.2151  0.0634
16640TIP3    H271336   2.761   2.811   1.043  0.1255  0.3651  0.5622
16641TIP3   OH271337   5.025   0.956  16.519 -0.1058 -0.7306 -0.1959
16641TIP3    H171338   5.072   1.039  16.527 -0.8148 -0.3466  0.0793
16641TIP3    H271339   4.975   0.964  16.438 -0.3856 -0.7689 -0.0318
16642TIP3   OH271340   6.435   4.570   5.045 -0.0343 -0.3040  0.1611
16642TIP3    H171341   6.498   4.499   5.060  0.9708  0.5025 -0.0970
16642TIP3    H271342   6.399   4.589   5.132 -0.5605 -1.3332  0.1836
16643TIP3   OH271343   0.807   4.025   4.962 -0.3221 -0.1652  0.0640
16643TIP3    H171344   0.747   4.056   4.895  0.4916  1.1548 -0.0813
16643TIP3    H271345   0.796   3.930   4.962 -1.3175 -0.0648 -0.9825
16644TIP3   OH271346   1.827   6.487   5.052  0.6220  0.9362 -0.1927
16644TIP3    H171347   1.898   6.477   5.116  0.6032  1.0540 -0.1520
16644TIP3    H271348   1.859   6.444   4.973  0.8889  1.2968 -0.2861
16645TIP3   OH271349   1.310   0.909  16.859 -0.1712 -0.3145  0.0026
16645TIP3    H171350   1.396   0.935  16.827 -0.8071 -0.1663 -1.6768
16645TIP3    H271351   1.248   0.963  16.809 -1.2504 -0.6134  0.9794
16646TIP3   OH271352   2.988   1.270  14.446 -0.2933 -0.3025  0.8091
16646TIP3    H171353   3.074   1.266  14.404 -0.1984 -0.4928  1.0217
16646TIP3    H271354   2.928   1.296  14.375 -0.0539 -0.1138  0.6768
16647TIP3   OH271355   1.936   3.916  13.897 -0.2180  0.3910  0.1202
16647TIP3    H171356   1.900   3.905  13.809 -1.4939 -0.6327  0.7301
16647TIP3    H271357   1.993   3.840  13.909  0.8975  1.1494 -0.2364
16648TIP3   OH271358   2.469   0.730   1.884 -0.2392  0.3176 -0.2070
16648TIP3    H171359   2.525   0.665   1.926 -0.3494 -0.0123 -0.5598
16648TIP3    H271360   2.380   0.699   1.901 -0.3071 -1.3326 -2.8937
16649TIP3   OH271361   2.732   0.532  13.925 -0.6777  0.0433 -0.6162
16649TIP3    H171362   2.699   0.494  14.006  0.6564  0.9540  0.3939
16649TIP3    H271363   2.655   0.538  13.869 -1.4611 -1.4133  0.2411
16650TIP3   OH271364   6.004   3.114  13.947 -0.2444 -0.1531 -0.1101
16650TIP3    H171365   5.988   3.111  13.853 -1.7254  0.5679  0.0925
16650TIP3    H271366   5.927   3.159  13.983  0.9688  0.8759  1.2946
16651TIP3   OH271367   0.546   5.804  16.671 -0.1768 -0.6600 -0.0272
16651TIP3    H171368   0.507   5.790  16.757 -0.6550 -0.2657 -0.1766
16651TIP3    H271369   0.625   5.750  16.672  0.3521  0.0923  1.0095
16652TIP3   OH271370   0.456   1.870   1.778  0.0006  0.3499  0.1720
16652TIP3    H171371   0.408   1.926   1.839 -1.0203 -0.5839  0.2515
16652TIP3    H271372   0.548   1.884   1.800 -0.2547  1.6304  0.4925
16653TIP3   OH271373   6.447   4.009   2.736  0.0428  0.3827  0.5090
16653TIP3    H171374   6.482   4.080   2.684  1.1107 -0.3039  0.2675
16653TIP3    H271375   6.520   3.980   2.790 -0.5542 -0.1057  1.0753
16654TIP3   OH271376   1.052   5.847  12.180 -0.0975  0.4358  0.2298
16654TIP3    H171377   1.102   5.815  12.105 -1.3151  1.2022 -0.9547
16654TIP3    H271378   1.115   5.847  12.252  1.1258 -0.2661 -0.7872
16655TIP3   OH271379   2.841   1.555  14.474 -0.4631  0.0064  0.0757
16655TIP3    H171380   2.933   1.583  14.469 -0.4979 -0.0195 -1.1311
16655TIP3    H271381   2.814   1.577  14.563  1.1523 -1.3800  0.9641
16656TIP3   OH271382   5.287   2.320  14.238  0.1613 -0.3513  0.1257
16656TIP3    H171383   5.205   2.272  14.227 -0.9976  1.2978  1.0737
16656TIP3    H271384   5.285   2.350  14.329  1.7856 -0.1895  0.1287
16657TIP3   OH271385   0.889   0.618   3.231 -0.0408 -0.7812 -0.0106
16657TIP3    H171386   0.884   0.543   3.289 -2.0548 -0.1473  0.7287
16657TIP3    H271387   0.979   0.649   3.239  0.4726 -2.3392  0.6214
16658TIP3   OH271388   0.847   3.426  13.820  0.4686  0.6733  0.3936
16658TIP3    H171389   0.785   3.472  13.763 -0.2165  0.0581  0.6239
16658TIP3    H271390   0.798   3.408  13.900  0.6624 -0.5894  0.2470
16659TIP3   OH271391   0.091   5.910   3.903  0.1694 -0.5068  0.0184
16659TIP3    H171392   0.044   5.975   3.955  3.1095  0.9153  1.1195
16659TIP3    H271393   0.127   5.850   3.968  0.6912 -0.9893 -0.7061
16660TIP3   OH271394   6.665   3.194  13.744 -0.0749 -0.0731  0.4341
16660TIP3    H171395   6.669   3.285  13.716  0.5247 -0.0983  0.4364
16660TIP3    H271396   6.688   3.196  13.836 -0.0352 -0.2346  0.4274
16661TIP3   OH271397   0.661   1.554  15.285 -0.6278 -0.0202 -0.1734
16661TIP3    H171398   0.678   1.642  15.320 -0.9493 -0.2841  0.6857
16661TIP3    H271399   0.747   1.521  15.260 -0.4671  0.4262 -0.2295
16662TIP3   OH271400   4.804   0.540  13.922  0.2357 -0.3579  0.4584
16662TIP3    H171401   4.748   0.615  13.902  2.0955  1.7713  2.5493
16662TIP3    H271402   4.868   0.539  13.851  0.7394  0.6607  0.8733
16663TIP3   OH271403   5.532   1.313   1.784 -0.6682  0.0407  0.2426
16663TIP3    H171404   5.472   1.274   1.847 -0.9759  0.4267  0.1937
16663TIP3    H271405   5.608   1.255   1.784 -1.7330 -1.4735 -0.9646
16664TIP3   OH271406   5.577   0.383  11.703 -0.4103  0.6833  0.0089
16664TIP3    H171407   5.507   0.322  11.729  0.4055 -0.0084  0.6642
16664TIP3    H271408   5.542   0.470  11.722 -1.4612  0.4114 -0.6030
16665TIP3   OH271409   6.522   3.798   3.956 -0.0285 -0.2905 -0.8107
16665TIP3    H171410   6.530   3.841   4.040 -0.6395 -1.8091  0.0670
16665TIP3    H271411   6.610   3.765   3.937  0.3387  0.8957 -1.2764
16666TIP3   OH271412   2.987   2.659   3.796 -0.8699 -0.2502 -0.5681
16666TIP3    H171413   3.075   2.691   3.774 -1.1037 -0.7454 -2.4218
16666TIP3    H271414   3.003   2.578   3.844 -0.2815 -0.7604 -1.5851
16667TIP3   OH271415   1.450   1.138  13.438 -0.4200  0.1991  0.0353
16667TIP3    H171416   1.516   1.142  13.508 -0.0850  0.3382 -0.2824
16667TIP3    H271417   1.456   1.049  13.404 -1.7427 -0.3963  1.2728
16668TIP3   OH271418   0.205   3.340   5.574 -0.3167 -0.1349  0.3031
16668TIP3    H171419   0.222   3.254   5.612  3.9121 -0.3243 -1.4367
16668TIP3    H271420   0.148   3.322   5.499 -1.1886 -1.0704  1.1647
16669TIP3   OH271421   4.625   1.606   2.091  0.1418 -0.1133  0.4636
16669TIP3    H171422   4.580   1.591   2.175 -0.8042 -1.0632 -0.1921
16669TIP3    H271423   4.562   1.655   2.038  0.4272 -0.2214  0.0171
16670TIP3   OH271424   2.463   6.550  16.694  0.2484  0.0154  0.4827
16670TIP3    H171425   2.413   6.509  16.764  0.1649  0.1254  0.4868
16670TIP3    H271426   2.405   6.617  16.658  1.5188  2.4134  2.6225
16671TIP3   OH271427   1.649   2.725  10.760  0.4107  0.3134 -0.7170
16671TIP3    H171428   1.590   2.800  10.748  1.3680  0.8678 -2.2321
16671TIP3    H271429   1.734   2.765  10.777  0.7954 -0.4517 -0.8360
16672TIP3   OH271430   4.805   6.567   3.150  0.3369 -0.5467 -0.4214
16672TIP3    H171431   4.770   6.518   3.075  0.4628  0.2245 -1.0095
16672TIP3    H271432   4.767   6.654   3.140  0.4576 -0.4049  0.3506
16673TIP3   OH271433   2.032   6.410  16.669  0.8267 -0.5885  0.0144
16673TIP3    H171434   1.981   6.332  16.651  1.7108 -1.0633 -0.4539
16673TIP3    H271435   2.061   6.441  16.583 -0.4460  0.9293  0.0596
16674TIP3   OH271436   3.572   5.887   5.550 -0.4938  0.4937 -0.6521
16674TIP3    H171437   3.556   5.864   5.642 -1.4042 -2.6772 -1.5202
16674TIP3    H271438   3.658   5.849   5.531 -0.5167  0.7400 -1.2650
16675TIP3   OH271439   4.026   3.136  15.389  0.2239 -0.3049 -0.2950
16675TIP3    H171440   4.030   3.047  15.354  2.4650 -0.1713 -0.5307
16675TIP3    H271441   4.002   3.125  15.482 -0.2352 -1.0693 -0.4982
16676TIP3   OH271442   5.678   2.139   1.091  0.3635  0.2167 -0.1105
16676TIP3    H171443   5.728   2.117   1.170 -0.5275  0.3766  0.5221
16676TIP3    H271444   5.731   2.204   1.046  0.8194  0.2306  0.4322
16677TIP3   OH271445   0.181   3.093  16.545 -0.1615 -0.2507 -0.3912
16677TIP3    H171446   0.197   3.112  16.452 -0.5390 -0.3636 -0.4829
16677TIP3    H271447   0.241   3.151  16.592  1.1623 -1.3067 -0.7297
16678TIP3   OH271448   5.525   3.027  14.444  0.3190  0.2343  0.2947
16678TIP3    H171449   5.574   2.958  14.400  0.6061  0.8397 -0.3363
16678TIP3    H271450   5.592   3.079  14.490  0.2200  0.7425 -0.1298
16679TIP3   OH271451   5.999   0.444  13.258 -0.0383  0.2771  0.0768
16679TIP3    H171452   6.011   0.377  13.326  0.1473  0.7042  0.4657
16679TIP3    H271453   6.064   0.421  13.191  0.8609  0.7683  0.7606
16680TIP3   OH271454   1.857   1.962   5.316 -0.3405  0.0172 -0.1503
16680TIP3    H171455   1.815   1.876   5.322 -1.1836  0.2536 -2.0589
16680TIP3    H271456   1.892   1.967   5.228 -0.2664  1.6076 -0.0766
16681TIP3   OH271457   0.578   6.028  15.373 -0.4254  0.7444 -0.2116
16681TIP3    H171458   0.589   6.005  15.465  0.4821 -0.6384 -0.6245
16681TIP3    H271459   0.652   5.986  15.329 -1.7723 -0.1000 -1.7882
16682TIP3   OH271460   6.611   5.267  16.253  0.4456  0.0247  0.2888
16682TIP3    H171461   6.703   5.283  16.237 -0.2307  2.5490 -1.6581
16682TIP3    H271462   6.589   5.192  16.199  1.0540  0.3439 -0.4111
16683TIP3   OH271463   5.709   4.952   3.069  0.0438 -0.1825  0.2711
16683TIP3    H171464   5.621   4.947   3.107  0.8878 -1.3553  2.1841
16683TIP3    H271465   5.756   5.013   3.125  0.3029  1.0040 -1.1648
16684TIP3   OH271466   1.079   5.728   4.056  0.2200  0.0721  0.2039
16684TIP3    H171467   1.010   5.708   3.993  1.3210 -1.3257 -0.6116
16684TIP3    H271468   1.095   5.822   4.046 -1.3802  0.3736  0.2612
16685TIP3   OH271469   2.498   6.446   0.758  0.2671 -0.7876 -0.5967
16685TIP3    H171470   2.561   6.506   0.799 -2.0032  0.9784  0.4991
16685TIP3    H271471   2.467   6.391   0.829 -0.1633 -0.9676 -0.9241
16686TIP3   OH271472   0.193   6.121  13.620 -0.1456 -0.1461  0.6276
16686TIP3    H171473   0.140   6.043  13.635 -0.2350 -0.2630 -0.2717
16686TIP3    H271474   0.271   6.108  13.674 -0.1988 -0.8153  0.5488
16687TIP3   OH271475   5.446   2.935  14.037 -0.3346 -0.1476 -0.7307
16687TIP3    H171476   5.361   2.954  13.996 -0.0845 -0.3653 -1.3659
16687TIP3    H271477   5.428   2.865  14.099 -0.6061 -0.2543 -0.9290
16688TIP3   OH271478   3.361   3.581   1.823 -0.0359 -0.9446  0.1121
16688TIP3    H171479   3.317   3.505   1.862 -0.1618 -1.1483 -0.4241
16688TIP3    H271480   3.453   3.556   1.818  0.0013 -0.8706  0.3849
16689TIP3   OH271481   0.158   5.831  15.931  0.8153  0.3296 -0.4399
16689TIP3    H171482   0.081   5.829  15.874 -0.2898  0.5775  0.9772
16689TIP3    H271483   0.226   5.784  15.882  0.0509  0.8912 -2.1045
16690TIP3   OH271484   3.793   0.974  12.753  0.4289 -0.6259 -0.2325
16690TIP3    H171485   3.835   0.910  12.811 -0.4952 -1.4451 -0.4515
16690TIP3    H271486   3.865   1.013  12.705  0.9390 -2.4453 -1.0481
16691TIP3   OH271487   6.008   4.302   4.810 -0.8110  0.1391  0.2120
16691TIP3    H171488   5.918   4.335   4.816 -1.7489 -2.4555  2.0515
16691TIP3    H271489   6.058   4.359   4.870 -1.9216 -0.3469  1.6449
16692TIP3   OH271490   0.924   3.782   4.772  0.0258 -0.0201  0.7348
16692TIP3    H171491   0.930   3.710   4.709 -3.1304  0.9956 -0.9602
16692TIP3    H271492   1.008   3.827   4.766  1.0338 -1.9298 -0.2183
16693TIP3   OH271493   6.427   6.369   2.652  0.2449  0.5040  0.0231
16693TIP3    H171494   6.481   6.429   2.704  0.1173  1.2342 -0.6599
16693TIP3    H271495   6.341   6.411   2.650  0.4179  0.8409 -1.3311
16694TIP3   OH271496   4.211   3.323   1.833  0.3838 -0.2117  0.3246
16694TIP3    H171497   4.170   3.237   1.838  0.2953 -0.1202  1.5525
16694TIP3    H271498   4.219   3.351   1.924  0.7962  0.8993 -0.0325
16695TIP3   OH271499   4.366   1.579   3.756 -0.8966 -0.3592 -0.0116
16695TIP3    H171500   4.324   1.662   3.779  0.4840  0.0741  1.1113
16695TIP3    H271501   4.373   1.532   3.839  1.6871  0.0408  0.0802
16696TIP3   OH271502   3.777   6.187  17.131  0.8784  0.7938  0.1537
16696TIP3    H171503   3.848   6.186  17.195  0.6078  1.3509  0.4723
16696TIP3    H271504   3.741   6.276  17.136  1.2061  1.0183 -1.1607
16697TIP3   OH271505   5.520   0.949   2.694 -0.3110  0.1840 -0.1379
16697TIP3    H171506   5.590   0.922   2.754  0.6234  0.0790 -1.2386
16697TIP3    H271507   5.515   1.044   2.703  0.2473  0.2337 -0.3414
16698TIP3   OH271508   4.187   1.854   3.637  0.4946  0.7326 -0.1040
16698TIP3    H171509   4.146   1.807   3.563 -1.7790  0.2779  1.3521
16698TIP3    H271510   4.276   1.871   3.607 -0.0217 -0.3443 -2.5546
16699TIP3   OH271511   3.438   6.460  12.579  0.1096 -0.4111 -0.1737
16699TIP3    H171512   3.395   6.377  12.557 -0.5591  0.6419 -3.3534
16699TIP3    H271513   3.531   6.439  12.580 -0.0582 -1.2429 -0.9034
16700TIP3   OH271514   5.846   0.770   2.533  0.1361  0.1800 -0.6490
16700TIP3    H171515   5.913   0.838   2.535 -1.3385  1.6745  0.3049
16700TIP3    H271516   5.793   0.791   2.456 -0.9181  0.7515  0.2069
16701TIP3   OH271517   2.776   1.448   4.588  0.3277  0.0067 -0.6353
16701TIP3    H171518   2.872   1.453   4.586  0.3364  0.9411  0.7543
16701TIP3    H271519   2.753   1.468   4.679 -1.1321 -1.5067 -0.6262
16702TIP3   OH271520   2.942   0.057   2.566  0.3641  0.3040  0.7464
16702TIP3    H171521   2.915   0.149   2.560 -0.7300 -0.0701 -0.5014
16702TIP3    H271522   2.894   0.023   2.642 -0.4886  0.3723  0.2531
16703TIP3   OH271523   5.515   2.202   4.902  0.2847  0.0907 -0.6202
16703TIP3    H171524   5.610   2.215   4.904  0.1280  1.3177 -0.0330
16703TIP3    H271525   5.497   2.140   4.973  0.5804  0.3709 -0.2974
16704TIP3   OH271526   3.606   1.528   0.562  0.5542  0.5419  0.0557
16704TIP3    H171527   3.553   1.476   0.623 -1.9871 -0.3307 -2.6341
16704TIP3    H271528   3.650   1.462   0.508  0.0993  1.1872 -1.1411
16705TIP3   OH271529   1.289   5.000  12.082 -0.4528 -0.1772  0.4763
16705TIP3    H171530   1.283   4.925  12.024  0.1333  1.3517 -1.6710
16705TIP3    H271531   1.331   4.966  12.161  2.6365 -1.5391 -1.5803
16706TIP3   OH271532   0.858   6.243   4.687 -0.0613 -0.1149 -0.0770
16706TIP3    H171533   0.815   6.173   4.637  0.2500 -0.5006  0.1789
16706TIP3    H271534   0.934   6.267   4.634  1.6969 -2.2437  1.2782
16707TIP3   OH271535   0.598   6.661   1.436 -0.0706  0.1973 -0.4451
16707TIP3    H171536   0.525   6.630   1.381 -0.0353  1.2770 -1.1131
16707TIP3    H271537   0.627   6.742   1.395  0.4505  0.6377  0.7539
16708TIP3   OH271538   1.297   2.897   2.901  0.1321  0.1477  0.2705
16708TIP3    H171539   1.289   2.974   2.845  0.0842  0.0325  0.1190
16708TIP3    H271540   1.230   2.837   2.869  0.0812  0.0959  0.4747
16709TIP3   OH271541   5.992   5.130  16.071 -0.4651  0.3664 -0.3039
16709TIP3    H171542   5.985   5.147  16.165  2.7689  1.0176 -0.0658
16709TIP3    H271543   5.971   5.214  16.030  0.7904  0.8613  0.0301
16710TIP3   OH271544   6.754   6.561  15.503  0.0733 -0.0865  0.0329
16710TIP3    H171545   6.716   6.581  15.589 -1.4920 -0.9831 -0.4284
16710TIP3    H271546   6.800   6.642  15.479 -0.8465  0.7583  0.9811
16711TIP3   OH271547   3.169   6.032   1.836  0.6443  0.4713 -0.1276
16711TIP3    H171548   3.113   5.976   1.890  0.5946 -1.6911 -2.2353
16711TIP3    H271549   3.108   6.088   1.788  0.2904 -0.9285 -1.3980
16712TIP3   OH271550   0.377   5.079   0.098 -0.5024  0.3678  0.1928
16712TIP3    H171551   0.460   5.064   0.054 -0.3664  1.1404  0.1783
16712TIP3    H271552   0.322   5.005   0.072  0.6689 -1.0052  1.4496
16713TIP3   OH271553   2.219   6.735   5.824 -0.6483  0.2388  1.0949
16713TIP3    H171554   2.178   6.821   5.823  0.3059  0.7228 -0.9180
16713TIP3    H271555   2.307   6.750   5.859 -0.6914 -0.0361  1.3286
16714TIP3   OH271556   4.799   0.101   1.656 -0.1103 -0.1980  0.1617
16714TIP3    H171557   4.787   0.191   1.627 -1.5474 -0.0621  1.0512
16714TIP3    H271558   4.820   0.108   1.749  1.1440 -0.7427 -0.0621
16715TIP3   OH271559   6.311   1.053  10.778 -0.5049  0.2535 -0.0994
16715TIP3    H171560   6.309   1.144  10.746 -1.0664  0.0338 -0.6998
16715TIP3    H271561   6.395   1.046  10.823 -0.4495  1.0720 -0.0460
16716TIP3   OH271562   1.634   2.012   2.128  0.0796 -0.5794  0.0471
16716TIP3    H171563   1.594   1.954   2.063  2.0975  1.2794 -3.1113
16716TIP3    H271564   1.718   2.036   2.090  0.7923  1.7178  2.7818
16717TIP3   OH271565   5.629   4.225  14.943 -0.0958 -0.5803  0.7876
16717TIP3    H171566   5.688   4.295  14.971  0.7791  0.0624 -2.3134
16717TIP3    H271567   5.686   4.158  14.906 -1.1763 -0.4054 -1.3418
16718TIP3   OH271568   6.707   5.813  15.725 -0.0547 -0.1826 -0.0697
16718TIP3    H171569   6.788   5.776  15.692 -0.1399 -1.5640  1.1625
16718TIP3    H271570   6.645   5.802  15.653  0.7891  0.7278 -0.9553
16719TIP3   OH271571   5.351   4.940  14.023  0.0850  0.1375  0.1250
16719TIP3    H171572   5.395   5.025  14.019  0.7501 -0.2128 -0.2335
16719TIP3    H271573   5.357   4.906  13.934 -2.4293  0.8014 -0.3923
16720TIP3   OH271574   4.502   5.996  17.055 -0.1172  0.3605 -0.0716
16720TIP3    H171575   4.577   5.982  16.998 -0.4752  0.0292 -0.4679
16720TIP3    H271576   4.445   6.056  17.005 -3.2214 -4.2189 -2.7855
16721TIP3   OH271577   0.385   1.864  12.319  0.2896 -0.3072  0.0950
16721TIP3    H171578   0.348   1.778  12.301  2.3650 -1.4646  1.1102
16721TIP3    H271579   0.308   1.921  12.326 -1.0612 -1.5449 -2.7868
16722TIP3   OH271580   3.011   4.171   2.731 -0.4658 -0.3602 -0.0650
16722TIP3    H171581   2.946   4.235   2.762 -1.3605 -1.5207  0.5256
16722TIP3    H271582   2.974   4.086   2.754  0.5709 -1.1200 -1.0926
16723TIP3   OH271583   0.614   2.150  13.804 -0.1438  1.1775  0.4094
16723TIP3    H171584   0.669   2.132  13.880  0.5265 -0.4201 -0.4221
16723TIP3    H271585   0.672   2.193  13.742 -0.8351  3.0345  0.9531
16724TIP3   OH271586   5.830   5.605  14.274 -0.2493  0.0261  0.5131
16724TIP3    H171587   5.902   5.542  14.262  1.2456  0.6675  4.4998
16724TIP3    H271588   5.753   5.550  14.288  0.5356 -0.9043  1.3884
16725TIP3   OH271589   5.211   1.500   2.143  0.3161 -0.3696 -0.0302
16725TIP3    H171590   5.279   1.525   2.204 -1.3614 -0.4167  1.9640
16725TIP3    H271591   5.156   1.579   2.134  0.0363 -0.6345 -0.7870
16726TIP3   OH271592   1.570   0.918   5.200 -0.2260 -0.0291 -0.4258
16726TIP3    H171593   1.482   0.952   5.185 -0.4269 -0.0289  0.7276
16726TIP3    H271594   1.562   0.859   5.274  0.8687  0.5271  0.1691
16727TIP3   OH271595   3.634   4.506   4.040 -0.3400  0.0372  0.5813
16727TIP3    H171596   3.595   4.581   4.085  0.2350  0.6020  0.1515
16727TIP3    H271597   3.726   4.529   4.028 -0.5787  0.1856 -1.4108
16728TIP3   OH271598   2.060   6.322   1.096 -0.2057  0.2837 -0.0894
16728TIP3    H171599   1.971   6.321   1.133 -0.4296  0.2217 -0.6288
16728TIP3    H271600   2.049   6.355   1.007  0.0211 -1.6921 -0.8893
16729TIP3   OH271601   2.289   0.133   0.325  0.5807  0.8109 -0.5377
16729TIP3    H171602   2.379   0.163   0.315  0.4885  1.3403  0.1046
16729TIP3    H271603   2.297   0.047   0.366  0.7712  2.0270  2.1886
16730TIP3   OH271604   6.432   4.752   5.918 -0.6294  0.4088 -0.0086
16730TIP3    H171605   6.360   4.809   5.944  0.1827  1.0086  1.0210
16730TIP3    H271606   6.461   4.710   5.999  0.0071 -0.0225 -0.4458
16731TIP3   OH271607   2.085   3.196   1.833  0.8560  0.4737  0.2306
16731TIP3    H171608   2.004   3.238   1.803 -0.1799 -1.0467  0.7872
16731TIP3    H271609   2.150   3.220   1.768 -0.1985  1.2145 -0.5795
16732TIP3   OH271610   0.945   1.180   0.300 -0.5105 -0.6204  0.3225
16732TIP3    H171611   0.978   1.137   0.379  0.7060  1.1211  0.8429
16732TIP3    H271612   0.997   1.143   0.229  0.1047 -0.4614  0.6797
16733TIP3   OH271613   2.963   6.699  15.444  0.2072 -0.5812  0.3680
16733TIP3    H171614   3.043   6.750  15.428 -0.6043  0.0649 -1.9585
16733TIP3    H271615   2.918   6.698  15.360 -1.3190 -2.5893  1.1395
16734TIP3   OH271616   0.284   6.063   0.818 -0.4119 -0.0925  0.1752
16734TIP3    H171617   0.347   6.131   0.841 -0.2065  0.8597 -2.8172
16734TIP3    H271618   0.219   6.067   0.888  1.1026  1.1845  1.6002
16735TIP3   OH271619   3.556   0.770  13.402 -0.0155  0.5865 -0.4472
16735TIP3    H171620   3.582   0.687  13.363 -0.6141  0.6818 -1.0846
16735TIP3    H271621   3.614   0.835  13.361 -0.9585  0.7531 -1.6062
16736TIP3   OH271622   2.966   5.949   6.259  0.3811  0.1012 -0.6682
16736TIP3    H171623   3.014   5.941   6.342 -0.4901  0.5237 -0.1170
16736TIP3    H271624   2.875   5.956   6.284  0.2248  1.8510 -1.5858
16737TIP3   OH271625   3.102   4.482   1.868 -0.0396  0.2846  0.5837
16737TIP3    H171626   3.102   4.563   1.919  2.5783  0.9863 -0.3953
16737TIP3    H271627   3.148   4.418   1.922  0.6292  0.3453  0.0956
16738TIP3   OH271628   2.076   2.570   0.179 -1.0184 -0.2463  0.4890
16738TIP3    H171629   2.021   2.617   0.117 -1.8234 -1.7506  0.0184
16738TIP3    H271630   2.081   2.628   0.256 -0.3638  1.4419 -0.7598
16739TIP3   OH271631   0.521   3.536  15.217 -0.0005 -0.3483 -0.0272
16739TIP3    H171632   0.503   3.515  15.126  0.9618  1.2988 -0.6365
16739TIP3    H271633   0.614   3.518  15.228 -0.4933 -2.6383  1.3046
16740TIP3   OH271634   4.601   0.405  16.250 -0.6806 -0.1757  0.5199
16740TIP3    H171635   4.608   0.356  16.332 -0.7416  0.5237  0.9579
16740TIP3    H271636   4.691   0.427  16.228 -0.6141 -0.9036  0.0588
16741TIP3   OH271637   0.697   0.740  17.115  0.2866  0.0235 -0.3348
16741TIP3    H171638   0.774   0.793  17.094  1.1832 -0.6849  1.0425
16741TIP3    H271639   0.680   0.758  17.207 -0.9895 -0.1159 -0.5313
16742TIP3   OH271640   0.294   4.736  14.962  0.4928  0.1128 -0.1703
16742TIP3    H171641   0.344   4.748  14.881 -1.8451  0.2705 -1.6813
16742TIP3    H271642   0.343   4.670  15.011  2.1075  0.1914 -1.5706
16743TIP3   OH271643   0.676   0.176   5.058  0.0546  0.0311  0.4649
16743TIP3    H171644   0.715   0.090   5.041 -1.3833 -0.5062 -0.3023
16743TIP3    H271645   0.751   0.236   5.061  0.9810 -1.0228 -0.4227
16744TIP3   OH271646   0.720   5.032   3.199 -0.0492  0.3487  0.4507
16744TIP3    H171647   0.810   5.061   3.184 -0.4540  1.0702 -0.7103
16744TIP3    H271648   0.687   5.092   3.267  1.0011 -1.3262  2.5534
16745TIP3   OH271649   1.799   2.559  12.510  0.4582 -0.2966  0.2199
16745TIP3    H171650   1.822   2.625  12.444  1.4921 -0.2859  0.5763
16745TIP3    H271651   1.703   2.562  12.514  0.4185  0.1932 -0.7761
16746TIP3   OH271652   4.483   2.920   1.403 -0.6540  0.3678  0.1839
16746TIP3    H171653   4.465   2.978   1.477  0.2352 -0.0070  0.6999
16746TIP3    H271654   4.526   2.977   1.339  0.3768  0.2426  0.7601
16747TIP3   OH271655   6.140   2.118  14.267 -0.2429 -0.0152 -0.0541
16747TIP3    H171656   6.113   2.042  14.319  0.5632 -0.9488 -0.9495
16747TIP3    H271657   6.126   2.192  14.325 -0.3564 -0.9194  1.1259
16748TIP3   OH271658   2.690   1.624   2.907 -0.4168  0.7860  0.3195
16748TIP3    H171659   2.597   1.627   2.931 -0.2124 -0.1662  1.3033
16748TIP3    H271660   2.704   1.535   2.876  0.0844  1.0491 -0.2303
16749TIP3   OH271661   1.701   4.471  13.093 -0.2406  0.1055 -0.3346
16749TIP3    H171662   1.623   4.423  13.064  0.4168 -1.5758  0.5415
16749TIP3    H271663   1.763   4.403  13.120  1.6493  1.3830 -1.2355
16750TIP3   OH271664   4.740   5.488  14.516 -0.7098 -0.3436  0.0306
16750TIP3    H171665   4.732   5.463  14.608 -0.9824  2.3056  0.7958
16750TIP3    H271666   4.828   5.458  14.491 -1.0505 -2.0958  0.7625
16751TIP3   OH271667   1.793   6.014   1.936 -0.5340 -0.0652  0.2981
16751TIP3    H171668   1.729   6.022   1.866 -1.0790  0.0344  0.7945
16751TIP3    H271669   1.754   5.951   1.997 -0.4827  0.5173  0.9471
16752TIP3   OH271670   2.032   0.806   5.802 -0.0956  0.3020  0.2354
16752TIP3    H171671   1.944   0.832   5.773  0.3662  1.9125  0.1709
16752TIP3    H271672   2.018   0.768   5.889 -0.7039  2.0812  0.9661
16753TIP3   OH271673   2.384   2.260   2.181 -0.2988  0.1527  0.0584
16753TIP3    H171674   2.421   2.172   2.171 -1.4525 -0.2581 -0.7370
16753TIP3    H271675   2.459   2.319   2.167 -0.0596 -0.6310 -2.3999
16754TIP3   OH271676   6.689   1.310  12.251  0.1116  0.4818 -0.4672
16754TIP3    H171677   6.718   1.356  12.172 -1.7282  0.9906 -0.8916
16754TIP3    H271678   6.610   1.264  12.225  0.1107 -0.2804  0.8056
16755TIP3   OH271679   4.452   3.961   3.510  0.2083  0.1479 -0.2663
16755TIP3    H171680   4.518   3.904   3.551 -0.1337  0.0601  0.1690
16755TIP3    H271681   4.503   4.031   3.469  0.5328  0.5778  0.8391
16756TIP3   OH271682   5.157   1.253   3.458 -0.1285 -0.0572 -0.3447
16756TIP3    H171683   5.168   1.315   3.386 -1.1717  1.3659  0.6653
16756TIP3    H271684   5.065   1.226   3.453 -0.2040  0.0330  0.4288
16757TIP3   OH271685   0.531   4.103   4.149 -0.3405 -0.5891  0.0634
16757TIP3    H171686   0.572   4.182   4.184 -0.3034 -0.6134  0.0758
16757TIP3    H271687   0.437   4.119   4.154 -0.3354 -0.5900  0.1687
16758TIP3   OH271688   5.901   2.839  10.819 -0.6253  0.3378 -0.0116
16758TIP3    H171689   5.951   2.909  10.777 -0.7726  0.9672  0.8142
16758TIP3    H271690   5.881   2.874  10.906  0.9048 -1.4822  1.1469
16759TIP3   OH271691   1.751   5.047   1.331 -0.3394  0.1020 -0.2121
16759TIP3    H171692   1.792   5.106   1.268 -0.3171  0.3594  0.0438
16759TIP3    H271693   1.787   5.073   1.416  0.4084 -0.9034 -0.1988
16760TIP3   OH271694   6.171   2.624   2.661  0.0714  0.2101 -0.1682
16760TIP3    H171695   6.168   2.637   2.756  0.5330 -0.8119 -0.0006
16760TIP3    H271696   6.153   2.531   2.649 -2.0519  0.6833 -1.2285
16761TIP3   OH271697   5.223   5.904  12.431 -0.0281 -0.0871  0.6218
16761TIP3    H171698   5.180   5.840  12.374 -1.4055 -0.1340  1.6456
16761TIP3    H271699   5.155   5.970  12.448  1.5271  2.0752 -0.9328
16762TIP3   OH271700   1.948   1.111  11.255 -0.4724 -0.2719  0.0942
16762TIP3    H171701   1.970   1.019  11.271 -2.1550 -0.8458 -0.6179
16762TIP3    H271702   1.925   1.113  11.162 -2.3950  0.4228  0.5527
16763TIP3   OH271703   3.817   4.774   0.836 -0.1113 -0.6880  0.1449
16763TIP3    H171704   3.828   4.828   0.913 -0.0185  0.0885 -0.4011
16763TIP3    H271705   3.889   4.798   0.778 -0.4922 -0.8520 -0.4144
16764TIP3   OH271706   2.798   4.811  13.341  0.6368 -0.1513  0.2767
16764TIP3    H171707   2.747   4.863  13.403  1.3498  0.6975  0.1657
16764TIP3    H271708   2.748   4.816  13.259  0.9309  0.7489  0.1437
16765TIP3   OH271709   5.324   0.984   5.797 -0.1606 -0.0550 -0.0031
16765TIP3    H171710   5.265   0.959   5.726  1.2690 -0.9270 -0.9127
16765TIP3    H271711   5.306   0.921   5.867  0.0701 -0.6458 -0.4778
16766TIP3   OH271712   2.798   5.360   3.887 -0.5267  0.6060  0.3723
16766TIP3    H171713   2.788   5.452   3.865  0.0453  0.1724 -1.8835
16766TIP3    H271714   2.884   5.336   3.854 -0.3799 -0.6121  1.5199
16767TIP3   OH271715   4.913   6.062   4.673 -0.0940 -0.3152 -0.4603
16767TIP3    H171716   4.921   6.142   4.622  2.5082 -0.7417 -0.8568
16767TIP3    H271717   4.942   6.087   4.761 -0.2474 -0.5874 -0.3322
16768TIP3   OH271718   1.318   5.544  13.088 -0.3596  0.1018  0.0163
16768TIP3    H171719   1.377   5.494  13.030  0.0975  0.5740  0.0710
16768TIP3    H271720   1.271   5.603  13.029 -0.3231  0.1663  0.0512
16769TIP3   OH271721   1.768   6.450  13.584  0.2431  0.1497 -0.1908
16769TIP3    H171722   1.700   6.454  13.516  0.1086  0.1262 -0.0566
16769TIP3    H271723   1.721   6.430  13.664  0.5324 -1.0095 -0.2901
16770TIP3   OH271724   2.556   6.281  16.729 -0.0685  0.1085  0.1699
16770TIP3    H171725   2.541   6.368  16.692 -1.5668 -1.0455 -2.1187
16770TIP3    H271726   2.471   6.238  16.725  0.9101 -1.9226  0.0142
16771TIP3   OH271727   6.702   0.721  15.037  0.1498 -0.1993 -0.0595
16771TIP3    H171728   6.745   0.753  14.958  0.4099 -2.6017 -0.9738
16771TIP3    H271729   6.623   0.678  15.006 -0.4356 -0.0170  1.1294
16772TIP3   OH271730   3.477   4.016  14.176 -0.0061 -0.3121 -0.3367
16772TIP3    H171731   3.499   3.940  14.230 -0.8041  0.1335  0.6375
16772TIP3    H271732   3.429   4.075  14.235  1.3074  1.3327 -0.8212
16773TIP3   OH271733   3.267   4.219   5.446 -0.4599 -0.1351 -0.2959
16773TIP3    H171734   3.329   4.147   5.458  1.8340  1.7969  0.3361
16773TIP3    H271735   3.264   4.232   5.351 -1.5493 -1.5468 -0.4798
16774TIP3   OH271736   4.149   2.409  13.397  0.3831 -0.2852 -0.1205
16774TIP3    H171737   4.092   2.393  13.472  0.2773  0.5446 -0.0162
16774TIP3    H271738   4.195   2.326  13.384 -0.3616 -0.7609  0.2016
16775TIP3   OH271739   5.155   4.776  16.888 -0.2329  0.1970 -0.4279
16775TIP3    H171740   5.124   4.699  16.841 -0.0217  0.4365 -0.9737
16775TIP3    H271741   5.078   4.833  16.894 -0.0138  0.6431 -1.4785
16776TIP3   OH271742   6.532   2.899  14.238  0.2924 -0.3823 -0.3969
16776TIP3    H171743   6.577   2.965  14.291  1.6956 -1.4116 -0.2119
16776TIP3    H271744   6.467   2.861  14.297  1.1921 -0.8597  0.3180
16777TIP3   OH271745   0.344   6.151  16.029  0.4311  0.5387 -0.2899
16777TIP3    H171746   0.361   6.110  15.944 -0.4860  0.6934 -0.5578
16777TIP3    H271747   0.392   6.233  16.026  0.0101  0.7686 -0.8609
16778TIP3   OH271748   5.893   3.107   4.684 -0.0494  0.0837 -0.1428
16778TIP3    H171749   5.844   3.158   4.619 -0.3248 -2.1027 -1.7709
16778TIP3    H271750   5.841   3.027   4.694  1.2304 -0.6261  1.0236
16779TIP3   OH271751   1.776   2.729   1.629 -0.3610 -0.0309  0.3995
16779TIP3    H171752   1.803   2.815   1.597  1.0829 -0.4169  0.4996
16779TIP3    H271753   1.736   2.747   1.714 -0.7491  0.6114  0.0883
16780TIP3   OH271754   1.148   2.908  16.578 -0.2655  0.3433 -0.0461
16780TIP3    H171755   1.054   2.892  16.591 -0.2702  1.2185  1.2076
16780TIP3    H271756   1.160   2.903  16.483 -1.1367 -1.9931 -0.1038
16781TIP3   OH271757   6.606   1.968  13.072  0.0552  0.1259 -0.0710
16781TIP3    H171758   6.634   2.035  13.133  0.0013  0.4623 -0.4101
16781TIP3    H271759   6.654   1.889  13.098 -0.1436  0.2039  0.5438
16782TIP3   OH271760   0.423   4.038  12.332  0.4158 -0.2999  0.1433
16782TIP3    H171761   0.503   4.002  12.369 -1.2335 -3.2403  1.1522
16782TIP3    H271762   0.405   3.983  12.255 -1.0918 -0.3186  0.4748
16783TIP3   OH271763   3.396   0.623  12.916 -0.1552  0.2149  0.0322
16783TIP3    H171764   3.438   0.567  12.852  1.5659  1.3305  0.1412
16783TIP3    H271765   3.326   0.667  12.868 -0.8691 -1.2304 -0.2918
16784TIP3   OH271766   6.316   3.770   1.660 -0.1595 -0.1462 -0.3407
16784TIP3    H171767   6.393   3.771   1.603 -1.7387 -0.3064 -2.5655
16784TIP3    H271768   6.297   3.677   1.673 -0.6794 -0.1014 -0.7837
16785TIP3   OH271769   6.647   2.840  15.812  0.3452 -0.5522  0.4673
16785TIP3    H171770   6.583   2.893  15.859 -1.5162  0.2037 -2.6426
16785TIP3    H271771   6.719   2.830  15.874 -2.0622 -0.1310  3.6128
16786TIP3   OH271772   5.455   0.108  13.074  0.3826  0.0217  0.4597
16786TIP3    H171773   5.492   0.128  13.160  1.1577 -0.3370  0.2162
16786TIP3    H271774   5.441   0.193  13.033  1.3081  0.1584  0.4064
16787TIP3   OH271775   6.038   2.952  13.133  0.4197  0.1585  0.2270
16787TIP3    H171776   5.980   2.893  13.085 -0.7570  0.5515  1.1219
16787TIP3    H271777   5.989   3.034  13.139  1.8757  1.1269 -0.6566
16788TIP3   OH271778   3.254   2.173  15.760 -0.1309 -0.5538  0.0360
16788TIP3    H171779   3.307   2.176  15.840 -1.6360  0.1106  1.0604
16788TIP3    H271780   3.317   2.156  15.690  1.3277 -0.4792  1.2739
16789TIP3   OH271781   0.490   0.184  14.963 -0.0204 -0.3555  0.3159
16789TIP3    H171782   0.463   0.258  15.016 -1.4937 -0.8002  0.2235
16789TIP3    H271783   0.492   0.110  15.023 -0.4376 -0.6108  0.0209
16790TIP3   OH271784   1.683   4.910  15.898  0.2585 -0.2481 -0.0644
16790TIP3    H171785   1.656   4.821  15.873 -0.4710  0.1081 -0.5769
16790TIP3    H271786   1.608   4.965  15.875  0.5863  0.4616  0.5367
16791TIP3   OH271787   4.576   5.108   6.189  0.2960  0.1307 -0.0450
16791TIP3    H171788   4.657   5.101   6.240  0.2197 -0.6598 -0.0085
16791TIP3    H271789   4.507   5.083   6.251  0.0235  0.7903 -0.0809
16792TIP3   OH271790   0.391   3.712  14.873  0.1268  1.0267 -0.1417
16792TIP3    H171791   0.451   3.767  14.923 -0.6127  1.4410  0.2996
16792TIP3    H271792   0.304   3.745  14.894 -0.3600 -0.4686  0.3402
16793TIP3   OH271793   3.050   3.620   5.256  0.5258  0.1192 -0.5117
16793TIP3    H171794   2.991   3.599   5.184 -0.9689  2.1328  0.0379
16793TIP3    H271795   3.112   3.547   5.258 -1.4947 -1.7450 -1.5711
16794TIP3   OH271796   5.532   6.583   2.464 -0.1599 -0.0446 -0.3984
16794TIP3    H171797   5.532   6.660   2.407  1.7193  0.5010  0.2394
16794TIP3    H271798   5.575   6.515   2.412  1.0225  0.2830  0.1145
16795TIP3   OH271799   1.540   3.029   5.729 -0.1214 -0.0921  0.0433
16795TIP3    H171800   1.467   2.974   5.759  1.5562 -2.2742  0.3547
16795TIP3    H271801   1.559   2.997   5.641  0.4469  0.4712 -0.0437
16796TIP3   OH271802   3.295   5.872   2.143  0.2408  0.3856  0.1680
16796TIP3    H171803   3.302   5.949   2.200  1.2567 -1.1696  2.2994
16796TIP3    H271804   3.214   5.829   2.171  0.8340 -0.4807  0.5849
16797TIP3   OH271805   5.805   2.116  12.380 -0.2399  0.5735 -0.0511
16797TIP3    H171806   5.785   2.098  12.472  1.2030 -1.1012 -0.0184
16797TIP3    H271807   5.874   2.182  12.383  1.7047 -1.3468  0.2449
16798TIP3   OH271808   2.938   3.350  13.810  0.1503 -0.2885  0.2097
16798TIP3    H171809   2.938   3.255  13.824  0.6914 -0.5549 -1.3537
16798TIP3    H271810   3.031   3.375  13.812  0.0769  0.0455 -0.2626
16799TIP3   OH271811   4.778   4.018  16.564  0.3187  0.0155  0.1788
16799TIP3    H171812   4.754   4.089  16.624  1.4844  0.9975 -0.4562
16799TIP3    H271813   4.713   4.022  16.494 -0.3545 -0.3693  0.7782
16800TIP3   OH271814   3.552   0.499   2.283  0.4613 -0.0974  0.0052
16800TIP3    H171815   3.558   0.574   2.342  0.7774  1.1230 -1.5150
16800TIP3    H271816   3.529   0.536   2.198  1.4698 -1.6268 -0.9942
16801TIP3   OH271817   1.054   1.239   1.012 -0.1004 -0.1596 -0.4125
16801TIP3    H171818   1.135   1.289   0.999  1.1140 -1.6318  1.1027
16801TIP3    H271819   1.005   1.290   1.077  1.3641 -1.1062  1.5157
16802TIP3   OH271820   2.025   0.204   3.649  0.7054  0.5312 -0.1336
16802TIP3    H171821   1.976   0.123   3.664  1.0395 -0.0842 -2.0093
16802TIP3    H271822   2.069   0.189   3.565  0.3768  2.8375 -0.7784
16803TIP3   OH271823   6.430   4.596  16.895 -0.1595 -0.3374  0.1905
16803TIP3    H171824   6.338   4.605  16.917 -0.6921  1.6317 -2.3881
16803TIP3    H271825   6.430   4.546  16.813  0.9804  0.3653 -0.2614
16804TIP3   OH271826   2.314   2.855  11.262 -0.0863  0.2365  0.4323
16804TIP3    H171827   2.230   2.821  11.230  0.2028 -0.2729  0.2071
16804TIP3    H271828   2.359   2.886  11.184  0.7311 -1.2517  0.2692
16805TIP3   OH271829   4.717   2.338  16.511  0.2104 -0.5126  0.0816
16805TIP3    H171830   4.658   2.357  16.438  0.1735 -2.2158 -0.3786
16805TIP3    H271831   4.785   2.405  16.506 -1.4978  1.3273  0.4529
16806TIP3   OH271832   2.405   0.838   0.911  0.1957  0.1351  0.0469
16806TIP3    H171833   2.439   0.815   0.825  0.2350  1.8836 -0.4337
16806TIP3    H271834   2.314   0.861   0.896  0.6319  2.1084  0.1230
16807TIP3   OH271835   3.167   4.499  16.895 -0.2515  0.0080  0.4176
16807TIP3    H171836   3.189   4.507  16.802 -2.5075  0.3094 -0.1459
16807TIP3    H271837   3.162   4.404  16.910  0.6063 -0.0541  0.3938
16808TIP3   OH271838   4.272   0.006  16.071  0.6664 -0.5134 -0.3646
16808TIP3    H171839   4.199   0.018  16.010  0.4360  0.7618  0.1174
16808TIP3    H271840   4.230  -0.002  16.157  1.0339 -1.1667 -0.2464
16809TIP3   OH271841   6.508   1.352  12.794 -0.6156 -0.0146  0.5067
16809TIP3    H171842   6.511   1.439  12.833 -0.5202  0.0623  0.3321
16809TIP3    H271843   6.587   1.308  12.826  0.4535  0.6765 -1.0249
16810TIP3   OH271844   3.086   2.309  16.717 -0.2849 -0.2020  0.7653
16810TIP3    H171845   2.991   2.310  16.727 -0.2792 -0.0784  0.8038
16810TIP3    H271846   3.101   2.267  16.633 -0.4411  1.5145 -0.1609
16811TIP3   OH271847   1.965   3.813   2.869 -0.2766  0.3395 -0.0893
16811TIP3    H171848   1.910   3.738   2.845 -1.0192  0.9117 -0.2125
16811TIP3    H271849   2.002   3.842   2.786 -0.3464  0.3887 -0.1030
16812TIP3   OH271850   0.212   1.857  14.624 -0.3618  0.3117  0.6006
16812TIP3    H171851   0.242   1.782  14.675 -1.7049 -1.5277 -1.1337
16812TIP3    H271852   0.119   1.866  14.646 -0.8557 -0.2245 -1.0435
16813TIP3   OH271853   2.656   4.283  13.549  0.2615  0.1299 -0.3314
16813TIP3    H171854   2.727   4.303  13.488  1.3293 -1.1043  0.4560
16813TIP3    H271855   2.699   4.242  13.624 -1.2239 -0.0731  0.4565
16814TIP3   OH271856   6.337   5.216  16.083 -0.0884 -0.5263  0.3013
16814TIP3    H171857   6.409   5.275  16.063 -1.3532  1.0191  0.1187
16814TIP3    H271858   6.330   5.160  16.006 -0.0024  0.2717 -0.3042
16815TIP3   OH271859   5.411   2.277  12.529 -0.4812 -0.4554  0.3461
16815TIP3    H171860   5.466   2.246  12.601 -2.3950 -1.0148  1.6545
16815TIP3    H271861   5.459   2.351  12.492  1.1932 -1.0132  1.2937
16816TIP3   OH271862   5.595   2.287   0.040  0.0440 -0.0676 -0.2291
16816TIP3    H171863   5.659   2.279  -0.030  0.9761  0.2952  0.5620
16816TIP3    H271864   5.544   2.364   0.018  2.6205  2.2439  1.2189
16817TIP3   OH271865   1.241   5.152   1.292  0.0133  0.1229 -0.1551
16817TIP3    H171866   1.275   5.239   1.314 -1.9434  0.8969  0.0512
16817TIP3    H271867   1.260   5.099   1.369 -0.8123  1.0084  0.6937
16818TIP3   OH271868   5.815   2.807  14.099  0.1395 -0.1279  0.1818
16818TIP3    H171869   5.890   2.836  14.047  0.4297 -0.5952  0.3308
16818TIP3    H271870   5.759   2.762  14.036  0.3248 -0.3918  0.2032
16819TIP3   OH271871   6.702   4.140  13.998  0.1611 -0.2868  0.5562
16819TIP3    H171872   6.708   4.108  13.908  2.1901 -1.0145  0.8897
16819TIP3    H271873   6.662   4.068  14.047 -0.0095 -0.2900  0.4104
16820TIP3   OH271874   4.032   0.950  12.583 -0.6207 -0.2790  1.2597
16820TIP3    H171875   3.997   0.932  12.495 -1.1379  0.0917  1.3839
16820TIP3    H271876   4.043   0.864  12.623  2.4886 -0.6974 -0.2281
16821TIP3   OH271877   1.349   3.477  12.806  0.2271 -0.0497  0.1483
16821TIP3    H171878   1.347   3.536  12.881  0.5594  0.5169 -0.2812
16821TIP3    H271879   1.405   3.404  12.834  0.1562  0.0402  0.5295
16822TIP3   OH271880   3.203   4.244   4.712  0.0692  0.2190  0.0289
16822TIP3    H171881   3.274   4.211   4.657  0.9816  0.6527  0.9101
16822TIP3    H271882   3.191   4.335   4.683  0.2776  0.3253  0.2747
16823TIP3   OH271883   3.937   4.096  15.861  0.8877 -0.4958 -0.2521
16823TIP3    H171884   3.942   4.171  15.921 -0.4590  0.7975 -1.6526
16823TIP3    H271885   3.885   4.031  15.908  2.6393 -0.8699  1.2487
16824TIP3   OH271886   5.551   5.057  11.721 -0.4683 -0.5069  0.0511
16824TIP3    H171887   5.632   5.013  11.746 -0.9065 -0.8398  0.9219
16824TIP3    H271888   5.521   5.009  11.644  0.0455 -0.5160 -0.1464
16825TIP3   OH271889   0.799   4.751   4.799 -0.2350  0.1692  0.7098
16825TIP3    H171890   0.873   4.812   4.803  0.7896 -1.0834  1.4795
16825TIP3    H271891   0.726   4.804   4.767  1.0750  1.3572 -0.4287
16826TIP3   OH271892   2.321   2.950  14.458 -0.0285  0.0259 -0.2632
16826TIP3    H171893   2.391   2.915  14.513 -0.5344  0.0507  0.4057
16826TIP3    H271894   2.363   2.966  14.374  0.1594 -2.4947 -0.7256
16827TIP3   OH271895   1.738   6.073  12.209 -0.2997 -0.0889 -0.5319
16827TIP3    H171896   1.734   5.996  12.265 -0.5961 -1.2532 -2.0971
16827TIP3    H271897   1.647   6.093  12.189 -0.1604 -0.4173 -1.5413
16828TIP3   OH271898   2.978   5.536  14.493  0.3973  0.1023  0.3562
16828TIP3    H171899   2.973   5.581  14.409 -0.8579  0.5820  0.6711
16828TIP3    H271900   2.978   5.605  14.559  2.2999 -0.2223  0.7720
16829TIP3   OH271901   0.836   3.031   3.519  0.0015  0.6004  0.2633
16829TIP3    H171902   0.876   3.115   3.495  1.6385  0.5321  2.4005
16829TIP3    H271903   0.887   3.002   3.595 -0.4734 -2.3870 -0.4620
16830TIP3   OH271904   3.183   6.028  13.372  0.4787 -0.0624  0.0214
16830TIP3    H171905   3.110   5.974  13.342 -0.7189  1.2226  0.5627
16830TIP3    H271906   3.261   5.978  13.347 -0.5744 -1.7653  0.0063
16831TIP3   OH271907   6.101   0.347   6.238 -0.2797 -0.3367 -0.1227
16831TIP3    H171908   6.134   0.433   6.262 -0.1091 -0.4729  0.1358
16831TIP3    H271909   6.005   0.357   6.237 -0.3061 -0.4035  0.9083
16832TIP3   OH271910   2.094   0.763   2.111  0.1554 -0.1391 -0.2204
16832TIP3    H171911   2.153   0.838   2.108  1.4324 -1.1129 -0.4906
16832TIP3    H271912   2.085   0.742   2.204 -3.1853  2.5251  0.2494
16833TIP3   OH271913   4.707   2.267  12.116 -0.1669 -0.0734  0.5898
16833TIP3    H171914   4.664   2.253  12.032 -0.0378 -1.0826  0.6844
16833TIP3    H271915   4.677   2.354  12.144 -2.1177 -0.7148  0.6444
16834TIP3   OH271916   3.886   1.930  16.567 -0.3365  0.3377 -0.4805
16834TIP3    H171917   3.793   1.910  16.564 -0.4099  0.7646 -1.2859
16834TIP3    H271918   3.928   1.858  16.520 -0.1202 -0.5451  1.0035
16835TIP3   OH271919   5.625   4.871  16.908 -0.2439  0.0568  0.8467
16835TIP3    H171920   5.685   4.924  16.961 -0.2104  0.5466  0.3351
16835TIP3    H271921   5.671   4.859  16.825 -1.0171  0.8143  0.2793
16836TIP3   OH271922   2.988   6.434  16.357  0.0674  0.3797 -0.8116
16836TIP3    H171923   2.988   6.480  16.441  2.5343 -0.2357 -0.4008
16836TIP3    H271924   2.905   6.385  16.356  0.3346 -0.2375  1.6574
16837TIP3   OH271925   5.788   0.148   6.412 -0.1346 -0.1265  0.2881
16837TIP3    H171926   5.787   0.235   6.452  1.8850 -1.4990  3.8416
16837TIP3    H271927   5.710   0.105   6.446 -0.2267 -0.2316 -0.0573
16838TIP3   OH271928   0.074   4.015   4.186  0.0034 -0.1820  0.2645
16838TIP3    H171929   0.105   4.000   4.097 -0.4950  0.0767  0.0413
16838TIP3    H271930   0.150   4.049   4.233 -0.2388  1.6720 -0.6080
16839TIP3   OH271931   0.123   6.717   3.461  0.4620  0.2457  0.6198
16839TIP3    H171932   0.088   6.711   3.372 -1.8045 -0.0925  1.4644
16839TIP3    H271933   0.162   6.804   3.466 -0.6644  0.8338 -0.2941
16840TIP3   OH271934   1.024   0.664   0.553 -0.0104  0.3184 -0.2542
16840TIP3    H171935   1.024   0.688   0.461  0.8304 -0.3591 -0.4415
16840TIP3    H271936   0.954   0.599   0.561  0.5068 -0.2904 -0.6027
16841TIP3   OH271937   5.460   2.983   3.473  0.0431 -0.3669  0.0278
16841TIP3    H171938   5.545   2.988   3.429  0.3632  2.6570  0.7954
16841TIP3    H271939   5.420   3.068   3.458 -2.4179 -1.3368  0.6220
16842TIP3   OH271940   2.645   2.241   5.905  0.2085 -0.2327 -0.4637
16842TIP3    H171941   2.576   2.183   5.874 -0.1869  0.4343 -0.8593
16842TIP3    H271942   2.677   2.285   5.826  0.8274 -0.2623 -0.2329
16843TIP3   OH271943   4.394   3.726   2.618  0.0545  0.0270  0.3465
16843TIP3    H171944   4.464   3.664   2.640  1.5482  0.7208 -2.0261
16843TIP3    H271945   4.336   3.676   2.561 -0.0265  0.1496  0.3223
16844TIP3   OH271946   4.084   4.640   1.467 -0.1373  0.8406 -0.4158
16844TIP3    H171947   4.033   4.563   1.492  1.3436  0.1662  0.6461
16844TIP3    H271948   4.125   4.669   1.549  1.1636  1.3568 -1.2273
16845TIP3   OH271949   0.791   0.892   0.369  0.0006 -0.0393  0.2733
16845TIP3    H171950   0.826   0.946   0.440  0.1007  1.5754 -0.9465
16845TIP3    H271951   0.735   0.951   0.320  1.0403 -0.6967 -1.8102
16846TIP3   OH271952   6.124   0.598   6.317  0.7053 -0.4325 -0.0388
16846TIP3    H171953   6.145   0.563   6.404 -0.3703  0.3968  0.5805
16846TIP3    H271954   6.180   0.674   6.308 -1.1960  1.2414  1.2316
16847TIP3   OH271955   3.155   6.165  11.758 -0.1035 -0.1181  0.0548
16847TIP3    H171956   3.219   6.155  11.828 -1.3670 -0.2213  1.2271
16847TIP3    H271957   3.078   6.202  11.801 -2.1793 -3.4039 -0.5449
16848TIP3   OH271958   3.249   5.193  13.151  0.3216  0.2354 -0.2242
16848TIP3    H171959   3.274   5.219  13.062 -1.8284  0.8424 -0.7165
16848TIP3    H271960   3.230   5.100  13.145  2.2580 -0.2135  0.1379
16849TIP3   OH271961   2.986   5.322  13.006 -0.9114 -0.6466  0.0143
16849TIP3    H171962   2.991   5.417  13.004 -0.9294 -0.6361  0.4302
16849TIP3    H271963   2.892   5.303  13.005 -0.9806 -0.7464 -3.2928
16850TIP3   OH271964   4.184   1.834   0.552  0.1680 -0.0606 -0.0050
16850TIP3    H171965   4.153   1.803   0.467  0.9255 -0.1004 -0.2694
16850TIP3    H271966   4.160   1.927   0.554 -0.0033 -0.1013 -0.1875
16851TIP3   OH271967   0.791   5.569  10.946 -0.1330 -0.1842 -0.2668
16851TIP3    H171968   0.815   5.661  10.939  1.8890 -0.7151 -1.2147
16851TIP3    H271969   0.778   5.540  10.855 -0.9672 -0.7912  0.0290
16852TIP3   OH271970   5.825   5.670  15.079 -0.2477  0.0407  0.1891
16852TIP3    H171971   5.826   5.692  15.172 -2.0353  0.9855  0.0291
16852TIP3    H271972   5.916   5.648  15.058  0.0352 -1.0629  2.3463
16853TIP3   OH271973   3.730   4.896   2.876  0.4193  0.2401  0.4395
16853TIP3    H171974   3.698   4.806   2.871 -0.9294  0.6622  0.9063
16853TIP3    H271975   3.743   4.923   2.785 -2.6020  0.6980  0.0418
16854TIP3   OH271976   5.179   5.013  12.887  0.0788 -0.2652 -0.2635
16854TIP3    H171977   5.252   4.952  12.890 -0.4564 -0.9926 -1.4999
16854TIP3    H271978   5.206   5.081  12.825  0.7128  0.8535  1.1780
16855TIP3   OH271979   1.713   5.219  12.161 -0.3868  0.0090 -0.5521
16855TIP3    H171980   1.709   5.303  12.208 -2.1715  0.9745 -2.2856
16855TIP3    H271981   1.746   5.243  12.074  1.6734 -1.5595 -0.2873
16856TIP3   OH271982   3.704   3.493  15.872 -0.3359  0.5203  0.0301
16856TIP3    H171983   3.644   3.439  15.924 -0.1767 -0.0986 -0.4181
16856TIP3    H271984   3.785   3.443  15.868  0.3743  1.5506  0.9880
16857TIP3   OH271985   4.470   1.411  12.539  0.1840 -1.0983  0.0136
16857TIP3    H171986   4.433   1.325  12.520  0.7093 -2.0323  2.7483
16857TIP3    H271987   4.396   1.471  12.534 -0.6653 -2.0920  0.2804
16858TIP3   OH271988   2.556   6.187   0.158  0.2470  0.3532  0.1313
16858TIP3    H171989   2.581   6.241   0.233 -2.7827  0.3109  1.2865
16858TIP3    H271990   2.538   6.250   0.088  0.9454  0.5216  0.0920
16859TIP3   OH271991   0.277   0.828   4.461 -0.3302 -0.0645  0.3123
16859TIP3    H171992   0.289   0.868   4.547  1.8745  2.3384 -0.9690
16859TIP3    H271993   0.182   0.830   4.447 -0.4887  3.2836  1.0935
16860TIP3   OH271994   2.346   0.938   5.469 -0.2503 -0.1351 -0.0330
16860TIP3    H171995   2.364   1.029   5.492 -0.1779 -0.0015 -0.6076
16860TIP3    H271996   2.254   0.937   5.444 -0.2691 -0.2314  0.0421
16861TIP3   OH271997   3.114   2.612  11.954  0.0104 -0.4775  0.1326
16861TIP3    H171998   3.188   2.557  11.979  2.4361  1.7505 -1.6609
16861TIP3    H271999   3.079   2.571  11.875  0.5329 -0.5457 -0.0664
16862TIP3   OH272000   6.742   5.393   3.594 -0.2338  0.0894  0.2117
16862TIP3    H172001   6.716   5.472   3.641  0.3866  0.8311 -0.6619
16862TIP3    H272002   6.830   5.374   3.625 -1.1706 -1.5897  2.0900
16863TIP3   OH272003   5.901   2.553  12.024 -0.3328  0.1018  0.4683
16863TIP3    H172004   5.958   2.626  11.998 -0.3717  0.2969  0.9290
16863TIP3    H272005   5.958   2.476  12.019 -0.7208 -0.1013 -1.6638
16864TIP3   OH272006   0.265   3.954  11.571 -0.1866 -0.1975 -0.8470
16864TIP3    H172007   0.352   3.959  11.531 -0.2544  1.1595 -0.8634
16864TIP3    H272008   0.204   3.969  11.498 -0.4947 -2.0191 -1.0035
16865TIP3   OH272009   0.978   6.705  12.169 -0.2819 -0.2092  0.3405
16865TIP3    H172010   0.979   6.639  12.100 -0.0479 -0.1377  0.2750
16865TIP3    H272011   0.962   6.787  12.122 -2.2374 -0.4103  0.5841
16866TIP3   OH272012   5.513   6.442  12.086  0.0293  0.1896 -0.5311
16866TIP3    H172013   5.524   6.476  12.174 -1.0900 -1.3224  0.2411
16866TIP3    H272014   5.450   6.370  12.096 -1.7014  1.2486 -2.8416
16867TIP3   OH272015   6.504   1.477  16.656 -0.2654  0.3547  0.1313
16867TIP3    H172016   6.501   1.447  16.566 -2.5175  0.0868  0.2374
16867TIP3    H272017   6.568   1.419  16.699  0.4061  0.1313 -1.1281
16868TIP3   OH272018   0.624   0.123   2.080  0.2654  0.7010 -0.0060
16868TIP3    H172019   0.571   0.084   2.011 -1.3229  3.9727 -0.8321
16868TIP3    H272020   0.569   0.191   2.118  2.5233  1.6958  1.7642
16869TIP3   OH272021   2.280   4.518  12.750 -0.6242 -0.0438 -0.7041
16869TIP3    H172022   2.241   4.575  12.685 -0.3324  0.2192 -0.6514
16869TIP3    H272023   2.212   4.506  12.817 -0.2966  1.1841 -0.1310
16870TIP3   OH272024   0.111   3.851  12.186 -0.0601 -0.6192 -0.5842
16870TIP3    H172025   0.119   3.939  12.148  0.7616  0.0090  0.9618
16870TIP3    H272026   0.033   3.856  12.240 -0.3401 -1.0338 -0.9449
16871TIP3   OH272027   5.705   2.767   3.842 -0.0486  0.1644 -0.2987
16871TIP3    H172028   5.721   2.716   3.763 -2.7336 -1.0143 -0.1718
16871TIP3    H272029   5.630   2.822   3.821 -3.3805 -2.8720  2.3688
16872TIP3   OH272030   5.205   5.112   3.298 -0.2844 -0.3310  0.1586
16872TIP3    H172031   5.292   5.073   3.299  1.3274  2.8930  1.0296
16872TIP3    H272032   5.180   5.111   3.205  2.5005  1.9874 -0.7988
16873TIP3   OH272033   3.300   0.500  14.464 -0.5002 -0.1178 -0.0192
16873TIP3    H172034   3.368   0.537  14.407 -1.2109 -1.4422 -1.8338
16873TIP3    H272035   3.348   0.460  14.536  0.4929  0.9507 -0.0749
16874TIP3   OH272036   0.089   5.749  16.987  0.2252  0.0496  0.1753
16874TIP3    H172037   0.171   5.770  16.941  1.7919 -2.9676  1.2819
16874TIP3    H272038   0.024   5.742  16.918  2.0892 -2.4705 -1.5164
16875TIP3   OH272039   3.005   3.459  10.912 -0.6474  0.2111  0.2658
16875TIP3    H172040   2.991   3.476  10.819 -1.2539  0.4077  0.3857
16875TIP3    H272041   2.974   3.539  10.956 -0.3462  0.1305  0.6336
16876TIP3   OH272042   0.188   2.427   1.489 -0.3708 -0.3807  0.2114
16876TIP3    H172043   0.235   2.510   1.498 -0.1360 -0.6298  1.3778
16876TIP3    H272044   0.247   2.361   1.524 -0.1953 -1.1981 -1.4980
16877TIP3   OH272045   0.473   0.861  15.595 -0.3828 -0.2531  0.3329
16877TIP3    H172046   0.503   0.944  15.556 -1.6973 -0.3059 -0.8674
16877TIP3    H272047   0.378   0.868  15.596 -0.4706 -1.2806  1.3329
16878TIP3   OH272048   1.798   5.012   6.210 -0.0523  0.3743  0.6432
16878TIP3    H172049   1.781   5.086   6.268 -1.8348  0.7600 -0.3138
16878TIP3    H272050   1.850   4.952   6.263  0.1050  1.6050  1.9510
16879TIP3   OH272051   0.290   0.431   6.496 -0.0165  0.0342  0.8200
16879TIP3    H172052   0.260   0.522   6.497  0.1232  0.0816  0.6664
16879TIP3    H272053   0.297   0.409   6.403 -3.6577 -1.3135  0.6961
16880TIP3   OH272054   0.615   5.946  13.505  0.2501 -0.4840 -0.0101
16880TIP3    H172055   0.666   5.865  13.507  0.5707 -0.2872  1.6005
16880TIP3    H272056   0.587   5.956  13.414  2.4560 -1.0060 -0.7957
16881TIP3   OH272057   2.467   2.539  13.738 -0.0838 -0.1508  0.0396
16881TIP3    H172058   2.411   2.470  13.702  1.3402 -1.5542  0.4240
16881TIP3    H272059   2.533   2.554  13.670 -0.7192  1.2809 -0.2883
16882TIP3   OH272060   6.350   6.399  13.791  0.2077  0.9087 -0.1503
16882TIP3    H172061   6.380   6.414  13.881  1.0040  0.3456 -0.3114
16882TIP3    H272062   6.284   6.330  13.799  0.0642  1.0651  0.0306
16883TIP3   OH272063   4.622   1.786   0.461  0.1561 -0.3292  0.1111
16883TIP3    H172064   4.644   1.696   0.481  4.0137  0.3668 -0.1924
16883TIP3    H272065   4.657   1.837   0.535 -3.4232  0.9280  1.1420
16884TIP3   OH272066   3.652   6.715   1.543  0.1441  0.1088  0.4928
16884TIP3    H172067   3.623   6.687   1.630 -0.9254  0.9724  0.4405
16884TIP3    H272068   3.599   6.792   1.525  1.6172  0.9887 -0.1854
16885TIP3   OH272069   0.493   0.180  16.241 -0.0045  0.4402  0.0182
16885TIP3    H172070   0.562   0.130  16.197 -0.0803  0.7146 -0.4285
16885TIP3    H272071   0.448   0.116  16.296 -0.4005 -0.0936 -0.9023
16886TIP3   OH272072   1.940   1.099   4.280  0.5127 -0.4218  0.1235
16886TIP3    H172073   2.013   1.152   4.313 -0.6190  1.8973 -0.8513
16886TIP3    H272074   1.981   1.038   4.218  1.7828 -0.2672  0.7623
16887TIP3   OH272075   0.591   6.037  11.685  0.2444 -0.0318 -0.6054
16887TIP3    H172076   0.590   6.131  11.703 -2.4956 -0.2226  0.5896
16887TIP3    H272077   0.524   6.025  11.618 -0.6479 -1.3378  0.4929
16888TIP3   OH272078   4.612   5.472  11.525  0.3451 -0.3722 -0.6804
16888TIP3    H172079   4.660   5.555  11.524  1.8498 -1.2004 -0.4151
16888TIP3    H272080   4.620   5.441  11.615 -0.7148 -0.5339 -0.6363
16889TIP3   OH272081   1.841   1.100   5.290  0.2954  0.2879 -0.1205
16889TIP3    H172082   1.826   1.187   5.327  3.6158  0.6485  0.7389
16889TIP3    H272083   1.761   1.051   5.309 -1.1517  2.7290  0.5384
16890TIP3   OH272084   2.476   3.645   0.265 -0.1581  0.2490 -0.4046
16890TIP3    H172085   2.445   3.721   0.316 -0.9990  0.7486 -1.6170
16890TIP3    H272086   2.403   3.624   0.207  0.7392 -0.3663 -1.3470
16891TIP3   OH272087   2.517   1.473   4.794 -0.5500  0.1888  0.2729
16891TIP3    H172088   2.565   1.554   4.808  1.2165 -1.0705  1.8908
16891TIP3    H272089   2.426   1.501   4.779  0.2165  2.4858 -0.4349
16892TIP3   OH272090   1.092   6.631  16.389  0.2541 -0.2730  0.1310
16892TIP3    H172091   1.038   6.681  16.450  0.2537 -0.2616  0.1217
16892TIP3    H272092   1.145   6.574  16.445  0.4307 -0.0869  0.1595
16893TIP3   OH272093   5.688   0.693   5.338 -0.1516 -0.6102  0.0656
16893TIP3    H172094   5.629   0.763   5.312 -0.5639 -0.5519  1.1026
16893TIP3    H272095   5.769   0.738   5.363  0.3843 -0.6954 -1.4235
16894TIP3   OH272096   1.188   5.487  16.633 -0.2992  0.2333  0.0465
16894TIP3    H172097   1.120   5.461  16.571 -0.0762  0.5320 -0.3275
16894TIP3    H272098   1.264   5.432  16.611 -0.4221 -0.1113  0.4725
16895TIP3   OH272099   6.697   1.955  15.981  0.1453  0.0505 -0.2923
16895TIP3    H172100   6.709   1.876  16.034 -0.3747 -0.9477 -1.5886
16895TIP3    H272101   6.603   1.959  15.966  0.2829  0.3084 -1.1278
16896TIP3   OH272102   6.413   0.591   4.594 -0.3812  1.4076  0.3518
16896TIP3    H172103   6.401   0.514   4.650 -2.4124  0.8946 -0.7065
16896TIP3    H272104   6.460   0.558   4.518  2.4222  2.1155  1.6618
16897TIP3   OH272105   5.112   1.743   2.085 -0.0357 -0.0549 -0.3594
16897TIP3    H172106   5.037   1.750   2.026 -1.0174  0.5263  0.9027
16897TIP3    H272107   5.165   1.821   2.066 -1.0918  0.9066  0.4777
16898TIP3   OH272108   2.812   2.702  14.000  0.2722  0.1654 -0.4586
16898TIP3    H172109   2.842   2.736  14.085  0.3466 -0.0176 -0.4116
16898TIP3    H272110   2.721   2.731  13.994  0.3714  0.4726 -0.4694
16899TIP3   OH272111   0.419   5.265  11.154  0.4101  0.1928  0.2524
16899TIP3    H172112   0.385   5.182  11.188  0.3007  0.0876 -0.1113
16899TIP3    H272113   0.453   5.310  11.231  1.7173 -0.7727  0.2677
16900TIP3   OH272114   6.398   5.965  11.568  0.2573  0.0334  0.1394
16900TIP3    H172115   6.436   5.882  11.537 -0.7113  0.5501 -2.8174
16900TIP3    H272116   6.323   5.939  11.621  0.3013 -0.9915 -0.2797
16901TIP3   OH272117   1.044   2.851   3.677 -0.2460 -0.5247  0.1979
16901TIP3    H172118   1.039   2.777   3.738  0.5217 -1.5169 -0.9021
16901TIP3    H272119   1.125   2.836   3.628 -0.5384  0.5828 -0.6592
16902TIP3   OH272120   0.285   2.680   0.102  0.7375 -0.0624 -0.2960
16902TIP3    H172121   0.347   2.612   0.128  2.2200  1.2910 -0.1327
16902TIP3    H272122   0.303   2.753   0.160 -3.8994 -0.8938  2.7175
16903TIP3   OH272123   2.254   2.330   3.458  0.3704 -0.1320  0.0678
16903TIP3    H172124   2.312   2.267   3.415 -0.5856  0.3719 -2.0780
16903TIP3    H272125   2.174   2.330   3.405 -0.8806  0.6052  1.8269
16904TIP3   OH272126   4.799   4.970   1.689  0.4288 -0.4269  0.2937
16904TIP3    H172127   4.714   4.996   1.723  0.4177  0.7825 -0.6136
16904TIP3    H272128   4.845   4.935   1.765  1.3557  4.4508  2.3536
16905TIP3   OH272129   5.567   5.466   0.483  0.2377 -0.0298 -0.2757
16905TIP3    H172130   5.496   5.503   0.431  1.0115 -1.0793 -2.1834
16905TIP3    H272131   5.602   5.541   0.532 -0.8019  0.9268 -0.9341
16906TIP3   OH272132   2.167   0.280  14.309  0.4971  0.1603  0.3106
16906TIP3    H172133   2.176   0.209  14.246 -1.0766 -0.7659  1.0639
16906TIP3    H272134   2.174   0.360  14.257 -0.2311 -0.5723 -0.9636
16907TIP3   OH272135   1.184   3.024  17.356 -0.3055  0.1032 -0.8021
16907TIP3    H172136   1.155   3.095  17.299 -0.9868  0.4540 -0.0364
16907TIP3    H272137   1.246   3.066  17.417  0.3837 -0.2577 -1.2357
16908TIP3   OH272138   2.179   6.122  11.031 -0.2249 -0.0319 -0.5486
16908TIP3    H172139   2.120   6.189  10.999 -2.2464 -0.8109  1.2782
16908TIP3    H272140   2.196   6.065  10.956 -2.9740 -0.5528 -0.8605
16909TIP3   OH272141   5.160   0.206   4.285 -0.2160  0.0337 -0.0178
16909TIP3    H172142   5.222   0.236   4.351 -0.1999 -2.3866  1.1800
16909TIP3    H272143   5.212   0.147   4.229 -0.4946  1.2028 -1.5712
16910TIP3   OH272144   0.853   2.572   6.533 -0.0023  0.9029  0.5136
16910TIP3    H172145   0.858   2.519   6.453 -1.3399  1.4326  0.0503
16910TIP3    H272146   0.941   2.567   6.570  0.5951  0.4757 -0.8805
16911TIP3   OH272147   4.564   0.360  17.003 -0.0912 -0.3579 -0.0411
16911TIP3    H172148   4.602   0.404  17.080 -0.7465 -1.4660  0.9592
16911TIP3    H272149   4.612   0.277  16.998 -1.7390 -1.4088  0.7406
16912TIP3   OH272150   5.779   3.001  14.594  0.0405 -0.3480  0.9073
16912TIP3    H172151   5.769   2.961  14.508 -1.6236 -0.2443  1.0110
16912TIP3    H272152   5.770   2.929  14.656 -1.2144 -0.1026  1.0409
16913TIP3   OH272153   0.503   2.244  12.800 -0.1967  0.1290  0.4874
16913TIP3    H172154   0.514   2.149  12.797 -1.6693 -0.0803  0.7106
16913TIP3    H272155   0.464   2.261  12.886  0.5141  1.0042  0.6539
16914TIP3   OH272156   3.380   0.080   0.009  0.9419  0.0044 -0.0120
16914TIP3    H172157   3.472   0.095   0.032  0.6462  0.2026  1.0835
16914TIP3    H272158   3.341   0.045   0.089 -0.1724  0.8962 -0.1409
16915TIP3   OH272159   0.602   5.586  16.059 -0.0830 -0.2377  0.2416
16915TIP3    H172160   0.562   5.595  16.145 -4.4324  3.5746 -1.7355
16915TIP3    H272161   0.548   5.521  16.014  0.2064  0.0409 -0.5293
16916TIP3   OH272162   6.032   3.658   3.009 -0.2414 -0.3250  0.7444
16916TIP3    H172163   5.992   3.745   3.007 -0.6639 -0.5186  0.6559
16916TIP3    H272164   6.009   3.618   2.925 -0.0562 -0.5271  0.7878
16917TIP3   OH272165   4.645   4.418   3.519  0.0458 -0.7434 -0.3083
16917TIP3    H172166   4.732   4.381   3.529  0.6898  0.9131  0.6648
16917TIP3    H272167   4.652   4.478   3.445  0.2782  0.7211  0.8367
16918TIP3   OH272168   0.572   2.130   4.033 -0.3051 -0.3704  0.0210
16918TIP3    H172169   0.662   2.115   4.063 -0.1477  0.5876  0.0643
16918TIP3    H272170   0.518   2.124   4.112 -0.0259  1.0329  0.3462
16919TIP3   OH272171   5.094   2.940  17.251 -0.0600 -0.1338  0.4554
16919TIP3    H172172   5.166   3.000  17.233  2.3434 -3.1856 -1.0832
16919TIP3    H272173   5.111   2.908  17.339 -0.0041 -0.2488  0.4037
16920TIP3   OH272174   0.054   0.578   4.790 -0.2207 -0.2928 -0.0153
16920TIP3    H172175   0.085   0.498   4.748  0.6690  0.4481 -0.8075
16920TIP3    H272176   0.004   0.548   4.866  1.8559 -1.5719  0.9174
16921TIP3   OH272177   5.507   3.681  17.085 -0.2251 -0.0924  0.2025
16921TIP3    H172178   5.555   3.671  17.167  0.8617  3.3736  0.1583
16921TIP3    H272179   5.494   3.776  17.076 -2.0966 -0.4791 -2.6612
16922TIP3   OH272180   4.715   5.097  11.209  0.1201  0.0065  0.0116
16922TIP3    H172181   4.733   5.005  11.229  1.3801 -0.3772 -2.4602
16922TIP3    H272182   4.638   5.094  11.152  0.3774  0.4131 -0.3698
16923TIP3   OH272183   4.774   6.414   3.783 -0.1548 -0.2600  0.1040
16923TIP3    H172184   4.855   6.459   3.761 -0.2440  0.0369  0.3817
16923TIP3    H272185   4.792   6.322   3.765 -0.0587 -0.0853 -0.7207
16924TIP3   OH272186   3.368   4.066  16.238  0.0222  0.0473 -0.1719
16924TIP3    H172187   3.428   4.134  16.208 -1.8963  0.9833 -2.1712
16924TIP3    H272188   3.352   4.011  16.161 -1.5185 -0.2703  0.3185
16925TIP3   OH272189   2.355   0.641  15.479  0.4257 -0.4648  0.6225
16925TIP3    H172190   2.352   0.736  15.471 -1.4501 -0.5857 -0.8862
16925TIP3    H272191   2.360   0.625  15.574 -1.4518  1.1492  1.0618
16926TIP3   OH272192   2.673   4.071  11.063 -0.2598 -0.0291 -0.7158
16926TIP3    H172193   2.667   4.057  10.969 -1.7856 -2.2794 -0.3433
16926TIP3    H272194   2.723   3.996  11.095 -0.4565  0.2928  0.3748
16927TIP3   OH272195   0.333   2.006   0.283 -0.4764  0.2553 -0.6130
16927TIP3    H172196   0.290   2.091   0.294  0.3187  0.5614  0.2565
16927TIP3    H272197   0.306   1.955   0.359  1.8016  0.9650  0.7823
16928TIP3   OH272198   3.973   4.221  14.880 -0.0955  0.1386  0.6233
16928TIP3    H172199   3.982   4.128  14.859 -1.5598  0.5349 -2.2110
16928TIP3    H272200   4.056   4.260  14.852 -0.9008  0.1774 -2.0283
16929TIP3   OH272201   4.476   3.172  14.608  0.3077 -0.2646 -0.7432
16929TIP3    H172202   4.543   3.128  14.659  0.6211  1.2778  0.2367
16929TIP3    H272203   4.398   3.117  14.617  0.6384 -0.5486  0.5474
16930TIP3   OH272204   3.249   1.591  16.327  0.1745  0.3225 -0.1334
16930TIP3    H172205   3.231   1.518  16.269  1.4654 -0.3425  0.2818
16930TIP3    H272206   3.197   1.572  16.406  1.3955 -0.7734  0.4376
16931TIP3   OH272207   1.355   3.186  11.798  0.0573  0.2710  0.0261
16931TIP3    H172208   1.375   3.092  11.797 -0.9075  0.0489 -1.1540
16931TIP3    H272209   1.340   3.208  11.706 -0.6942  1.3714  0.3940
16932TIP3   OH272210   3.837   0.264   2.351 -0.5960 -0.0682  0.3038
16932TIP3    H172211   3.784   0.185   2.362 -1.6522  0.2447 -1.9104
16932TIP3    H272212   3.774   0.332   2.328  0.5288  0.8860 -0.0552
16933TIP3   OH272213   0.719   6.567   1.972  0.1395  0.0317 -0.4284
16933TIP3    H172214   0.658   6.494   1.982 -0.1262  0.5058  1.9550
16933TIP3    H272215   0.713   6.591   1.880 -1.7411 -1.2454 -0.6894
16934TIP3   OH272216   2.622   4.374  16.359  0.4898  0.0616 -0.5623
16934TIP3    H172217   2.616   4.334  16.446  2.5519 -1.2656 -0.9537
16934TIP3    H272218   2.707   4.345  16.326 -0.2019  0.6314 -2.9888
16935TIP3   OH272219   4.179   3.865  16.064  0.3861  0.4197  0.2834
16935TIP3    H172220   4.108   3.836  16.121  0.7565  0.3487  0.7114
16935TIP3    H272221   4.145   3.943  16.022 -0.9088 -0.9713 -1.4249
16936TIP3   OH272222   4.012   6.656  14.239  1.1059  0.8080 -0.3130
16936TIP3    H172223   4.050   6.655  14.152  0.7126  1.4783 -0.5016
16936TIP3    H272224   3.918   6.645  14.225  1.2746 -1.8193  0.2072
16937TIP3   OH272225   3.651   3.459  11.928 -0.8359 -0.1877  0.9209
16937TIP3    H172226   3.717   3.436  11.994 -0.9800 -0.3961  0.9977
16937TIP3    H272227   3.698   3.459  11.845 -1.3062 -3.5874  0.4743
16938TIP3   OH272228   0.253   1.125  10.755  1.8606  0.0223 -0.3975
16938TIP3    H172229   0.177   1.143  10.700 -0.1124  1.0725  2.3966
16938TIP3    H272230   0.299   1.208  10.761  0.9341  0.4740  1.0122
16939TIP3   OH272231   3.357   3.103   5.182 -0.5001  0.5285  0.0208
16939TIP3    H172232   3.429   3.156   5.217  0.2308 -0.2018 -0.3302
16939TIP3    H272233   3.357   3.123   5.088 -1.1002  0.9191  0.1011
16940TIP3   OH272234   0.950   1.914  12.501 -0.4875  0.4219 -0.3363
16940TIP3    H172235   1.012   1.982  12.474 -0.5079 -0.3360 -2.4657
16940TIP3    H272236   0.866   1.945  12.468 -0.7409  0.0236 -0.0702
16941TIP3   OH272237   6.526   6.593  16.911 -0.3285 -0.5725  0.0077
16941TIP3    H172238   6.476   6.670  16.883 -0.6973 -0.7769  0.0933
16941TIP3    H272239   6.463   6.521  16.907  0.1535 -0.9677 -0.5698
16942TIP3   OH272240   1.369   6.281  12.290 -0.4098  0.3472  0.0902
16942TIP3    H172241   1.426   6.215  12.329 -0.8071  1.5002  2.9188
16942TIP3    H272242   1.353   6.251  12.201  4.8657  0.1025 -1.1104
16943TIP3   OH272243   4.002   6.301   2.401 -1.0842  0.3333 -0.2085
16943TIP3    H172244   4.055   6.252   2.338 -1.2467  0.7226 -0.6515
16943TIP3    H272245   4.008   6.250   2.482 -1.9874 -0.9300 -0.9008
16944TIP3   OH272246   2.304   5.661   0.535  0.0955 -0.2325 -0.0469
16944TIP3    H172247   2.324   5.752   0.557 -0.4471  0.3584 -1.8790
16944TIP3    H272248   2.209   5.659   0.524 -0.2329 -1.5910  2.2690
16945TIP3   OH272249   5.034   2.682  14.037 -0.3673 -0.1666  0.5259
16945TIP3    H172250   5.122   2.653  14.011  0.9445  3.2210  0.6443
16945TIP3    H272251   5.050   2.763  14.086 -3.5911  0.6314  0.4258
16946TIP3   OH272252   2.437   2.403  16.263  0.0646 -0.0856 -0.2703
16946TIP3    H172253   2.451   2.311  16.288  1.8137  0.5025  1.1679
16946TIP3    H272254   2.387   2.440  16.335 -1.3119 -0.0554 -1.2134
16947TIP3   OH272255   3.294   0.953  15.516  0.0626  0.1123 -0.5165
16947TIP3    H172256   3.299   0.897  15.594 -1.2890 -1.3789 -1.4442
16947TIP3    H272257   3.323   1.039  15.546  2.5037 -1.0999  0.9198
16948TIP3   OH272258   1.655   5.875  11.875  0.0291  0.2381  0.5612
16948TIP3    H172259   1.613   5.924  11.946 -0.5398  0.0373  0.3740
16948TIP3    H272260   1.694   5.799  11.919  0.8474  0.8041  0.8398
16949TIP3   OH272261   1.862   0.035  13.656 -0.4926  0.4328  0.2942
16949TIP3    H172262   1.905  -0.050  13.662 -0.7325  0.3466  0.9357
16949TIP3    H272263   1.868   0.060  13.564  0.1354  0.0125  0.2191
16950TIP3   OH272264   5.126   4.331  13.085  0.2560 -0.3985 -0.4593
16950TIP3    H172265   5.173   4.367  13.160 -0.3314 -1.4790  0.4594
16950TIP3    H272266   5.060   4.397  13.064 -0.7916 -0.8702  1.1764
16951TIP3   OH272267   6.560   1.760   4.770  0.4637 -0.2083  0.5230
16951TIP3    H172268   6.648   1.779   4.739 -0.8058  1.6437 -2.2986
16951TIP3    H272269   6.522   1.704   4.702 -0.6142 -0.9278  1.6574
16952TIP3   OH272270   3.638   2.350   1.397  0.1549 -0.0111  0.2043
16952TIP3    H172271   3.583   2.285   1.353 -0.2800 -0.4969  1.4376
16952TIP3    H272272   3.675   2.402   1.325 -1.0028 -0.4041 -0.7163
16953TIP3   OH272273   2.451   4.546   6.161 -0.1828  0.1422  0.5538
16953TIP3    H172274   2.432   4.638   6.145 -0.0261  0.1875  0.6280
16953TIP3    H272275   2.372   4.513   6.205 -1.4401 -0.4436 -1.9478
16954TIP3   OH272276   0.652   2.034   3.759 -0.4500 -0.1023  0.1182
16954TIP3    H172277   0.713   2.094   3.715 -1.3410  0.5134 -0.3247
16954TIP3    H272278   0.628   2.080   3.840  0.1064 -0.5981  0.5668
16955TIP3   OH272279   3.341   3.732   1.296 -0.9574 -0.2927  0.1402
16955TIP3    H172280   3.391   3.654   1.271 -3.3145 -1.8517 -0.0748
16955TIP3    H272281   3.378   3.759   1.379  0.8194 -0.7879 -0.4411
16956TIP3   OH272282   2.273   4.184   4.798 -0.1741  0.0770  0.0286
16956TIP3    H172283   2.229   4.110   4.755 -0.7100  0.4500 -0.0781
16956TIP3    H272284   2.280   4.251   4.730  0.7916 -0.0592 -0.0240
16957TIP3   OH272285   2.579   3.000   4.164  0.9268 -0.0781 -0.0556
16957TIP3    H172286   2.622   3.081   4.192  1.0814 -0.8173  1.9630
16957TIP3    H272287   2.651   2.943   4.137  0.8886  0.0580 -0.4640
16958TIP3   OH272288   4.446   2.152   5.746 -0.1957  0.1212  0.1493
16958TIP3    H172289   4.486   2.087   5.804  0.9764  0.9599  0.3152
16958TIP3    H272290   4.408   2.101   5.675  0.2458 -0.7828  0.5513
16959TIP3   OH272291   0.324   5.365   5.750 -0.1032 -0.3871 -0.0823
16959TIP3    H172292   0.376   5.374   5.830 -1.0771  0.0169  0.5345
16959TIP3    H272293   0.233   5.365   5.781 -0.6190  2.2002 -1.3395
16960TIP3   OH272294   1.026   5.667   2.347  0.6468  0.2233  0.5933
16960TIP3    H172295   1.059   5.735   2.288  0.1603  0.8630  1.0510
16960TIP3    H272296   1.067   5.587   2.315 -0.2795  0.4080 -1.1381
16961TIP3   OH272297   2.842   5.411   2.143  0.3208  0.3032 -0.0722
16961TIP3    H172298   2.811   5.441   2.057 -0.3264 -0.8398 -0.2597
16961TIP3    H272299   2.763   5.404   2.196  0.5684 -0.2207  0.2340
16962TIP3   OH272300   5.947   0.512   5.386  0.0252 -0.3892  0.0722
16962TIP3    H172301   5.953   0.513   5.290  0.6044 -0.6275  0.1008
16962TIP3    H272302   5.949   0.604   5.411  0.9152 -0.3518 -0.0955
16963TIP3   OH272303   2.720   6.630  16.366  0.0553  0.4183 -0.3423
16963TIP3    H172304   2.749   6.568  16.433 -0.7563  0.3957 -0.0054
16963TIP3    H272305   2.712   6.577  16.287  0.1277  0.2544 -0.2400
16964TIP3   OH272306   2.823   4.418   1.266  0.0918 -0.4550  0.2151
16964TIP3    H172307   2.780   4.443   1.184  1.8514 -1.9450 -1.2351
16964TIP3    H272308   2.782   4.475   1.331 -1.7249  0.4599 -1.5723
16965TIP3   OH272309   3.523   0.097  13.786  0.2991  0.2423 -0.1736
16965TIP3    H172310   3.463   0.068  13.855 -0.5876 -0.5296 -1.2348
16965TIP3    H272311   3.472   0.161  13.736  0.0341 -1.0116 -1.5738
16966TIP3   OH272312   5.123   4.411   2.978  0.2687  0.4074 -0.0563
16966TIP3    H172313   5.134   4.506   2.980  1.1697  0.3106  1.7995
16966TIP3    H272314   5.032   4.396   3.001  0.1059  0.8077 -0.4247
16967TIP3   OH272315   2.216   1.310   4.859 -0.0731 -0.1660 -0.1020
16967TIP3    H172316   2.266   1.333   4.937 -0.7229  1.7973 -0.1998
16967TIP3    H272317   2.204   1.394   4.813 -1.6912 -0.9044 -1.1128
16968TIP3   OH272318   3.431   1.059   1.137  0.9359 -0.7168  0.4507
16968TIP3    H172319   3.412   1.137   1.190 -1.6296 -0.6727 -0.4068
16968TIP3    H272320   3.500   1.087   1.077  0.5434  0.6654  0.6130
16969TIP3   OH272321   1.407   6.462   3.984 -0.2594  0.1709  0.0910
16969TIP3    H172322   1.348   6.538   3.980 -1.6143 -0.6274  2.7927
16969TIP3    H272323   1.368   6.398   3.925  0.4600  1.2133 -1.5948
16970TIP3   OH272324   6.658   1.569  12.138  0.0046  0.0714  0.5727
16970TIP3    H172325   6.712   1.621  12.077 -1.5349  0.3678 -0.6052
16970TIP3    H272326   6.603   1.515  12.080 -0.6766 -0.5182  1.7443
16971TIP3   OH272327   2.433   6.275   1.938 -0.0381  0.4084  0.2661
16971TIP3    H172328   2.484   6.206   1.980  0.1083  1.0856  1.2310
16971TIP3    H272329   2.347   6.270   1.979 -0.2849  0.2690 -0.2567
16972TIP3   OH272330   2.003   3.410   1.199 -0.7237  0.3863  0.1908
16972TIP3    H172331   2.090   3.426   1.161 -0.1855 -0.4607  1.0049
16972TIP3    H272332   1.958   3.494   1.194 -0.0995  0.6657 -0.8686
16973TIP3   OH272333   5.984   4.170   2.201 -0.8616 -0.0404 -0.3373
16973TIP3    H172334   5.973   4.264   2.185 -2.3204  0.1590  1.5432
16973TIP3    H272335   5.903   4.131   2.168 -1.7322 -0.1910  1.8066
16974TIP3   OH272336   1.551   6.675  11.663 -0.1000  0.3472 -0.6442
16974TIP3    H172337   1.477   6.673  11.724 -0.4323  1.4979 -0.9674
16974TIP3    H272338   1.573   6.584  11.648 -1.0007  0.0060  0.0124
16975TIP3   OH272339   1.372   5.618  15.901  0.2938 -0.5804  0.0057
16975TIP3    H172340   1.420   5.596  15.821  2.2986 -2.0043  1.4973
16975TIP3    H272341   1.281   5.600  15.879  0.3727  1.7564 -2.7797
16976TIP3   OH272342   3.443   0.294   5.748  0.9921 -0.0651  0.3753
16976TIP3    H172343   3.463   0.207   5.783  0.7349 -0.8736 -1.4092
16976TIP3    H272344   3.349   0.294   5.735  0.8259  0.9136  1.3872
16977TIP3   OH272345   2.714   4.982   1.369 -0.2429  0.3310 -0.1014
16977TIP3    H172346   2.689   4.918   1.303  0.4512  2.0457 -2.1537
16977TIP3    H272347   2.704   5.067   1.325  0.7113  1.5235  1.8453
16978TIP3   OH272348   2.891   6.048   2.918  0.1267 -0.0842  0.1989
16978TIP3    H172349   2.936   6.122   2.959 -0.8865  0.4476  0.3991
16978TIP3    H272350   2.923   6.046   2.828  2.5827 -1.4142  1.0062
16979TIP3   OH272351   6.073   4.961  15.629 -0.0605 -0.1447  0.0259
16979TIP3    H172352   6.063   4.866  15.636  1.1382 -0.1683  2.7115
16979TIP3    H272353   6.067   4.992  15.720 -0.9296  2.4362 -0.8239
16980TIP3   OH272354   2.319   1.489   4.465  0.4238  0.5769  0.2748
16980TIP3    H172355   2.331   1.423   4.396  0.4647  0.1496  0.6861
16980TIP3    H272356   2.357   1.569   4.428 -1.5701  0.9481 -1.0872
16981TIP3   OH272357   3.206   0.559   4.535 -0.9690  0.0406 -0.4799
16981TIP3    H172358   3.153   0.605   4.469 -0.0321 -0.9107 -1.9534
16981TIP3    H272359   3.170   0.470   4.537 -2.3690  0.5747  1.9063
16982TIP3   OH272360   1.430   3.511  14.140 -0.9439 -0.3121 -0.5620
16982TIP3    H172361   1.525   3.508  14.130 -0.8228 -0.0374  0.3651
16982TIP3    H272362   1.400   3.426  14.109 -0.3657 -0.4963 -0.6305
16983TIP3   OH272363   5.495   5.848   5.780 -0.2269 -0.2174  0.0885
16983TIP3    H172364   5.399   5.857   5.777 -0.5513 -2.7804  0.2881
16983TIP3    H272365   5.524   5.870   5.692 -0.8060  1.9508  0.3891
16984TIP3   OH272366   3.569   5.011   2.330  0.3202  0.1839  0.3183
16984TIP3    H172367   3.535   5.077   2.390 -1.2450  1.5160 -1.8712
16984TIP3    H272368   3.649   5.050   2.294  0.0219  0.4037 -0.1179
16985TIP3   OH272369   3.973   6.229  17.320 -0.1190  0.1072 -0.1338
16985TIP3    H172370   4.028   6.166  17.366  0.8027  0.7355 -0.3682
16985TIP3    H272371   3.962   6.301  17.382  1.1239  0.9567 -0.8528
16986TIP3   OH272372   3.314   1.657  15.603  0.7464 -0.0966  0.4802
16986TIP3    H172373   3.258   1.709  15.660  0.8052  0.2229  0.2506
16986TIP3    H272374   3.311   1.569  15.640 -1.4830 -0.5692 -0.6470
16987TIP3   OH272375   4.078   1.535  17.105  0.1410  0.1216  0.3292
16987TIP3    H172376   4.092   1.475  17.032  1.7087  0.3910  0.3805
16987TIP3    H272377   4.118   1.617  17.076  2.7385 -0.3410  2.2747
16988TIP3   OH272378   2.106   0.632   4.123  0.3407  0.2519  0.5025
16988TIP3    H172379   2.109   0.548   4.169 -0.6750  0.5508  1.1640
16988TIP3    H272380   2.197   0.652   4.102  0.5343 -1.3530 -0.3091
16989TIP3   OH272381   4.183   2.476   1.428  0.7472 -0.0911 -0.5748
16989TIP3    H172382   4.231   2.408   1.379 -1.1137 -0.8751 -1.4021
16989TIP3    H272383   4.224   2.558   1.401  1.0424 -0.6626 -1.9769
16990TIP3   OH272384   2.317   0.862  11.872 -0.0171 -0.2676  0.0435
16990TIP3    H172385   2.277   0.801  11.810  0.0585 -0.1532 -0.1179
16990TIP3    H272386   2.408   0.834  11.878 -0.3287 -1.1311  1.1446
16991TIP3   OH272387   5.135   2.070  13.735 -0.0584  0.2342  0.2451
16991TIP3    H172388   5.181   2.141  13.780  1.5440 -0.6158  0.0320
16991TIP3    H272389   5.159   2.080  13.643  1.6211 -1.5191  0.4126
16992TIP3   OH272390   4.980   0.118   5.311  0.0473 -0.3445 -0.0483
16992TIP3    H172391   4.907   0.071   5.272 -0.3502 -0.9739  1.3903
16992TIP3    H272392   5.050   0.053   5.318  0.6639  0.1717 -1.1254
16993TIP3   OH272393   3.747   5.186  12.290 -0.0559 -0.1932  0.2837
16993TIP3    H172394   3.711   5.257  12.343  0.4633 -1.3736  2.3465
16993TIP3    H272395   3.697   5.109  12.316 -0.0039 -0.7781 -1.2368
16994TIP3   OH272396   5.816   3.012   0.423  0.2107 -0.1349  0.3289
16994TIP3    H172397   5.902   3.045   0.397  1.3218 -2.0621  1.3821
16994TIP3    H272398   5.797   2.943   0.359 -0.2401 -0.2147  0.5467
16995TIP3   OH272399   4.839   5.123  13.641  0.1851 -0.3020 -0.6836
16995TIP3    H172400   4.807   5.192  13.699 -1.0665 -0.3825 -1.2499
16995TIP3    H272401   4.934   5.130  13.646  0.1222 -0.4964  1.5935
16996TIP3   OH272402   5.849   3.205   1.628  0.6843  0.2668  0.8894
16996TIP3    H172403   5.793   3.282   1.624 -2.2335 -1.7530 -2.4749
16996TIP3    H272404   5.806   3.148   1.692  0.5120 -0.1336  0.4235
16997TIP3   OH272405   2.058   1.775  13.867  0.0135 -0.1295  0.4533
16997TIP3    H172406   2.101   1.861  13.864  0.4987 -0.3344  1.1606
16997TIP3    H272407   2.090   1.736  13.949 -0.4620 -0.8477  0.3002
16998TIP3   OH272408   2.851   1.392  12.887  0.3326 -0.1228  0.3420
16998TIP3    H172409   2.906   1.322  12.922 -0.7998 -0.7459  0.9237
16998TIP3    H272410   2.824   1.441  12.965 -0.4756 -0.2314  0.1383
16999TIP3   OH272411   1.312   5.226  15.448 -0.2178 -0.2559 -0.1010
16999TIP3    H172412   1.217   5.236  15.453 -0.4512 -1.9076 -0.7188
16999TIP3    H272413   1.327   5.133  15.466  1.3916  0.2070  1.2156
17000TIP3   OH272414   1.307   1.455  15.612 -0.1492 -0.4864 -0.0901
17000TIP3    H172415   1.394   1.463  15.652  0.4271 -1.1747 -1.1477
17000TIP3    H272416   1.251   1.425  15.683  0.6426 -0.7656  0.4355
17001TIP3   OH272417   6.616   5.968  15.929  0.0632  0.0705 -0.2813
17001TIP3    H172418   6.644   5.957  15.838 -1.5156  0.8676 -0.8988
17001TIP3    H272419   6.526   5.937  15.930  0.5319 -1.3933  1.3941
17002TIP3   OH272420   2.330   6.076   5.423  0.4892 -0.2230 -0.0477
17002TIP3    H172421   2.398   6.115   5.369  0.3345 -0.2610 -0.2708
17002TIP3    H272422   2.268   6.147   5.438  1.0118  0.0505  0.8826
17003TIP3   OH272423   2.323   6.468  11.391  0.3432 -0.6370  0.6569
17003TIP3    H172424   2.272   6.397  11.430 -0.9554 -0.0733  0.0424
17003TIP3    H272425   2.361   6.430  11.311 -0.3349 -0.6435  0.3367
17004TIP3   OH272426   3.641   2.429  15.601  0.1116  0.1298  0.1682
17004TIP3    H172427   3.595   2.430  15.685 -0.8291 -2.5947 -0.2016
17004TIP3    H272428   3.725   2.387  15.622 -0.6439 -1.7638 -0.4041
17005TIP3   OH272429   2.518   6.047  15.345  1.0252  0.4703  0.2614
17005TIP3    H172430   2.484   5.987  15.411 -0.8760  0.7907 -0.3546
17005TIP3    H272431   2.549   6.122  15.395 -0.2705  0.6543  0.8327
17006TIP3   OH272432   1.336   6.168  16.390 -0.4667  0.1946  0.2608
17006TIP3    H172433   1.415   6.209  16.355  0.3262 -0.3908  1.3028
17006TIP3    H272434   1.304   6.113  16.318  0.2369  0.2117 -0.0814
17007TIP3   OH272435   4.569   5.332  15.101  0.5773  0.2652  0.3724
17007TIP3    H172436   4.521   5.322  15.018 -0.5174  2.2285  0.7038
17007TIP3    H272437   4.514   5.287  15.166  0.8411 -0.2678  0.2293
17008TIP3   OH272438   4.905   6.147   3.510  0.2787 -0.3432  0.0366
17008TIP3    H172439   4.898   6.072   3.452 -3.4394 -1.7600  1.9700
17008TIP3    H272440   4.842   6.210   3.475  1.5003  0.8383 -0.1095
17009TIP3   OH272441   1.535   5.066  16.596  0.5660 -0.3091 -0.0100
17009TIP3    H172442   1.592   5.077  16.520  1.9698 -2.5820  0.6259
17009TIP3    H272443   1.588   5.093  16.670 -0.2868  0.4716  0.3392
17010TIP3   OH272444   1.507   5.790  15.535 -0.7638 -0.2547 -0.0065
17010TIP3    H172445   1.548   5.860  15.586  1.8770 -0.2561 -1.8972
17010TIP3    H272446   1.424   5.827  15.506 -0.6033  1.1078  1.1317
17011TIP3   OH272447   5.585   0.681  13.411  0.8636  0.0450 -0.1376
17011TIP3    H172448   5.625   0.767  13.397  0.1307  0.4525  0.2517
17011TIP3    H272449   5.531   0.692  13.489 -0.1279 -0.4643 -0.7377
17012TIP3   OH272450   6.186   6.152   3.206 -0.0862 -0.0136 -0.1734
17012TIP3    H172451   6.105   6.182   3.165 -2.0053 -0.7635  2.7648
17012TIP3    H272452   6.185   6.057   3.195 -1.0350 -0.3331  1.9985
17013TIP3   OH272453   1.909   5.128  12.871  0.3546  0.3422  0.8127
17013TIP3    H172454   1.860   5.055  12.910  0.8982 -0.5824 -0.1715
17013TIP3    H272455   1.871   5.138  12.784  1.6524 -0.1640  0.1609
17014TIP3   OH272456   1.416   5.103   1.063  0.3061 -0.1969 -0.2370
17014TIP3    H172457   1.367   5.056   1.131  1.2451 -0.1281  0.5011
17014TIP3    H272458   1.504   5.067   1.068  0.7166  0.7443 -0.5233
17015TIP3   OH272459   1.468   2.670  13.230 -0.3432 -0.1279 -0.9075
17015TIP3    H172460   1.438   2.602  13.169  1.4738 -1.3264 -0.5462
17015TIP3    H272461   1.504   2.621  13.304 -1.1896  1.2911  0.5017
17016TIP3   OH272462   1.260   0.608  16.247  0.3293  0.2520  0.2263
17016TIP3    H172463   1.224   0.690  16.213 -0.6724 -0.7523 -1.2805
17016TIP3    H272464   1.314   0.574  16.175 -1.8492 -1.9484 -0.5101
17017TIP3   OH272465   6.184   5.457  14.688 -0.6028  0.2381 -0.5888
17017TIP3    H172466   6.193   5.361  14.685 -0.3648  0.2561 -0.5086
17017TIP3    H272467   6.258   5.489  14.636 -0.9271  0.3700 -0.9734
17018TIP3   OH272468   5.676   3.664  11.279  0.1052  0.3177 -0.0621
17018TIP3    H172469   5.588   3.701  11.277 -0.2939 -0.5806  0.4687
17018TIP3    H272470   5.696   3.646  11.187 -0.2473  0.5551 -0.1879
17019TIP3   OH272471   0.555   2.803  13.209  0.5143  0.2844  0.1246
17019TIP3    H172472   0.526   2.801  13.118 -0.4360  0.6684  0.4040
17019TIP3    H272473   0.569   2.896  13.228 -1.1075  0.4117  0.8960
17020TIP3   OH272474   5.981   3.905  17.266  0.3351  0.6279  0.4471
17020TIP3    H172475   6.074   3.890  17.282 -0.0447 -2.0917  0.6195
17020TIP3    H272476   5.961   3.986  17.314  2.5262  1.1432  0.5839
17021TIP3   OH272477   6.648   3.818   6.217 -0.0178 -0.2057  0.4292
17021TIP3    H172478   6.659   3.735   6.262  0.2198 -0.3561  0.1067
17021TIP3    H272479   6.613   3.878   6.283 -1.1517 -0.8204  0.4058
17022TIP3   OH272480   0.522   5.837  11.340  0.1413  0.4702 -0.4432
17022TIP3    H172481   0.536   5.773  11.270 -0.8521  1.1898 -1.3325
17022TIP3    H272482   0.578   5.911  11.317  0.9943  0.1128  0.3796
17023TIP3   OH272483   5.442   4.020  14.232 -0.2131 -0.2979 -0.1799
17023TIP3    H172484   5.517   4.037  14.176 -0.7102  0.3743 -0.6572
17023TIP3    H272485   5.474   4.033  14.321  0.8252 -2.2293 -0.2093
17024TIP3   OH272486   2.678   5.184  11.394  0.0279  0.2985  0.1423
17024TIP3    H172487   2.681   5.174  11.299  1.1466  1.4760  0.0204
17024TIP3    H272488   2.726   5.265  11.411 -0.1836  0.1287  1.7159
17025TIP3   OH272489   0.272   5.677   5.795  0.5608 -0.1211  0.1036
17025TIP3    H172490   0.335   5.645   5.859  0.0298 -1.9726 -0.2578
17025TIP3    H272491   0.231   5.599   5.759 -0.5750  0.9547 -1.0762
17026TIP3   OH272492   6.524   1.108  13.844  0.1996 -0.0108 -0.1938
17026TIP3    H172493   6.512   1.199  13.817  0.5261  0.5826  1.5089
17026TIP3    H272494   6.563   1.065  13.768 -1.5247  0.8421 -1.6431
17027TIP3   OH272495   2.810   0.846  13.699  0.1375 -0.2379 -0.1749
17027TIP3    H172496   2.771   0.795  13.628  0.1135  0.8065 -0.9369
17027TIP3    H272497   2.804   0.937  13.669  0.8203  0.1566  0.8361
17028TIP3   OH272498   6.389   3.023  15.625  0.1181 -0.3365 -0.4101
17028TIP3    H172499   6.464   3.068  15.587 -1.0206  0.9683 -1.2302
17028TIP3    H272500   6.405   3.023  15.719  0.4193  1.3460 -0.4300
17029TIP3   OH272501   4.463   3.659   3.490 -0.1051  0.0458  0.2155
17029TIP3    H172502   4.398   3.725   3.514 -0.6612 -0.3016 -0.3150
17029TIP3    H272503   4.544   3.690   3.530 -0.0267  1.7870 -1.1490
17030TIP3   OH272504   3.817   2.896   0.581  0.0992  0.0639  0.0824
17030TIP3    H172505   3.766   2.948   0.519 -0.3308  0.5597  0.8338
17030TIP3    H272506   3.754   2.833   0.617  0.3315 -0.1765  0.0774
17031TIP3   OH272507   4.994   4.048   3.508  0.0653  0.4363  0.0551
17031TIP3    H172508   5.050   4.095   3.446  0.3977 -0.5999 -0.4451
17031TIP3    H272509   4.905   4.071   3.481  0.2260  1.4776  0.3734
17032TIP3   OH272510   2.298   5.165   1.996 -0.0231  0.3126  0.4248
17032TIP3    H172511   2.313   5.147   2.089  1.0387  0.5796  0.3141
17032TIP3    H272512   2.212   5.128   1.978  0.5476 -1.4077  1.0792
17033TIP3   OH272513   5.721   2.698  12.642  0.4170  0.1020 -0.5379
17033TIP3    H172514   5.799   2.740  12.606 -0.2953  0.5858 -1.5976
17033TIP3    H272515   5.742   2.605  12.645  1.0120  0.2217 -0.9048
17034TIP3   OH272516   5.248   2.693  15.255  0.1726  0.3171  0.6246
17034TIP3    H172517   5.299   2.751  15.198 -0.4598  0.3842  0.1104
17034TIP3    H272518   5.236   2.743  15.335 -0.1828  0.8150  0.2655
17035TIP3   OH272519   4.438   3.047  15.045  0.3322  0.7089  0.0745
17035TIP3    H172520   4.518   3.078  15.002  0.3683 -0.9460 -1.1132
17035TIP3    H272521   4.407   2.975  14.991 -1.3203  0.5313  1.1815
17036TIP3   OH272522   1.933   0.070  11.028 -0.4834 -0.4203 -0.2268
17036TIP3    H172523   1.924  -0.024  11.045 -0.2339 -0.5856 -0.9892
17036TIP3    H272524   2.017   0.093  11.066  0.2625 -0.8760 -1.5399
17037TIP3   OH272525   0.432   4.898   4.259  0.4977  0.2886  0.1033
17037TIP3    H172526   0.491   4.918   4.187  0.2094  1.2998  0.1186
17037TIP3    H272527   0.344   4.903   4.221  0.2798  1.9673  0.7241
17038TIP3   OH272528   4.833   3.543  15.913 -0.0790  0.2752  0.1121
17038TIP3    H172529   4.776   3.588  15.976 -0.1536  1.1454 -0.5612
17038TIP3    H272530   4.901   3.606  15.893  0.6669 -0.4655  0.2760
17039TIP3   OH272531   0.664   0.166  14.271 -0.4947 -0.0190  0.0593
17039TIP3    H172532   0.717   0.244  14.291 -1.0569  0.1683  0.8820
17039TIP3    H272533   0.727   0.102  14.237  0.0338  0.6665 -0.2767
17040TIP3   OH272534   6.745   5.598   3.061  0.0979 -0.1596 -0.3811
17040TIP3    H172535   6.818   5.546   3.095  0.8099  0.2894 -1.1947
17040TIP3    H272536   6.786   5.674   3.021 -0.9089  0.8925  0.5075
17041TIP3   OH272537   3.025   4.838  10.586  0.0483  0.1032  0.1386
17041TIP3    H172538   3.087   4.775  10.623 -0.2879  1.4912  3.4551
17041TIP3    H272539   3.064   4.863  10.502  2.5889 -1.0593  0.8686
17042TIP3   OH272540   2.513   3.917  15.901  0.3721  0.3420 -0.0670
17042TIP3    H172541   2.559   3.981  15.956  0.5373  1.7923 -1.7970
17042TIP3    H272542   2.426   3.911  15.939  1.1343 -0.4472  1.6782
17043TIP3   OH272543   0.085   4.462   5.336  0.1823  0.2582  0.3539
17043TIP3    H172544   0.026   4.395   5.369  0.9659 -0.2626  0.7156
17043TIP3    H272545   0.173   4.424   5.343  0.6089  1.1725  0.2163
17044TIP3   OH272546   2.291   2.267   4.628 -0.9847  0.0453  0.1483
17044TIP3    H172547   2.307   2.252   4.721 -1.9249 -1.0532  0.1363
17044TIP3    H272548   2.379   2.283   4.592 -0.4909 -0.5943  1.0229
17045TIP3   OH272549   4.730   0.842  14.399  0.1695 -0.1321 -0.0371
17045TIP3    H172550   4.805   0.783  14.404 -1.1997 -1.9753 -0.1993
17045TIP3    H272551   4.656   0.785  14.380 -1.5020  1.4691  1.3467
17046TIP3   OH272552   0.075   3.219   1.886  0.6378 -0.3156 -0.1374
17046TIP3    H172553   0.066   3.175   1.970  1.4879 -1.8637 -0.7979
17046TIP3    H272554   0.164   3.196   1.857 -0.1873 -1.2188 -2.1702
17047TIP3   OH272555   6.164   5.740   0.983 -0.2989 -0.1284  0.1281
17047TIP3    H172556   6.115   5.664   1.016 -1.1327 -0.7644 -2.3414
17047TIP3    H272557   6.236   5.702   0.933 -0.2831  0.7197 -0.5102
17048TIP3   OH272558   0.660   2.422  15.009  0.1515  0.6845 -0.3571
17048TIP3    H172559   0.593   2.364  14.974  0.5339 -0.3990  0.6690
17048TIP3    H272560   0.705   2.371  15.076  1.1091  1.8507 -0.0617
17049TIP3   OH272561   2.171   1.787  12.001  0.3043  0.5000 -0.2992
17049TIP3    H172562   2.122   1.757  11.923 -1.0942  1.8675  0.0067
17049TIP3    H272563   2.181   1.708  12.054  3.0313 -0.9342 -2.6770
17050TIP3   OH272564   1.699   4.568  11.774 -0.4329 -0.3379 -0.7746
17050TIP3    H172565   1.698   4.656  11.735  3.5285 -0.6857 -2.0772
17050TIP3    H272566   1.654   4.579  11.858  0.9504  3.2584 -0.3279
17051TIP3   OH272567   3.821   2.205   2.291 -0.2077  0.6987 -0.1555
17051TIP3    H172568   3.752   2.168   2.236 -0.9912 -0.0246  1.2581
17051TIP3    H272569   3.782   2.284   2.329 -0.0941  0.5439  0.2871
17052TIP3   OH272570   6.299   5.909  14.624  0.2258  0.3985  0.3807
17052TIP3    H172571   6.394   5.916  14.618  0.2435  0.5758  0.8618
17052TIP3    H272572   6.271   5.886  14.535  0.8016 -0.6867  0.4583
17053TIP3   OH272573   5.903   5.257   5.742 -0.0383  0.0538 -0.0109
17053TIP3    H172574   5.896   5.162   5.751  1.2141  0.0621  1.6416
17053TIP3    H272575   5.857   5.291   5.819  1.1874  0.6829  0.4669
17054TIP3   OH272576   5.239   4.583  16.057  0.5440 -0.0447  0.3150
17054TIP3    H172577   5.175   4.528  16.012 -0.9072  1.7839  0.0380
17054TIP3    H272578   5.220   4.571  16.150  0.6190 -0.4456  0.2800
17055TIP3   OH272579   6.331   0.783  12.696 -0.6536  0.1239 -0.0837
17055TIP3    H172580   6.269   0.829  12.753 -1.9183 -0.3107 -1.0684
17055TIP3    H272581   6.350   0.701  12.743 -1.4690 -0.1075 -0.1466
17056TIP3   OH272582   2.138   6.315  15.871 -0.4830 -0.3826 -0.1495
17056TIP3    H172583   2.110   6.275  15.953  0.6339  0.4086  0.6356
17056TIP3    H272584   2.228   6.344  15.887 -0.7212  1.0485 -1.2001
17057TIP3   OH272585   5.978   6.307  14.747 -0.5175  0.6626  0.3387
17057TIP3    H172586   5.912   6.351  14.801 -1.9849  1.8848 -2.2841
17057TIP3    H272587   6.053   6.367  14.746 -0.6652  0.8517  0.6089
17058TIP3   OH272588   3.014   2.306  16.018 -0.1591 -0.8455  0.3158
17058TIP3    H172589   3.022   2.220  16.057 -0.3336  0.1734  2.7891
17058TIP3    H272590   2.921   2.329  16.028 -0.1588 -0.4345 -0.4982
17059TIP3   OH272591   1.564   6.219  16.187  0.1032 -0.1612 -0.2964
17059TIP3    H172592   1.636   6.163  16.158 -0.0732 -0.3066 -0.4558
17059TIP3    H272593   1.602   6.272  16.258 -0.3346 -2.0515  1.4391
17060TIP3   OH272594   6.591   6.065   4.508  0.1817  0.2141 -0.1168
17060TIP3    H172595   6.513   6.083   4.456  0.4675 -2.5574 -1.6999
17060TIP3    H272596   6.567   5.990   4.563  0.9174  1.0579  1.4263
17061TIP3   OH272597   3.910   1.033   5.594 -0.0936 -0.3756  0.3165
17061TIP3    H172598   3.820   1.004   5.579 -0.5003  0.3356  1.2797
17061TIP3    H272599   3.947   1.042   5.507 -1.1605 -0.0534 -0.1230
17062TIP3   OH272600   6.484   5.777   4.498  0.2197  0.3985 -0.4128
17062TIP3    H172601   6.535   5.755   4.576 -0.9913  1.0897  0.6123
17062TIP3    H272602   6.539   5.751   4.425  1.8306  0.6951  0.6608
17063TIP3   OH272603   1.205   4.260  13.700 -0.2800  0.2957 -0.1225
17063TIP3    H172604   1.207   4.328  13.633 -0.7509  0.6884  0.2466
17063TIP3    H272605   1.188   4.308  13.781 -0.1486 -0.2171  0.2134
17064TIP3   OH272606   6.110   0.791  12.860 -0.2524  0.1735 -0.3652
17064TIP3    H172607   6.052   0.731  12.906 -1.9466  2.4800  0.6702
17064TIP3    H272608   6.171   0.822  12.927 -0.8878  1.3497 -0.3067
17065TIP3   OH272609   5.690   2.660  11.111 -0.4363 -0.1026  0.0027
17065TIP3    H172610   5.752   2.730  11.090 -0.4374  0.2597  1.1479
17065TIP3    H272611   5.610   2.707  11.136 -1.1404 -0.5587 -1.2890
17066TIP3   OH272612   5.402   1.658  15.395 -0.2252 -0.3409 -0.3155
17066TIP3    H172613   5.387   1.588  15.331 -0.9832 -1.9529  1.5030
17066TIP3    H272614   5.315   1.680  15.427  0.1972 -0.3160  0.8664
17067TIP3   OH272615   3.866   4.893   5.824 -0.0903 -0.1095 -0.0676
17067TIP3    H172616   3.844   4.845   5.904 -0.6441 -0.3107 -0.3405
17067TIP3    H272617   3.923   4.834   5.775  1.3687  0.5317  0.7817
17068TIP3   OH272618   3.680   1.222  15.630 -0.1424  0.1060  0.3998
17068TIP3    H172619   3.664   1.248  15.721 -0.6925  1.3555 -0.0445
17068TIP3    H272620   3.763   1.263  15.608 -1.7620  2.9985 -0.8088
17069TIP3   OH272621   0.708   5.015  16.912  0.1400  0.1360  0.1583
17069TIP3    H172622   0.660   4.935  16.934 -0.2827 -0.0622 -1.4114
17069TIP3    H272623   0.671   5.044  16.829  2.1701  0.4188 -0.7096
17070TIP3   OH272624   4.154   6.489   5.863  0.1234  0.0796 -0.0121
17070TIP3    H172625   4.211   6.566   5.864  0.6871 -0.3024  1.7705
17070TIP3    H272626   4.091   6.506   5.794  0.9453  1.6167 -0.4218
17071TIP3   OH272627   2.949   2.667   6.445  0.1212  1.1734 -0.6057
17071TIP3    H172628   2.943   2.752   6.488  0.1955  1.4726 -1.1673
17071TIP3    H272629   2.863   2.653   6.406 -0.0268  0.7839 -0.1377
17072TIP3   OH272630   5.938   2.371  17.194 -0.7396 -0.1441 -0.1948
17072TIP3    H172631   5.927   2.345  17.103 -0.2707 -2.0834  0.2544
17072TIP3    H272632   5.871   2.439  17.208 -1.5110 -0.5543 -1.6936
17073TIP3   OH272633   5.415   4.964   2.295 -0.3741  0.2402 -0.0333
17073TIP3    H172634   5.323   4.955   2.268 -0.8554 -1.4441  1.9026
17073TIP3    H272635   5.430   5.059   2.299 -1.5013  0.5493 -1.9355
17074TIP3   OH272636   0.190   1.576   1.683 -0.0347  0.2141  0.1088
17074TIP3    H172637   0.199   1.640   1.613  0.5116 -0.7005 -0.6757
17074TIP3    H272638   0.102   1.540   1.671  0.0680  0.0401 -0.1255
17075TIP3   OH272639   6.191   2.754  13.635 -0.5142  0.0216  0.0049
17075TIP3    H172640   6.134   2.764  13.558 -0.6738 -0.8326  0.0031
17075TIP3    H272641   6.148   2.806  13.703  0.0438  1.4368 -0.6811
17076TIP3   OH272642   0.548   2.233   2.006  0.1311 -0.4840  0.5637
17076TIP3    H172643   0.524   2.312   2.055  1.5217  0.2532  0.1097
17076TIP3    H272644   0.475   2.220   1.946  0.0035  0.6311  0.4477
17077TIP3   OH272645   2.841   1.136   5.107  0.4284 -0.0619 -0.1204
17077TIP3    H172646   2.773   1.170   5.049  1.4293  0.8008 -0.8204
17077TIP3    H272647   2.905   1.207   5.114  0.6280 -0.3567  1.5936
17078TIP3   OH272648   6.683   5.280   1.818 -0.2552  0.2086 -0.6415
17078TIP3    H172649   6.708   5.347   1.754 -0.4839  1.3345  0.3884
17078TIP3    H272650   6.729   5.201   1.790  0.5793  0.9751 -1.5143
17079TIP3   OH272651   5.697   3.295   5.996 -0.0212  0.2094 -0.5008
17079TIP3    H172652   5.635   3.310   6.068  2.4150  1.2355  1.5707
17079TIP3    H272653   5.714   3.201   5.998  0.4231  0.2884  0.7166
17080TIP3   OH272654   1.254   4.689  13.901  0.7297 -0.0443  0.7141
17080TIP3    H172655   1.263   4.709  13.807  1.3069 -0.1030  0.7555
17080TIP3    H272656   1.175   4.634  13.906  0.6119  0.0812  0.2824
17081TIP3   OH272657   4.415   5.531   0.638  0.3372  0.2899 -0.2028
17081TIP3    H172658   4.328   5.516   0.675  0.3362  0.8080  0.0076
17081TIP3    H272659   4.472   5.546   0.713  0.6480 -0.2288 -0.3309
17082TIP3   OH272660   3.204   3.768   5.747  0.0580 -0.4889 -0.0027
17082TIP3    H172661   3.118   3.794   5.714  1.2274  2.5733 -0.9097
17082TIP3    H272662   3.193   3.766   5.842 -1.2205 -1.1046 -0.1334
17083TIP3   OH272663   3.779   4.743  10.919 -0.3690 -0.1504 -0.1814
17083TIP3    H172664   3.742   4.824  10.883 -1.0533 -1.3612 -2.3915
17083TIP3    H272665   3.801   4.691  10.842  1.7762 -1.3546  1.1487
17084TIP3   OH272666   4.168   2.483  12.344  0.1175  0.3640  0.0661
17084TIP3    H172667   4.077   2.510  12.333 -0.0419  0.3633  1.1967
17084TIP3    H272668   4.163   2.396  12.383  0.5899  0.3802  0.1788
17085TIP3   OH272669   0.636   3.293  15.473  0.3372  0.8648  0.2939
17085TIP3    H172670   0.550   3.333  15.465 -0.2247 -0.5156 -1.3538
17085TIP3    H272671   0.684   3.323  15.395  0.0512 -1.1463 -0.7407
17086TIP3   OH272672   1.892   1.666   5.373 -0.2371  0.5033  0.4370
17086TIP3    H172673   1.970   1.657   5.319 -1.3324 -0.9631 -1.0046
17086TIP3    H272674   1.834   1.596   5.343 -2.1685  1.6313  1.3534
17087TIP3   OH272675   2.094   4.432  11.335 -0.1277  0.0103  0.0827
17087TIP3    H172676   2.149   4.446  11.412  0.2998  1.9359 -0.5289
17087TIP3    H272677   2.132   4.356  11.291  1.8722  1.0758 -0.1385
17088TIP3   OH272678   4.796   5.443  13.550  0.1074  0.0148 -0.5186
17088TIP3    H172679   4.842   5.428  13.632  0.8764  2.1861 -0.4984
17088TIP3    H272680   4.713   5.485  13.576 -0.0432 -0.1070 -0.7987
17089TIP3   OH272681   5.609   0.576  14.311 -0.2082 -0.7427 -0.2021
17089TIP3    H172682   5.679   0.533  14.261 -1.5406 -1.3700 -1.5891
17089TIP3    H272683   5.631   0.669  14.307  0.7912 -0.9666 -0.2007
17090TIP3   OH272684   0.114   0.715  12.852 -0.2685 -0.6792  0.0650
17090TIP3    H172685   0.164   0.635  12.834 -1.1961 -1.3705  0.5171
17090TIP3    H272686   0.085   0.745  12.766 -1.6929 -2.0058  0.0522
17091TIP3   OH272687   0.971   3.844   1.927  0.7142 -0.1520  0.4774
17091TIP3    H172688   0.943   3.768   1.876  0.4337  0.8678 -0.9258
17091TIP3    H272689   0.902   3.908   1.914  0.7944  0.2605  1.9058
17092TIP3   OH272690   4.647   1.472   4.832 -0.1594 -0.0362  0.0208
17092TIP3    H172691   4.556   1.502   4.826 -0.2746 -0.4427 -0.2183
17092TIP3    H272692   4.669   1.484   4.925 -1.1285 -1.8719  0.5362
17093TIP3   OH272693   2.162   2.460   1.213  0.3979 -0.0872 -0.2007
17093TIP3    H172694   2.221   2.400   1.168  0.7496 -0.2551  0.4771
17093TIP3    H272695   2.220   2.526   1.252  0.0003  0.9471 -1.2795
17094TIP3   OH272696   3.857   2.278  16.818 -0.4075  0.2020 -0.1085
17094TIP3    H172697   3.879   2.248  16.730 -0.6057  0.4172 -0.2341
17094TIP3    H272698   3.875   2.372  16.817 -0.8057  0.2815 -0.0469
17095TIP3   OH272699   6.194   6.709   4.857  0.3917  0.3468  0.2537
17095TIP3    H172700   6.101   6.709   4.834  0.1956  1.1772  1.0287
17095TIP3    H272701   6.220   6.801   4.853  1.1632  0.1295  0.1394
17096TIP3   OH272702   3.057   0.611   4.229 -0.5589  0.7090 -0.1546
17096TIP3    H172703   3.089   0.522   4.244  1.2578  1.5873  1.7598
17096TIP3    H272704   2.963   0.606   4.247 -0.7251 -0.9958 -1.1867
17097TIP3   OH272705   3.870   4.859  17.016 -0.1453 -0.5947 -0.0745
17097TIP3    H172706   3.844   4.788  16.957  0.4995 -0.5244 -0.4527
17097TIP3    H272707   3.908   4.925  16.958  1.5891 -1.0187  0.5136
17098TIP3   OH272708   0.437   2.716   3.390  0.0557  0.1876 -0.0904
17098TIP3    H172709   0.470   2.635   3.353  0.5488 -0.2838  1.3020
17098TIP3    H272710   0.514   2.760   3.427 -0.2623  1.1034 -0.4761
17099TIP3   OH272711   5.948   4.621   1.416  0.1241 -0.2626 -0.1303
17099TIP3    H172712   5.872   4.617   1.359  0.3995  3.0385 -0.9204
17099TIP3    H272713   5.911   4.635   1.503 -0.2707  2.6476 -0.6832
17100TIP3   OH272714   0.946   1.157  15.942  0.6547 -0.1173 -0.1490
17100TIP3    H172715   0.866   1.200  15.974  0.2862 -0.1053 -1.0597
17100TIP3    H272716   0.938   1.160  15.847  2.6093  1.5141 -0.3288
17101TIP3   OH272717   4.774   0.112  13.177 -0.0123  0.0248 -0.4747
17101TIP3    H172718   4.855   0.113  13.125  0.1721  1.1380 -0.2034
17101TIP3    H272719   4.718   0.049  13.133  1.2360 -1.2479 -0.3060
17102TIP3   OH272720   2.183   5.018  11.499 -0.3045  0.7538 -0.6897
17102TIP3    H172721   2.259   5.074  11.484  0.9206 -0.8283 -0.6720
17102TIP3    H272722   2.205   4.969  11.578 -1.2939  0.1729 -0.7620
17103TIP3   OH272723   2.454   5.939  14.514  0.0751  0.3763  0.0663
17103TIP3    H172724   2.462   5.907  14.604  1.9920  0.0260 -0.1872
17103TIP3    H272725   2.537   5.915  14.473 -0.6179  0.8706 -1.6976
17104TIP3   OH272726   6.720   4.817   3.174 -0.0206 -0.3079  0.1592
17104TIP3    H172727   6.754   4.748   3.231 -0.6980  0.1725  1.1740
17104TIP3    H272728   6.715   4.894   3.230  1.7171  0.8715 -1.2235
17105TIP3   OH272729   4.807   4.481   6.190 -0.3850  0.7018 -0.2898
17105TIP3    H172730   4.719   4.497   6.157 -0.8457  0.8004  0.9290
17105TIP3    H272731   4.794   4.452   6.281  0.9204  2.7173  0.5976
17106TIP3   OH272732   0.577   5.513  15.138  0.4510 -0.0565 -0.6562
17106TIP3    H172733   0.575   5.473  15.050  0.2710 -1.8452  0.1056
17106TIP3    H272734   0.548   5.603  15.124 -0.7904 -0.6433 -2.2660
17107TIP3   OH272735   4.243   3.136  16.684  0.3203 -0.3309 -0.2422
17107TIP3    H172736   4.334   3.106  16.681 -0.2047 -2.0448 -0.1418
17107TIP3    H272737   4.216   3.139  16.592  0.3545 -0.1989 -0.2485
17108TIP3   OH272738   0.064   3.704  15.840  0.5373  0.3519  0.0668
17108TIP3    H172739   0.106   3.622  15.866 -0.2936 -0.1078 -0.0095
17108TIP3    H272740   0.027   3.739  15.921 -0.3297 -0.0727 -0.1350
17109TIP3   OH272741   5.722   2.139  15.664  0.3093 -0.7119  0.0227
17109TIP3    H172742   5.631   2.163  15.647  0.7977 -0.3647 -2.4286
17109TIP3    H272743   5.740   2.174  15.752 -2.0813 -1.4022  0.8518
17110TIP3   OH272744   3.545   3.543   1.234 -0.1587 -0.2484  0.3457
17110TIP3    H172745   3.615   3.537   1.169  2.2187  1.4577  2.5434
17110TIP3    H272746   3.549   3.459   1.280  0.4541 -0.1764  0.4387
17111TIP3   OH272747   3.161   3.890   1.196  0.0927  0.2188 -0.4414
17111TIP3    H172748   3.164   3.886   1.101  1.2042 -1.0081 -0.3935
17111TIP3    H272749   3.225   3.824   1.224 -2.1602 -1.4202  1.1538
17112TIP3   OH272750   2.471   1.703   4.373 -0.0130  0.1570 -0.6505
17112TIP3    H172751   2.557   1.721   4.410 -0.0406  0.4041 -0.7051
17112TIP3    H272752   2.442   1.787   4.336 -0.1483  0.0064 -0.8950
17113TIP3   OH272753   5.894   1.455   3.502 -0.0695  0.2584  0.0383
17113TIP3    H172754   5.963   1.522   3.507  1.0993 -1.0039  2.4290
17113TIP3    H272755   5.933   1.384   3.451 -0.6008  0.5745 -0.8348
17114TIP3   OH272756   4.718   2.943  13.781  0.1573 -0.3919  0.2275
17114TIP3    H172757   4.623   2.929  13.785  0.3488 -1.5943  0.8110
17114TIP3    H272758   4.756   2.864  13.819  1.3504  1.4425  3.1313
17115TIP3   OH272759   4.806   6.592   1.827  0.0193 -0.1406 -0.1895
17115TIP3    H172760   4.784   6.607   1.734 -0.7781 -0.7566 -0.1144
17115TIP3    H272761   4.875   6.526   1.825  0.9367  0.7987 -0.3819
17116TIP3   OH272762   0.154   2.350  12.824  0.0396  0.6488 -0.2739
17116TIP3    H172763   0.230   2.347  12.765 -2.0439  0.4361 -3.1529
17116TIP3    H272764   0.132   2.443  12.831 -0.4253  0.5866 -0.8461
17117TIP3   OH272765   1.171   2.930  16.311 -0.5101  0.3756  0.1062
17117TIP3    H172766   1.119   3.006  16.284 -0.5012  0.4280  0.2361
17117TIP3    H272767   1.235   2.919  16.241 -1.0287 -0.0137 -0.3189
17118TIP3   OH272768   3.080   6.618   0.612 -0.2518 -0.2750  0.1144
17118TIP3    H172769   3.042   6.630   0.699 -0.3792  0.7437 -0.0770
17118TIP3    H272770   3.138   6.542   0.622  1.2014  0.9423  1.5978
17119TIP3   OH272771   2.095   3.454   6.107  0.0456  0.0158  0.0163
17119TIP3    H172772   2.014   3.435   6.155  1.6026 -0.1378  2.8066
17119TIP3    H272773   2.117   3.544   6.134  1.5498 -0.4757  0.5052
17120TIP3   OH272774   6.577   5.568   0.204 -0.2522 -0.0075  0.0131
17120TIP3    H172775   6.657   5.536   0.163 -0.7094 -0.8062 -0.2829
17120TIP3    H272776   6.543   5.492   0.252 -1.2734  0.0665 -0.5652
17121TIP3   OH272777   0.026   0.966  12.275 -0.6661 -0.0154  0.1694
17121TIP3    H172778  -0.043   0.900  12.265  0.9633 -1.8253  0.4408
17121TIP3    H272779   0.016   0.997  12.365  0.3279 -2.0320  1.0157
17122TIP3   OH272780   1.947   3.580   3.078 -0.3363  0.0133 -0.3469
17122TIP3    H172781   1.952   3.584   3.173 -0.8920 -3.2108 -0.0886
17122TIP3    H272782   1.963   3.488   3.057  0.8832  0.8105 -3.4761
17123TIP3   OH272783   4.911   1.385   4.410 -0.3090  0.1227  0.0633
17123TIP3    H172784   4.978   1.444   4.442 -0.5309  0.8788 -0.8357
17123TIP3    H272785   4.902   1.406   4.317 -2.8484  1.1230  0.4431
17124TIP3   OH272786   0.387   2.700  16.540  0.3226  0.1536 -0.4601
17124TIP3    H172787   0.298   2.685  16.571  0.3628  1.3174  0.2830
17124TIP3    H272788   0.442   2.673  16.613  0.5130  0.8688 -0.3365
17125TIP3   OH272789   4.195   1.212   2.369 -0.4504 -0.1024 -0.6949
17125TIP3    H172790   4.237   1.179   2.448 -0.6962 -0.1217 -0.5719
17125TIP3    H272791   4.168   1.134   2.321  1.5616 -0.1817 -1.8415
17126TIP3   OH272792   0.892   5.600  15.622 -0.3784 -0.1539 -0.2150
17126TIP3    H172793   0.819   5.643  15.667 -1.8426 -0.9886 -1.6539
17126TIP3    H272794   0.876   5.619  15.529 -0.6013 -3.0035 -0.8361
17127TIP3   OH272795   5.926   3.890   6.485 -0.2852  0.0632 -0.3117
17127TIP3    H172796   5.832   3.895   6.468 -0.3986 -1.1029 -0.0808
17127TIP3    H272797   5.952   3.981   6.502 -1.4879  0.3180  0.2526
17128TIP3   OH272798   0.232   2.561   3.982  0.3299  0.3173  1.0888
17128TIP3    H172799   0.327   2.554   3.971  0.2729  0.2754  0.6415
17128TIP3    H272800   0.197   2.565   3.893 -0.0109  1.3741  1.2637
17129TIP3   OH272801   4.728   1.144   6.482  0.3515  0.6425 -0.1202
17129TIP3    H172802   4.682   1.111   6.559  0.3112 -0.5599 -0.6421
17129TIP3    H272803   4.815   1.167   6.513  0.1891  0.5911  0.3720
17130TIP3   OH272804   1.139   0.019   1.039 -0.2115 -0.8018 -0.0622
17130TIP3    H172805   1.050  -0.007   1.017 -1.0312 -0.4172  2.5005
17130TIP3    H272806   1.158  -0.027   1.121  1.1333  0.7983  0.5784
17131TIP3   OH272807   5.020   3.990  11.492 -0.0872  0.8110 -0.0491
17131TIP3    H172808   4.986   4.079  11.478 -3.1131 -0.3259 -0.7100
17131TIP3    H272809   5.042   3.958  11.405 -2.0122 -0.1109 -0.2470
17132TIP3   OH272810   6.388   1.751  17.218 -0.1661  0.4665 -0.4214
17132TIP3    H172811   6.428   1.803  17.148 -1.0142 -1.2562 -2.3010
17132TIP3    H272812   6.294   1.758  17.202 -0.3199 -2.9551 -1.9331
17133TIP3   OH272813   2.089   5.340  11.982  0.0136  0.3390 -0.4777
17133TIP3    H172814   2.057   5.345  11.892  0.0558  0.2433 -0.4976
17133TIP3    H272815   2.174   5.383  11.980  0.1618  0.0406 -0.5507
17134TIP3   OH272816   4.957   5.667  14.236  0.3660  0.5013  0.7083
17134TIP3    H172817   5.033   5.630  14.281 -0.9275 -0.9197  1.8396
17134TIP3    H272818   4.914   5.721  14.303  1.8571  3.7047 -0.7305
17135TIP3   OH272819   5.432   5.183  12.728  0.5848  0.2934 -0.1309
17135TIP3    H172820   5.452   5.171  12.821 -1.3772  0.2008  0.3113
17135TIP3    H272821   5.432   5.278  12.716  0.4242  0.3193  0.0639
17136TIP3   OH272822   4.626   4.353  12.696  0.1424  0.5779 -0.2139
17136TIP3    H172823   4.571   4.337  12.772 -0.4224  2.7947 -0.0999
17136TIP3    H272824   4.569   4.337  12.621 -0.3958  1.8983 -0.1055
17137TIP3   OH272825   0.707   4.385  15.879  0.2779 -0.0246  0.2710
17137TIP3    H172826   0.682   4.478  15.881  2.2282  0.5620 -0.1654
17137TIP3    H272827   0.699   4.360  15.787 -0.5720 -0.4174  0.4374
17138TIP3   OH272828   3.149   6.729   4.045 -0.2153 -0.1729 -0.5094
17138TIP3    H172829   3.219   6.709   4.107  0.2414 -2.9946 -1.8017
17138TIP3    H272830   3.070   6.693   4.085 -0.6098  1.1483 -0.0257
17139TIP3   OH272831   4.481   0.667  14.426 -0.0097 -0.1153 -0.5135
17139TIP3    H172832   4.541   0.635  14.494 -0.2290 -1.6013 -0.9928
17139TIP3    H272833   4.405   0.609  14.432 -0.4335  0.3324 -1.4185
17140TIP3   OH272834   5.859   5.115  10.630 -0.6438  0.5869  0.0173
17140TIP3    H172835   5.949   5.085  10.616 -0.3507  1.0174  0.8714
17140TIP3    H272836   5.817   5.045  10.680 -1.0291  0.0382 -1.0448
17141TIP3   OH272837   6.480   0.773  17.315  0.1539 -0.1129  0.0886
17141TIP3    H172838   6.508   0.714  17.245 -0.5832  1.2572 -1.4223
17141TIP3    H272839   6.558   0.783  17.370  0.8670 -0.9302 -0.7397
17142TIP3   OH272840   1.653   5.554   0.378 -0.5197 -0.0501 -0.1360
17142TIP3    H172841   1.707   5.540   0.456  1.0739 -2.1775 -1.5063
17142TIP3    H272842   1.563   5.560   0.410  0.1553 -0.2759  1.8863
17143TIP3   OH272843   3.286   4.955  16.415  0.2209  0.0757  0.0558
17143TIP3    H172844   3.208   4.907  16.443 -0.9321  2.3147  0.8829
17143TIP3    H272845   3.283   4.952  16.319 -2.5332  2.4303 -0.0730
17144TIP3   OH272846   0.741   5.824   4.848  0.5976 -0.2887 -0.1468
17144TIP3    H172847   0.698   5.810   4.933 -1.1771  2.0418 -0.5412
17144TIP3    H272848   0.670   5.854   4.791  2.3168  1.2688 -1.5671
17145TIP3   OH272849   0.937   5.623   5.520 -0.1998 -0.3379 -0.3967
17145TIP3    H172850   0.880   5.591   5.589  0.0684 -0.2731 -0.1460
17145TIP3    H272851   1.019   5.645   5.564  0.0291 -0.4525 -0.7603
17146TIP3   OH272852   4.012   3.482   4.255 -0.0858 -0.2514 -0.2963
17146TIP3    H172853   4.007   3.395   4.215  0.5460  0.2770 -1.5794
17146TIP3    H272854   4.089   3.477   4.312 -0.6516 -0.8318  0.4430
17147TIP3   OH272855   1.677   6.080   4.443 -0.0319  0.3192  0.0873
17147TIP3    H172856   1.688   6.084   4.348 -0.2715 -0.4579  0.0137
17147TIP3    H272857   1.765   6.066   4.477 -0.1131 -0.8098 -0.1306
17148TIP3   OH272858   3.799   0.713   2.160  0.1070 -0.1742 -0.3747
17148TIP3    H172859   3.812   0.632   2.110 -0.6033  0.2873 -1.3199
17148TIP3    H272860   3.705   0.728   2.157  0.4051  1.7499 -1.9490
17149TIP3   OH272861   6.680   4.479  16.811 -0.0921 -0.0156 -0.1118
17149TIP3    H172862   6.726   4.548  16.764 -0.8376  0.7317  0.2463
17149TIP3    H272863   6.588   4.494  16.792 -0.2162 -1.7162 -1.1174
17150TIP3   OH272864   5.775   5.569   3.960 -0.2870 -0.0489  0.0459
17150TIP3    H172865   5.785   5.509   3.886  1.4305  0.3379 -0.0780
17150TIP3    H272866   5.851   5.628   3.954 -1.1702  1.2457  0.9787
17151TIP3   OH272867   6.300   5.393   4.801 -0.3135  0.5504  0.0503
17151TIP3    H172868   6.348   5.337   4.863 -0.2366 -0.3874 -0.8281
17151TIP3    H272869   6.301   5.480   4.841 -0.0933  0.0099  1.2676
17152TIP3   OH272870   6.001   0.515   2.522  0.2116  0.2019 -0.0311
17152TIP3    H172871   5.939   0.587   2.536  1.1529  1.2472 -1.1303
17152TIP3    H272872   5.971   0.473   2.442 -0.4118 -0.7412  0.6771
17153TIP3   OH272873   3.384   2.151  13.979 -0.4115 -0.0744  0.6756
17153TIP3    H172874   3.437   2.076  14.005  0.1265 -0.3917 -1.1867
17153TIP3    H272875   3.410   2.221  14.040  1.0626 -0.6489  0.7540
17154TIP3   OH272876   5.096   2.713  14.580  0.2248  0.3086 -0.2105
17154TIP3    H172877   5.158   2.777  14.545  1.5142  0.0155  1.4295
17154TIP3    H272878   5.053   2.758  14.652 -0.1182 -0.0982 -0.1593
17155TIP3   OH272879   6.287   6.248  14.125  0.0626  0.7740  0.5948
17155TIP3    H172880   6.362   6.307  14.121  0.8856 -0.2838 -1.4835
17155TIP3    H272881   6.325   6.160  14.122 -1.2122  0.1889  0.7680
17156TIP3   OH272882   5.602   4.091   0.573  0.2098  0.0995 -0.2425
17156TIP3    H172883   5.575   4.020   0.631  0.1640  0.3090 -0.0054
17156TIP3    H272884   5.693   4.107   0.595  0.3126 -0.1032 -0.5207
17157TIP3   OH272885   2.028   2.063   3.624  0.0065  0.3606 -0.1903
17157TIP3    H172886   1.960   2.065   3.691  0.7423  1.6102  0.5528
17157TIP3    H272887   2.047   1.970   3.612 -0.4373  0.0944  1.0208
17158TIP3   OH272888   1.496   0.162   3.973 -0.1512  0.2857 -0.6953
17158TIP3    H172889   1.592   0.163   3.971 -0.0293 -0.1852  1.6627
17158TIP3    H272890   1.472   0.250   4.001 -0.3849  0.2960 -0.9300
17159TIP3   OH272891   4.916   2.753  15.143  0.0841 -0.0879  0.0283
17159TIP3    H172892   4.987   2.788  15.197 -0.0375 -1.7385  1.3403
17159TIP3    H272893   4.878   2.683  15.195 -2.3467  0.5310 -0.7587
17160TIP3   OH272894   4.035   4.179   4.966 -0.5777 -0.3203 -0.4516
17160TIP3    H172895   3.986   4.096   4.962  0.7903 -1.1459 -0.8479
17160TIP3    H272896   4.118   4.160   4.922  0.7942  0.5424  1.5852
17161TIP3   OH272897   5.982   3.724  13.443  0.0592  0.4093  0.7851
17161TIP3    H172898   5.893   3.709  13.475 -0.2404  2.0179  0.8026
17161TIP3    H272899   5.990   3.820  13.438  0.8718  0.2817 -1.7583
17162TIP3   OH272900   6.174   4.658  12.963  0.5270 -0.3479 -0.4968
17162TIP3    H172901   6.184   4.736  13.018 -0.2978 -0.8529  0.4091
17162TIP3    H272902   6.249   4.603  12.984  0.9011  0.0258 -0.8441
17163TIP3   OH272903   5.695   2.056  16.102  0.7183 -0.5845 -0.5961
17163TIP3    H172904   5.642   2.019  16.032  0.1108 -1.6671  0.4122
17163TIP3    H272905   5.723   2.141  16.068 -1.3573 -0.1338 -1.3163
17164TIP3   OH272906   5.740   2.861   4.694  0.2776 -0.4125 -0.3490
17164TIP3    H172907   5.645   2.865   4.704  0.2149  1.4691 -1.2275
17164TIP3    H272908   5.769   2.796   4.758 -1.4153  0.3485  1.2498
17165TIP3   OH272909   0.836   5.376  11.502 -0.3576  0.3651  0.2904
17165TIP3    H172910   0.890   5.421  11.437  0.1361  0.2692  0.6190
17165TIP3    H272911   0.768   5.439  11.526 -0.0723  0.6881  0.2571
17166TIP3   OH272912   5.565   1.276   6.672  0.3945 -0.3286 -0.3220
17166TIP3    H172913   5.519   1.220   6.734 -0.4763 -0.4959 -1.0874
17166TIP3    H272914   5.497   1.303   6.609  1.6015 -1.9738 -2.4947
17167TIP3   OH272915   1.136   1.961   4.774  0.1114 -0.4704 -0.2821
17167TIP3    H172916   1.109   1.871   4.754  1.2841 -0.6419 -1.2398
17167TIP3    H272917   1.054   2.010   4.778 -0.6145 -1.7336  1.1360
17168TIP3   OH272918   0.749   2.641  12.232  0.5401 -0.2877  0.2020
17168TIP3    H172919   0.654   2.635  12.241  0.6769 -2.6473  0.8400
17168TIP3    H272920   0.763   2.668  12.142 -0.7382 -0.9973 -0.2336
17169TIP3   OH272921   3.876   4.993  11.926 -0.1562  0.8127  0.4951
17169TIP3    H172922   3.884   4.968  11.834 -1.2904  0.9306  0.3581
17169TIP3    H272923   3.924   4.924  11.973  0.1659  0.5834 -0.1507
17170TIP3   OH272924   3.024   2.664  15.295 -0.5239  0.1177  0.0599
17170TIP3    H172925   3.033   2.757  15.316  1.3365  0.1482 -0.6802
17170TIP3    H272926   3.045   2.619  15.377 -0.9242  0.3319  0.2828
17171TIP3   OH272927   5.390   4.822  12.818  0.3106 -0.4041  0.0232
17171TIP3    H172928   5.481   4.838  12.793  0.4489 -0.5061  0.4527
17171TIP3    H272929   5.358   4.759  12.753  0.7630 -0.9190  0.2884
17172TIP3   OH272930   4.214   4.030  14.106 -0.1802  0.0732 -0.5726
17172TIP3    H172931   4.205   4.077  14.023 -0.0547  0.3852 -0.4084
17172TIP3    H272932   4.223   4.099  14.172 -1.2456 -0.1461 -0.1807
17173TIP3   OH272933   6.202   2.568   4.303  0.3088  0.0592  0.1127
17173TIP3    H172934   6.185   2.480   4.336  0.7697 -0.3230 -0.6579
17173TIP3    H272935   6.186   2.625   4.379 -1.5856 -0.5096  0.1958
17174TIP3   OH272936   1.725   2.540  13.962 -0.1900  0.1416 -0.1381
17174TIP3    H172937   1.695   2.463  13.913 -0.5653 -0.5354  1.0903
17174TIP3    H272938   1.707   2.518  14.053  1.5935  0.8401  0.4332
17175TIP3   OH272939   2.790   5.438  11.449  0.1653  0.0656  0.0223
17175TIP3    H172940   2.834   5.523  11.443 -0.4331  0.3654 -0.2029
17175TIP3    H272941   2.703   5.458  11.484 -0.2004 -0.3724 -0.6144
17176TIP3   OH272942   4.460   5.214  10.411  0.2828 -1.1545  0.0048
17176TIP3    H172943   4.541   5.237  10.366  0.3274  0.7645  0.9807
17176TIP3    H272944   4.429   5.135  10.366  2.5025 -1.7452 -0.5939
17177TIP3   OH272945   0.873   1.855  11.267 -0.1743 -0.5605 -0.1785
17177TIP3    H172946   0.845   1.920  11.333 -2.1169 -0.7394 -0.7497
17177TIP3    H272947   0.869   1.771  11.313  3.5828 -0.2954  0.9464
17178TIP3   OH272948   4.906   4.816  13.084 -0.5906 -0.2156 -1.0837
17178TIP3    H172949   4.951   4.900  13.083 -1.0907  0.0529 -1.7706
17178TIP3    H272950   4.813   4.839  13.092 -0.5963 -0.7680  0.8205
17179TIP3   OH272951   6.417   2.344  13.415 -0.3551 -0.3689 -0.0270
17179TIP3    H172952   6.479   2.298  13.471 -0.3511 -0.6279 -0.2388
17179TIP3    H272953   6.351   2.378  13.475 -1.4493 -2.3519 -0.0201
17180TIP3   OH272954   4.084   2.819  17.021 -0.5009 -0.0769  0.4308
17180TIP3    H172955   4.149   2.748  17.019 -0.1573  0.2406 -0.1761
17180TIP3    H272956   4.135   2.898  17.007 -1.2378 -0.0260 -2.7001
17181TIP3   OH272957   0.605   1.882   1.236  0.0990  0.2600  0.0812
17181TIP3    H172958   0.669   1.818   1.203 -0.2954  0.3313 -0.8743
17181TIP3    H272959   0.630   1.898   1.327  1.1250 -0.1073 -0.1289
17182TIP3   OH272960   4.583   2.329   3.628 -0.4142 -0.0755 -0.2160
17182TIP3    H172961   4.620   2.383   3.557  0.8198 -1.1605 -0.4379
17182TIP3    H272962   4.494   2.310   3.599  0.2122 -0.8735 -1.7311
17183TIP3   OH272963   3.830   5.852   3.264 -0.2723 -0.1971  0.5159
17183TIP3    H172964   3.908   5.796   3.266 -0.4341 -0.4399  0.1671
17183TIP3    H272965   3.786   5.835   3.347 -1.2704 -1.9753 -0.3205
17184TIP3   OH272966   5.202   3.312   5.726 -0.0407 -0.2952 -0.6900
17184TIP3    H172967   5.225   3.226   5.761  1.3559 -0.5831 -2.2257
17184TIP3    H272968   5.244   3.375   5.785 -0.6575 -0.6653  0.1538
17185TIP3   OH272969   2.624   3.688   0.849 -0.0580  0.0958  0.3082
17185TIP3    H172970   2.658   3.605   0.815  0.6013 -0.2702  1.7864
17185TIP3    H272971   2.537   3.666   0.883 -0.0053  0.0790  0.4317
17186TIP3   OH272972   2.168   6.355  16.256 -0.1200 -0.1262 -0.5034
17186TIP3    H172973   2.155   6.344  16.350  0.1604 -1.1441 -0.5719
17186TIP3    H272974   2.136   6.273  16.218 -0.1105  0.2245 -1.2816
17187TIP3   OH272975   4.425   4.885  14.003  0.1270  0.2959 -0.1241
17187TIP3    H172976   4.364   4.877  13.929 -0.0848 -0.6384  0.1407
17187TIP3    H272977   4.416   4.976  14.031 -0.8539  0.2774 -0.3432
17188TIP3   OH272978   5.998   3.439   5.183  0.4127  0.6398  0.5483
17188TIP3    H172979   5.986   3.491   5.103 -0.0564  0.5428  0.5496
17188TIP3    H272980   6.089   3.410   5.180 -0.0667 -0.9329 -0.9341
17189TIP3   OH272981   2.928   4.512   0.835 -0.1187 -0.7762 -0.2489
17189TIP3    H172982   2.953   4.504   0.743  1.0766 -0.1673  0.0102
17189TIP3    H272983   3.007   4.491   0.884 -0.1414  0.9567  0.6112
17190TIP3   OH272984   5.786   1.157   1.820 -0.3658  0.5469 -0.1846
17190TIP3    H172985   5.770   1.131   1.911 -0.5071 -0.6643 -0.5365
17190TIP3    H272986   5.865   1.211   1.824 -0.3537  0.4834  0.6542
17191TIP3   OH272987   2.363   6.587   4.132 -0.3222 -0.5221  0.1847
17191TIP3    H172988   2.358   6.494   4.154 -1.7106 -0.4377  0.3166
17191TIP3    H272989   2.284   6.625   4.169 -0.0534  0.6224 -0.3534
17192TIP3   OH272990   6.275   5.829  12.676  1.0250 -0.4288  0.1899
17192TIP3    H172991   6.267   5.889  12.601  0.5605 -1.1642 -0.3705
17192TIP3    H272992   6.279   5.886  12.752  0.6397  0.3233 -0.3372
17193TIP3   OH272993   1.538   1.932   5.958 -0.1344  0.3870 -0.1355
17193TIP3    H172994   1.532   1.934   5.862 -0.8147 -0.4569 -0.1236
17193TIP3    H272995   1.457   1.974   5.988 -2.2604 -3.3445  0.0248
17194TIP3   OH272996   5.571   4.713  11.945  0.6024  0.1618  0.4673
17194TIP3    H172997   5.613   4.787  11.901  0.3131 -0.3683 -0.7628
17194TIP3    H272998   5.639   4.676  12.001  0.9333  0.9844  0.6212
17195TIP3   OH272999   1.083   3.850   5.342 -0.6929 -0.7233  0.4623
17195TIP3    H173000   1.103   3.792   5.270 -0.6624 -0.1707  0.0194
17195TIP3    H273001   1.056   3.932   5.301 -2.4295 -0.9509  1.0422
17196TIP3   OH273002   2.111   6.248  14.537  0.4898 -0.6579 -0.3232
17196TIP3    H173003   2.077   6.192  14.607 -1.2254  0.2621 -0.3485
17196TIP3    H273004   2.094   6.337  14.568 -0.3753 -0.2338 -1.9038
17197TIP3   OH273005   4.531   6.209   1.333 -0.1220  0.3859 -0.0290
17197TIP3    H173006   4.567   6.298   1.326  1.8336 -0.3795 -0.5160
17197TIP3    H273007   4.454   6.210   1.276  0.1873  1.6184 -0.4605
17198TIP3   OH273008   6.208   4.297  13.391 -0.4552  0.5390 -0.0948
17198TIP3    H173009   6.190   4.244  13.469  0.5607 -0.2801 -0.3863
17198TIP3    H273010   6.188   4.386  13.417  2.3519  0.6961  2.0054
17199TIP3   OH273011   1.129   3.849  14.349  0.0970  0.6783  0.0871
17199TIP3    H173012   1.186   3.919  14.316 -0.2622  0.8387 -0.1918
17199TIP3    H273013   1.190   3.779  14.373  0.3148 -0.3589 -3.0343
17200TIP3   OH273014   2.123   2.061   5.544  0.2830 -0.2878  0.1670
17200TIP3    H173015   2.170   1.994   5.495 -1.2974 -0.5998 -1.0334
17200TIP3    H273016   2.179   2.138   5.540  0.5477 -0.5214 -1.5716
17201TIP3   OH273017   1.146   3.631  12.136 -0.1226 -0.2837 -0.8415
17201TIP3    H173018   1.096   3.659  12.213 -0.3063  0.4919 -1.2307
17201TIP3    H273019   1.093   3.562  12.096  0.3493 -1.2431  0.1529
17202TIP3   OH273020   1.475   4.186  12.158  0.1921 -0.1360  0.3643
17202TIP3    H173021   1.503   4.125  12.090  0.9467  1.0183 -0.3919
17202TIP3    H273022   1.391   4.220  12.126  0.6134  0.5104 -0.0798
17203TIP3   OH273023   2.312   1.275   1.045  0.2537 -0.6105 -0.3631
17203TIP3    H173024   2.306   1.362   1.083  0.3653 -0.2168 -1.2246
17203TIP3    H273025   2.244   1.274   0.977  0.9141 -0.8294 -1.0401
17204TIP3   OH273026   6.366   1.978   1.457  0.4470  0.1231 -0.0582
17204TIP3    H173027   6.407   2.031   1.525  0.0547  0.3607 -0.0055
17204TIP3    H273028   6.348   2.040   1.386  0.1914  0.0161 -0.0857
17205TIP3   OH273029   3.484   2.343   1.634  0.4057  0.0561  0.2152
17205TIP3    H173030   3.517   2.261   1.671  1.2195 -0.3016 -1.2093
17205TIP3    H273031   3.534   2.354   1.553 -0.2903  1.5345 -0.0481
17206TIP3   OH273032   3.771   6.730  16.173  0.0281 -0.1871 -0.3141
17206TIP3    H173033   3.708   6.699  16.108 -0.0950 -0.6230 -0.0014
17206TIP3    H273034   3.730   6.707  16.257  0.9651 -1.2199 -0.1178
17207TIP3   OH273035   0.853   6.418  10.474  0.3250 -0.1248 -0.7315
17207TIP3    H173036   0.787   6.350  10.467 -0.3630  0.3888  0.5019
17207TIP3    H273037   0.916   6.398  10.405 -2.1017  0.4840 -3.2784
17208TIP3   OH273038   6.531   5.353  17.257  0.1414 -0.3559  0.4161
17208TIP3    H173039   6.619   5.388  17.247  0.5982 -1.0711  1.6760
17208TIP3    H273040   6.532   5.269  17.211  0.0266 -0.2354  0.1910
17209TIP3   OH273041   1.197   1.275  15.232 -0.0113 -0.6752 -0.6188
17209TIP3    H173042   1.266   1.286  15.297 -1.0321 -0.6058  0.4913
17209TIP3    H273043   1.240   1.232  15.158  0.9294 -1.8631  0.5672
17210TIP3   OH273044   5.383   5.213  14.396  0.9377 -0.3157 -0.3963
17210TIP3    H173045   5.469   5.171  14.392  0.9207 -0.2964 -1.4998
17210TIP3    H273046   5.360   5.228  14.304 -0.3505 -0.5350 -0.1266
17211TIP3   OH273047   4.402   1.815   1.636  0.1684 -0.5342 -0.0434
17211TIP3    H173048   4.398   1.860   1.552 -0.9759 -0.5091  0.0070
17211TIP3    H273049   4.379   1.724   1.615 -0.5085 -0.4480  0.2773
17212TIP3   OH273050   6.512   4.847   0.291  0.2351 -0.0856 -0.2029
17212TIP3    H173051   6.525   4.932   0.248 -0.2625  1.9645  3.2855
17212TIP3    H273052   6.434   4.811   0.251  0.1907  1.3434 -1.4903
17213TIP3   OH273053   5.942   3.790   1.219 -0.0384  0.0493  0.1177
17213TIP3    H173054   5.963   3.782   1.312  1.2314 -1.2591 -0.2447
17213TIP3    H273055   6.011   3.846   1.184  0.1547 -0.4053 -0.2332
17214TIP3   OH273056   2.244   0.169   4.486 -0.0384  0.4630 -0.0015
17214TIP3    H173057   2.268   0.151   4.396  1.1638  1.6438  0.0555
17214TIP3    H273058   2.300   0.112   4.539 -0.7894 -0.2789  0.0226
17215TIP3   OH273059   3.755   5.835  13.108  0.5915  0.2565  0.7223
17215TIP3    H173060   3.675   5.886  13.095  0.1467 -0.7432 -0.7515
17215TIP3    H273061   3.760   5.779  13.030  2.5058  0.0003  0.9879
17216TIP3   OH273062   3.482   3.469   4.126  0.5650  0.2584 -0.0251
17216TIP3    H173063   3.486   3.491   4.219 -0.0547  0.2110  0.0123
17216TIP3    H273064   3.515   3.548   4.082  0.6330  0.3692  0.2220
17217TIP3   OH273065   0.032   5.559  16.747  0.3327  0.0283 -0.0691
17217TIP3    H173066   0.116   5.516  16.764  1.3191  1.3744 -1.2316
17217TIP3    H273067  -0.023   5.491  16.709  1.2375 -0.6599 -0.1695
17218TIP3   OH273068   5.968   1.106   5.137 -0.4464 -0.0442 -0.3928
17218TIP3    H173069   5.898   1.135   5.080 -0.8989  1.3772  0.7970
17218TIP3    H273070   6.013   1.037   5.089 -1.0445  0.8236 -2.2577
17219TIP3   OH273071   1.285   0.659   0.603 -0.9939  0.1210 -0.1063
17219TIP3    H173072   1.192   0.664   0.583 -1.4535  1.2287  2.0268
17219TIP3    H273073   1.312   0.750   0.617 -0.1944 -0.3287  1.6077
17220TIP3   OH273074   1.841   4.185  12.528  0.4847  0.0614  0.2808
17220TIP3    H173075   1.773   4.187  12.461  0.2153 -0.1129  0.5481
17220TIP3    H273076   1.912   4.133  12.488  0.2728 -0.1515  0.1789
17221TIP3   OH273077   1.671   3.339  13.748 -0.4659  0.3112  0.0556
17221TIP3    H173078   1.629   3.288  13.818 -0.0299  0.5638  0.5087
17221TIP3    H273079   1.746   3.379  13.790 -0.9715  1.5883 -0.2193
17222TIP3   OH273080   5.927   4.955  12.144  0.0351  0.1578 -0.5383
17222TIP3    H173081   5.930   4.883  12.207 -0.4044  0.4517 -0.1824
17222TIP3    H273082   5.844   4.999  12.161  0.4775  0.9905 -0.4976
17223TIP3   OH273083   5.726   1.966   2.661 -0.6921 -0.0143  0.2051
17223TIP3    H173084   5.638   1.969   2.623 -0.1451  1.8999 -1.0450
17223TIP3    H273085   5.743   2.056   2.688  1.1622 -0.1881 -0.2645
17224TIP3   OH273086   4.089   3.600  15.596 -0.3424 -0.0255  0.8061
17224TIP3    H173087   4.175   3.569  15.569 -0.1291  0.9112  0.3821
17224TIP3    H273088   4.029   3.566  15.529  0.0762  1.6008 -0.4632
17225TIP3   OH273089   2.377   4.703   3.278  0.3216  0.2111 -0.1315
17225TIP3    H173090   2.384   4.662   3.192 -0.0194 -0.0241 -0.0474
17225TIP3    H273091   2.309   4.770   3.267  1.5081  1.4112 -0.5213
17226TIP3   OH273092   6.180   5.121  12.574  1.1940 -0.4866 -0.5947
17226TIP3    H173093   6.141   5.108  12.660  0.2833  1.5014 -0.6405
17226TIP3    H273094   6.224   5.039  12.554  2.0217 -0.7753  2.0702
17227TIP3   OH273095   1.513   2.790  15.406 -0.1218  0.0425 -0.2021
17227TIP3    H173096   1.506   2.876  15.363 -1.6288 -0.3236 -0.7598
17227TIP3    H273097   1.581   2.745  15.356  0.6047  0.8643  0.0211
17228TIP3   OH273098   1.581   2.540   2.658 -0.5406 -0.0564  0.6013
17228TIP3    H173099   1.531   2.462   2.685 -0.4953 -0.2113  0.2393
17228TIP3    H273100   1.604   2.583   2.740  2.3672 -2.2092  1.0762
17229TIP3   OH273101   1.959   1.968  16.615 -0.8768 -0.5569 -0.7216
17229TIP3    H173102   2.018   1.896  16.595  0.1473  0.0930 -0.1475
17229TIP3    H273103   1.967   2.026  16.539 -0.3669 -0.2249 -0.4234
17230TIP3   OH273104   6.490   0.575  16.150 -0.5231  0.3916 -0.8108
17230TIP3    H173105   6.422   0.590  16.215  0.7001 -0.4056  0.7326
17230TIP3    H273106   6.462   0.496  16.104 -0.0398 -0.7078  0.7165
17231TIP3   OH273107   1.916   0.957   5.040  0.6180  0.1821 -0.4255
17231TIP3    H173108   2.004   0.967   5.004  0.5824 -0.5058 -0.7185
17231TIP3    H273109   1.908   1.027   5.105 -0.3195  3.3785 -3.6781
17232TIP3   OH273110   2.310   3.293   3.102  0.3732  0.1093 -0.6547
17232TIP3    H173111   2.402   3.305   3.123  0.4782 -1.3203 -0.2295
17232TIP3    H273112   2.285   3.374   3.057  1.7434  0.6361 -0.5036
17233TIP3   OH273113   1.060   0.211   4.531 -0.2499 -0.8075 -0.1886
17233TIP3    H173114   1.099   0.196   4.617 -0.0295  0.6064 -0.0289
17233TIP3    H273115   0.971   0.178   4.539  0.0508 -1.5332  0.2873
17234TIP3   OH273116   1.275   1.883   1.245 -0.4682 -0.3839  0.0002
17234TIP3    H173117   1.248   1.798   1.278 -1.3330  0.2771  1.0811
17234TIP3    H273118   1.194   1.932   1.234  0.0796  0.6789  0.5193
17235TIP3   OH273119   1.850   0.689   5.419 -0.2713  0.0568  0.0867
17235TIP3    H173120   1.934   0.645   5.404 -0.3692  0.0024 -0.3386
17235TIP3    H273121   1.797   0.663   5.343 -0.3465  0.8676 -0.1439
17236TIP3   OH273122   4.042   0.279  10.654 -0.2777 -0.3813  0.4729
17236TIP3    H173123   4.106   0.224  10.609 -0.5225 -1.0309  0.8950
17236TIP3    H273124   4.093   0.346  10.698  0.0956 -0.7134  0.5528
17237TIP3   OH273125   0.849   0.585   2.803 -0.2573  0.2490  0.2916
17237TIP3    H173126   0.843   0.525   2.729  2.2750 -0.5520  0.6477
17237TIP3    H273127   0.877   0.530   2.877  0.4187  1.5541  1.0516
17238TIP3   OH273128   0.136   5.611   4.670 -0.6893 -0.1722 -0.6739
17238TIP3    H173129   0.205   5.569   4.619  1.5377  1.1024  1.1144
17238TIP3    H273130   0.156   5.589   4.761 -1.0951  2.2943  0.0882
17239TIP3   OH273131   5.245   2.905   2.397 -0.2589  0.2003  0.1640
17239TIP3    H173132   5.173   2.870   2.343  0.8412 -0.6547 -0.8042
17239TIP3    H273133   5.207   2.914   2.484 -1.6324  0.0574 -0.3943
17240TIP3   OH273134   2.142   4.367   0.090 -0.3735  0.0069  0.2849
17240TIP3    H173135   2.085   4.435   0.125 -2.5507 -2.8008  2.6751
17240TIP3    H273136   2.089   4.287   0.093  1.9191 -1.8574 -2.5988
17241TIP3   OH273137   1.629   0.909  13.413  0.4385  0.2517  0.1388
17241TIP3    H173138   1.642   0.877  13.503  1.6486  1.6991  0.5089
17241TIP3    H273139   1.705   0.878  13.365 -1.0099 -1.9719 -0.8811
17242TIP3   OH273140   5.467   1.658   5.927 -0.1617 -0.2980  0.1563
17242TIP3    H173141   5.528   1.671   5.999  1.0053  0.4102 -0.9110
17242TIP3    H273142   5.487   1.728   5.865  0.1613 -1.8988 -1.6875
17243TIP3   OH273143   2.435   4.609  15.780  0.1593 -0.0619  0.1015
17243TIP3    H173144   2.502   4.677  15.795  0.1918  0.1774 -1.0612
17243TIP3    H273145   2.416   4.615  15.687 -0.2315 -1.3046  0.0923
17244TIP3   OH273146   4.363   0.471   0.395 -0.2475 -0.1697  0.2948
17244TIP3    H173147   4.424   0.472   0.321  0.1741  2.3033  0.5931
17244TIP3    H273148   4.408   0.419   0.462  0.4049 -0.4740 -0.3658
17245TIP3   OH273149   1.568   3.267   3.592 -0.0190  0.9497  0.4081
17245TIP3    H173150   1.528   3.242   3.509 -0.2818  0.8291  0.5663
17245TIP3    H273151   1.494   3.291   3.648  0.0753  0.1271  0.9037
17246TIP3   OH273152   0.202   5.971   3.202 -0.1084  0.3022  0.2395
17246TIP3    H173153   0.159   6.034   3.143 -0.4982  1.5597  1.8011
17246TIP3    H273154   0.183   5.885   3.163 -3.4342  0.8310  0.3870
17247TIP3   OH273155   5.178   0.090   4.758 -0.2991 -0.0419 -0.5409
17247TIP3    H173156   5.131   0.164   4.721 -0.9032  0.6845  1.5496
17247TIP3    H273157   5.113   0.020   4.762 -1.2011  0.8374  1.9647
17248TIP3   OH273158   2.501   1.734  11.885 -0.2407 -0.5305 -0.0707
17248TIP3    H173159   2.495   1.739  11.981  0.9629 -1.8065  0.1055
17248TIP3    H273160   2.449   1.808  11.854 -1.2389 -0.5005  1.5466
17249TIP3   OH273161   2.402   1.233  16.377 -0.4532 -0.2222  0.2346
17249TIP3    H173162   2.491   1.235  16.413 -0.4122  0.4755  0.1099
17249TIP3    H273163   2.374   1.324  16.378 -0.4748 -0.1724 -1.4406
17250TIP3   OH273164   6.113   3.679  12.246 -0.3147  0.0613  0.7284
17250TIP3    H173165   6.145   3.644  12.163  0.4238  1.8483  0.2048
17250TIP3    H273166   6.136   3.613  12.311 -1.2740 -1.5681 -0.5061
17251TIP3   OH273167   3.469   4.738   0.282  0.2419  0.0888 -0.3997
17251TIP3    H173168   3.437   4.722   0.193  2.2489 -0.0565 -1.1528
17251TIP3    H273169   3.494   4.651   0.314 -0.8616  0.0772  0.5105
17252TIP3   OH273170   3.986   3.553   6.346 -0.1920  0.2301 -0.2153
17252TIP3    H173171   4.023   3.486   6.290  1.2266  0.1847  0.7395
17252TIP3    H273172   4.040   3.630   6.330 -1.1639  0.8745 -0.5300
17253TIP3   OH273173   1.184   5.267  12.685 -0.4294 -0.3232  0.1137
17253TIP3    H173174   1.119   5.245  12.618 -0.9172  0.1792  0.4188
17253TIP3    H273175   1.207   5.358  12.667 -0.7495 -0.1067  0.7871
17254TIP3   OH273176   5.391   6.484  14.584  0.1418  0.3039 -0.1158
17254TIP3    H173177   5.454   6.433  14.635 -1.2249 -0.4355  0.8765
17254TIP3    H273178   5.442   6.516  14.510  1.5107 -0.8847  0.2589
17255TIP3   OH273179   5.036   2.015   1.814  0.1547 -0.4181 -0.1208
17255TIP3    H173180   5.102   1.957   1.776 -0.0311 -1.0452  0.4862
17255TIP3    H273181   4.985   2.046   1.740 -0.3751 -1.8242 -0.3760
17256TIP3   OH273182   0.588   1.485   2.180  0.6804 -0.0874 -0.4404
17256TIP3    H173183   0.600   1.462   2.088  0.6642 -0.4631 -0.3510
17256TIP3    H273184   0.660   1.442   2.225 -0.2065 -1.2643 -0.0756
17257TIP3   OH273185   5.550   1.588  11.269 -0.1377  0.0405 -0.2839
17257TIP3    H173186   5.544   1.497  11.240  2.0614 -0.3906  0.4354
17257TIP3    H273187   5.644   1.605  11.277 -0.5230  2.0160  0.7129
17258TIP3   OH273188   0.590   2.887   3.536  0.0896 -0.0510 -0.3290
17258TIP3    H173189   0.535   2.943   3.591  0.6844  0.7398 -0.5179
17258TIP3    H273190   0.670   2.938   3.522  0.4738 -0.7765 -0.8616
17259TIP3   OH273191   2.270   0.544  16.337 -0.2726  0.0911 -0.0333
17259TIP3    H173192   2.291   0.590  16.418 -1.8524  0.2986  0.2941
17259TIP3    H273193   2.181   0.573  16.315 -1.0431 -2.2205 -0.2248
17260TIP3   OH273194   2.670   1.165  16.909 -0.3326 -0.0681 -0.0769
17260TIP3    H173195   2.691   1.217  16.986 -0.7835  1.1688 -0.7657
17260TIP3    H273196   2.636   1.082  16.944  0.3214  0.1200  1.0359
17261TIP3   OH273197   2.618   4.788   5.486  0.3793 -0.3858 -0.7305
17261TIP3    H173198   2.598   4.697   5.509 -0.9725  0.2937  0.9243
17261TIP3    H273199   2.627   4.833   5.569 -1.4214  1.5140 -1.4843
17262TIP3   OH273200   4.706   4.717  11.106 -0.1600 -0.2444  0.6429
17262TIP3    H173201   4.738   4.779  11.040 -3.1824  0.3857 -0.3637
17262TIP3    H273202   4.683   4.772  11.181 -1.4077 -0.2945  0.3176
17263TIP3   OH273203   2.813   0.726   2.535  0.3527  0.0742  0.1602
17263TIP3    H173204   2.863   0.695   2.460  1.9530  0.3676  1.0516
17263TIP3    H273205   2.741   0.664   2.543  1.1343 -0.9709 -0.5794
17264TIP3   OH273206   6.112   3.141   3.059 -0.1838 -0.3454 -0.0864
17264TIP3    H173207   6.202   3.109   3.070  0.7344  2.0848  0.0315
17264TIP3    H273208   6.071   3.076   3.002  2.0878 -0.7787 -1.3658
17265TIP3   OH273209   4.784   6.279   5.648  0.1196 -0.6016 -0.4285
17265TIP3    H173210   4.817   6.272   5.737  0.6145 -0.5545 -0.6053
17265TIP3    H273211   4.690   6.258   5.655  0.1508 -0.5712  0.1004
17266TIP3   OH273212   1.247   0.492  13.378 -0.0656 -0.0314 -0.5939
17266TIP3    H173213   1.317   0.445  13.332 -0.4875  0.2130 -1.5291
17266TIP3    H273214   1.293   0.556  13.432  0.5738 -2.0483  1.4365
17267TIP3   OH273215   1.961   2.329  16.901 -0.5040  0.0986 -0.4379
17267TIP3    H173216   1.997   2.395  16.842 -1.5152 -1.4264 -2.9298
17267TIP3    H273217   1.970   2.367  16.989  1.4565  2.3110 -1.4952
17268TIP3   OH273218   3.953   3.974  11.175 -0.2466  0.5947 -0.7923
17268TIP3    H173219   3.973   3.953  11.084  1.3468  1.8889 -0.7717
17268TIP3    H273220   4.002   3.908  11.226  0.1994  0.8820 -0.8451
17269TIP3   OH273221   2.248   3.823   2.045 -0.0605  0.1496 -0.4171
17269TIP3    H173222   2.316   3.889   2.032  1.7883 -1.8569 -1.5888
17269TIP3    H273223   2.199   3.822   1.963 -0.5405  0.5315 -0.1395
17270TIP3   OH273224   2.444   5.298   0.794 -0.2941  0.4056  0.8515
17270TIP3    H173225   2.420   5.304   0.701  0.6280  2.0674  0.6805
17270TIP3    H273226   2.420   5.384   0.830 -0.1969 -0.0558  2.0482
17271TIP3   OH273227   2.255   2.571   3.877 -0.1102 -0.4779  0.3641
17271TIP3    H173228   2.241   2.483   3.912 -2.8045 -0.5876 -0.7934
17271TIP3    H273229   2.245   2.561   3.782  1.1114  0.8456  0.0578
17272TIP3   OH273230   0.080   5.825   2.917 -0.4801  0.3886 -0.0191
17272TIP3    H173231   0.138   5.894   2.886  0.9827 -1.0335 -0.5873
17272TIP3    H273232   0.086   5.757   2.850 -2.5254  0.0229  0.1109
17273TIP3   OH273233   5.395   4.688   1.572  0.4380  0.0472 -0.4998
17273TIP3    H173234   5.396   4.594   1.589  0.8473  0.1958  0.3632
17273TIP3    H273235   5.308   4.716   1.600 -0.1262 -0.2619 -1.8981
17274TIP3   OH273236   2.920   3.593  16.938 -0.3068  0.1552  0.2861
17274TIP3    H173237   2.906   3.648  16.861  1.2310  0.2878  0.0726
17274TIP3    H273238   2.991   3.533  16.913 -0.2529 -0.2573  1.3586
17275TIP3   OH273239   1.671   4.247   1.625  0.1277  0.5838  0.4081
17275TIP3    H173240   1.597   4.270   1.682 -3.1245 -0.4429 -3.0245
17275TIP3    H273241   1.691   4.328   1.578  0.6423  0.6494  0.7361
17276TIP3   OH273242   3.590   6.097   1.706 -0.0747 -0.9237 -0.0878
17276TIP3    H173243   3.521   6.087   1.772 -1.0876  0.9783 -0.7810
17276TIP3    H273244   3.635   6.178   1.732  1.1000 -1.4805 -0.3560
17277TIP3   OH273245   1.577   2.617   2.926 -0.0329 -0.0951  0.6840
17277TIP3    H173246   1.502   2.574   2.967 -1.6053  1.5790 -0.3002
17277TIP3    H273247   1.579   2.704   2.965  0.8302  0.2008  0.0105
17278TIP3   OH273248   3.625   5.184   2.557 -0.6184  0.4575  0.2095
17278TIP3    H173249   3.581   5.189   2.642  2.3103  1.4952  1.8230
17278TIP3    H273250   3.661   5.272   2.544  1.3253 -0.4280 -0.7390
17279TIP3   OH273251   5.088   2.247  14.778  0.2967 -0.3412 -0.7259
17279TIP3    H173252   5.135   2.211  14.853  0.7701  1.6480  0.0014
17279TIP3    H273253   4.998   2.254  14.808  0.2720 -0.5571 -0.7445
17280TIP3   OH273254   2.517   0.035   5.808  0.4483  0.2264  0.1198
17280TIP3    H173255   2.525  -0.056   5.779  0.3878 -0.0924  1.0648
17280TIP3    H273256   2.606   0.069   5.804  0.5361  0.0040  0.1479
17281TIP3   OH273257   0.514   4.067  15.985  0.0716 -0.2764 -0.5046
17281TIP3    H173258   0.598   4.048  15.944 -0.4855 -0.6987 -1.4786
17281TIP3    H273259   0.536   4.119  16.063  1.5528 -3.4570  1.3733
17282TIP3   OH273260   2.905   2.641  12.808 -0.7274  0.1308 -0.3132
17282TIP3    H173261   2.828   2.637  12.866  1.0478 -1.5653  2.1210
17282TIP3    H273262   2.923   2.549  12.787 -0.6943  0.6466 -2.8505
17283TIP3   OH273263   4.494   3.850   4.593  0.9707 -0.0234  0.2576
17283TIP3    H173264   4.584   3.881   4.591  0.7128  0.7024 -0.2395
17283TIP3    H273265   4.459   3.871   4.507  1.0978 -2.7087 -0.5463
17284TIP3   OH273266   6.021   1.465  11.234 -0.4599  0.2010 -0.3079
17284TIP3    H173267   6.110   1.443  11.264 -0.7611 -0.2318  0.2888
17284TIP3    H273268   5.979   1.380  11.221 -0.5224  0.3830 -1.4423
17285TIP3   OH273269   0.961   0.257  11.480 -0.4070  0.2638 -0.3278
17285TIP3    H173270   1.010   0.187  11.523 -0.9183 -2.0418 -3.1743
17285TIP3    H273271   1.028   0.308  11.433 -0.3267 -0.7981 -1.4323
17286TIP3   OH273272   6.496   3.797  12.806  0.5303 -0.3364  0.1219
17286TIP3    H173273   6.569   3.858  12.795 -0.2823  0.4961 -0.7860
17286TIP3    H273274   6.425   3.851  12.841  0.1887 -1.0336  0.5209
17287TIP3   OH273275   3.987   5.261   3.465 -0.4917 -0.0579 -0.0248
17287TIP3    H173276   3.981   5.317   3.542 -0.4815 -0.8221  0.5364
17287TIP3    H273277   4.074   5.281   3.428  0.1333 -0.7566  1.0116
17288TIP3   OH273278   5.191   2.897   0.924 -0.2416  0.0828  0.3173
17288TIP3    H173279   5.281   2.930   0.932  0.5356 -1.4767 -1.0683
17288TIP3    H273280   5.159   2.892   1.014  1.0791  0.6196  0.8513
17289TIP3   OH273281   2.439   6.343  11.686 -0.4834 -0.1977 -0.1369
17289TIP3    H173282   2.382   6.416  11.709 -0.7087 -0.8114  1.3645
17289TIP3    H273283   2.388   6.265  11.707  0.3128 -0.7752 -0.2829
17290TIP3   OH273284   6.513   0.093  12.103  0.5665  0.4289  0.4400
17290TIP3    H173285   6.589   0.069  12.156  1.0324  0.4569 -0.2016
17290TIP3    H273286   6.547   0.157  12.041 -0.3000  1.5067  1.0486
17291TIP3   OH273287   4.522   4.318  17.228  0.7046 -0.4581 -0.5442
17291TIP3    H173288   4.434   4.342  17.257  1.0492  0.1573  0.0378
17291TIP3    H273289   4.577   4.330  17.305  1.4943  0.3079 -1.1939
17292TIP3   OH273290   6.272   2.498  13.578 -0.0805  0.3980 -0.0387
17292TIP3    H173291   6.179   2.498  13.557  0.0368  1.9849 -0.6944
17292TIP3    H273292   6.287   2.581  13.623  0.5827 -0.8973  2.3263
17293TIP3   OH273293   3.879   1.052  13.937 -0.0507 -0.6599  0.2868
17293TIP3    H173294   3.808   1.092  13.887  0.6099 -0.0984 -0.2159
17293TIP3    H273295   3.896   0.969  13.893 -0.5319 -0.9013  0.5404
17294TIP3   OH273296   1.923   1.719  11.745 -0.2218  0.3929 -0.3533
17294TIP3    H173297   1.996   1.658  11.758 -0.1864  0.6453  0.7432
17294TIP3    H273298   1.951   1.774  11.672  0.9860  0.8941  0.4549
17295TIP3   OH273299   6.081   2.865  13.400 -0.6533  0.2155  0.5215
17295TIP3    H173300   6.124   2.934  13.450  1.4396 -1.1269  0.6710
17295TIP3    H273301   6.050   2.908  13.321  0.0583  1.4326  0.8911
17296TIP3   OH273302   6.231   3.172   3.373 -0.1886  0.2487  0.2028
17296TIP3    H173303   6.248   3.127   3.289 -1.4082  2.0422 -1.0648
17296TIP3    H273304   6.296   3.242   3.376 -0.7138  0.7365  0.3191
17297TIP3   OH273305   0.129   3.353  15.331  0.1241  0.4396  0.0442
17297TIP3    H173306   0.060   3.302  15.287  1.6664 -0.0755 -1.9262
17297TIP3    H273307   0.089   3.438  15.349 -1.0351  0.1554 -1.0543
17298TIP3   OH273308   3.475   1.231  12.752 -0.3945 -1.0502  0.5422
17298TIP3    H173309   3.448   1.141  12.768  0.3400 -1.9317 -2.4400
17298TIP3    H273310   3.426   1.257  12.673  0.3844  0.6879  0.5699
17299TIP3   OH273311   1.163   2.972  15.303 -0.0927  0.3618  0.3695
17299TIP3    H173312   1.079   3.019  15.305 -0.1216  0.3016  0.7182
17299TIP3    H273313   1.149   2.896  15.359  0.0144  0.0345 -0.0455
17300TIP3   OH273314   5.475   0.351   2.629  0.0796  0.2151  0.8511
17300TIP3    H173315   5.488   0.428   2.574  0.2710  2.0427  3.2910
17300TIP3    H273316   5.380   0.342   2.634  0.0312 -1.1192 -1.1566
17301TIP3   OH273317   6.711   6.662   4.394  0.2231  0.7469 -0.4565
17301TIP3    H173318   6.717   6.659   4.299  0.3570 -0.7195 -0.4236
17301TIP3    H273319   6.776   6.599   4.425 -1.1988 -0.3055  0.5313
17302TIP3   OH273320   4.568   2.220  16.754  0.1306 -0.5922  0.2811
17302TIP3    H173321   4.481   2.259  16.766  0.2939 -0.8209  2.6527
17302TIP3    H273322   4.607   2.271  16.682 -2.0937 -0.8147 -1.1941
17303TIP3   OH273323   5.714   2.329  14.772 -0.8030  0.4892  0.6998
17303TIP3    H173324   5.778   2.380  14.821 -1.8567  0.4618  2.1827
17303TIP3    H273325   5.645   2.308  14.836 -0.2056 -3.2755  0.3868
17304TIP3   OH273326   5.497   3.122   5.835  0.6424  0.1600  0.3474
17304TIP3    H173327   5.499   3.029   5.855 -2.2729 -0.3515 -1.2119
17304TIP3    H273328   5.462   3.163   5.914  0.2920 -0.2810  0.4246
17305TIP3   OH273329   6.492   1.102  16.033 -0.5842  0.0392  0.7303
17305TIP3    H173330   6.436   1.173  16.002  1.1021  1.0279 -0.1457
17305TIP3    H273331   6.447   1.022  16.005 -0.8825  0.8318 -1.1846
17306TIP3   OH273332   2.389   5.349  17.012 -0.0568  0.6558  0.1779
17306TIP3    H173333   2.377   5.433  16.968 -1.6694  0.5559  0.3798
17306TIP3    H273334   2.336   5.354  17.091  2.7618  0.8172  2.2212
17307TIP3   OH273335   4.332   6.202   0.760 -0.5667 -0.2456  0.6173
17307TIP3    H173336   4.405   6.263   0.769  1.1131 -1.8304 -1.4454
17307TIP3    H273337   4.357   6.127   0.813 -1.5857 -0.0829  1.3546
17308TIP3   OH273338   0.461   2.411   1.077  0.0015  0.1843  0.0488
17308TIP3    H173339   0.419   2.326   1.091  0.2963  0.0222 -0.0291
17308TIP3    H273340   0.552   2.389   1.058  0.3390  0.5685  1.1160
17309TIP3   OH273341   5.563   0.670   1.400  0.1599 -0.5624 -0.0175
17309TIP3    H173342   5.514   0.588   1.408 -0.5752 -0.2349 -0.9560
17309TIP3    H273343   5.497   0.738   1.411  0.9617 -0.0409  2.0643
17310TIP3   OH273344   6.264   0.497   4.988  0.2975  0.2794  0.0895
17310TIP3    H173345   6.206   0.421   4.984  1.3213 -0.5195 -0.1159
17310TIP3    H273346   6.248   0.544   4.907 -0.0297  0.0422  0.0140
17311TIP3   OH273347   4.261   5.291  11.594 -0.2466 -0.2798 -0.5133
17311TIP3    H173348   4.314   5.262  11.520 -0.1182 -0.8900 -0.1885
17311TIP3    H273349   4.283   5.384  11.604  0.7328 -0.5046 -0.4166
17312TIP3   OH273350   0.914   5.630  14.636 -0.0955  0.2316 -0.3179
17312TIP3    H173351   0.985   5.638  14.572  0.1765 -1.0807 -0.2084
17312TIP3    H273352   0.948   5.674  14.714  0.5547 -0.2663 -0.3100
17313TIP3   OH273353   2.049   4.278  11.725 -0.3732  0.3117  0.1062
17313TIP3    H173354   2.080   4.341  11.790  0.0573 -0.5084  0.7105
17313TIP3    H273355   1.983   4.226  11.770 -0.2713 -0.0890 -0.1976
17314TIP3   OH273356   1.643   3.358  12.225  0.1242  0.4759  0.0908
17314TIP3    H173357   1.582   3.293  12.190 -0.0449  1.1780 -0.9528
17314TIP3    H273358   1.613   3.441  12.190  1.6448  0.8503 -0.4108
17315TIP3   OH273359   1.057   2.667  15.843 -0.2253  0.5456  0.3978
17315TIP3    H173360   1.020   2.752  15.867 -1.3075  0.4008 -0.6593
17315TIP3    H273361   1.023   2.607  15.909 -0.9012  0.6319  0.1353
17316TIP3   OH273362   5.330   0.075  15.737  0.2376 -0.4320  0.8168
17316TIP3    H173363   5.341   0.080  15.642 -0.1958 -1.7442  0.6737
17316TIP3    H273364   5.351   0.163  15.769  0.4181  0.0137 -0.4862
17317TIP3   OH273365   0.229   3.547  16.698  0.6055  0.4879  0.0955
17317TIP3    H173366   0.236   3.511  16.787  0.5917  0.6385  0.1578
17317TIP3    H273367   0.319   3.567  16.673  1.0128 -2.3877 -1.1164
17318TIP3   OH273368   1.813   3.061  14.157 -0.3001  0.1639 -0.6028
17318TIP3    H173369   1.908   3.047  14.162 -0.4227 -0.3158  0.5480
17318TIP3    H273370   1.786   3.077  14.247 -1.1650  1.3777 -1.0480
17319TIP3   OH273371   4.244   2.927  14.885 -0.0942 -0.1503  0.0838
17319TIP3    H173372   4.185   2.944  14.811 -0.4736 -1.2530  0.1101
17319TIP3    H273373   4.276   2.838  14.871  2.0937  0.6229 -0.2633
17320TIP3   OH273374   1.174   0.592  10.779  0.0857 -0.5072  0.2102
17320TIP3    H173375   1.174   0.664  10.842  1.1898 -0.8147  0.5941
17320TIP3    H273376   1.224   0.625  10.704 -0.4250 -0.4648 -0.1122
17321TIP3   OH273377   6.369   1.373   2.767  0.5388  0.0004 -0.2350
17321TIP3    H173378   6.419   1.327   2.699 -1.6862 -3.9124  0.4609
17321TIP3    H273379   6.281   1.382   2.731 -0.5128 -1.5432  1.7523
17322TIP3   OH273380   2.993   6.522   4.529 -1.1174  0.8388  0.0303
17322TIP3    H173381   2.956   6.512   4.617 -1.7500 -0.6018 -0.3741
17322TIP3    H273382   3.026   6.612   4.528  2.2944 -0.1045  3.0171
17323TIP3   OH273383   3.230   2.452   3.292  0.4107  0.1818 -0.2422
17323TIP3    H173384   3.167   2.444   3.363  1.7303 -1.0392  0.8483
17323TIP3    H273385   3.206   2.533   3.247  0.8577  2.2405  2.9353
17324TIP3   OH273386   6.148   1.205   5.883 -0.1397 -0.4573  0.1687
17324TIP3    H173387   6.221   1.155   5.847  0.7995  0.8221  0.2336
17324TIP3    H273388   6.163   1.295   5.852 -1.9692 -0.2517 -0.2512
17325TIP3   OH273389   4.300   2.407  16.896 -0.0560  0.7148 -0.2345
17325TIP3    H173390   4.370   2.465  16.926 -0.2623  0.2528  1.2421
17325TIP3    H273391   4.221   2.443  16.935  0.1486 -2.0891  3.2978
17326TIP3   OH273392   1.730   1.673  16.150 -0.7781  0.0908 -0.3932
17326TIP3    H173393   1.771   1.666  16.236 -0.4644 -0.5597 -0.5835
17326TIP3    H273394   1.714   1.582  16.124  0.1004  0.2209 -1.4775
17327TIP3   OH273395   3.496   5.782   6.714  0.1625  0.0417  0.4692
17327TIP3    H173396   3.405   5.779   6.685  0.8990 -2.8369 -1.9400
17327TIP3    H273397   3.546   5.745   6.642  3.2144  0.7829  2.0309
17328TIP3   OH273398   2.859   5.501  15.021  0.1675 -0.4614 -0.4569
17328TIP3    H173399   2.929   5.451  14.980 -0.5459 -3.2475  1.4988
17328TIP3    H273400   2.786   5.494  14.959  0.3525 -1.0801 -0.6122
17329TIP3   OH273401   0.798   1.813  13.248  0.4652 -0.0597 -0.5691
17329TIP3    H173402   0.804   1.793  13.154  1.3006 -1.0653 -0.3276
17329TIP3    H273403   0.713   1.777  13.274  0.4767 -0.2846 -0.8327
17330TIP3   OH273404   2.029   2.138  10.573 -0.3434 -0.2797  0.6609
17330TIP3    H173405   2.070   2.101  10.651 -0.7624 -1.4115  0.3533
17330TIP3    H273406   2.015   2.064  10.514 -2.0818  0.1895  0.4121
17331TIP3   OH273407   1.773   2.940  16.269  0.0937 -0.1445  0.0037
17331TIP3    H173408   1.803   3.000  16.201 -0.3970 -0.1429 -0.2108
17331TIP3    H273409   1.852   2.891  16.294  0.3078 -0.0339 -0.4482
17332TIP3   OH273410   4.843   1.474   4.166  0.5088 -0.7154 -0.2503
17332TIP3    H173411   4.875   1.563   4.152 -0.1352 -0.2671  0.9966
17332TIP3    H273412   4.777   1.462   4.097  0.8726 -0.3746 -0.6651
17333TIP3   OH273413   5.195   6.477   2.876 -0.2774 -0.2238 -0.5172
17333TIP3    H173414   5.142   6.549   2.842 -0.0571  0.4569  0.5606
17333TIP3    H273415   5.158   6.458   2.962  0.6584 -0.3311 -0.1243
17334TIP3   OH273416   5.757   1.353   0.901 -0.6398  0.0849  0.3577
17334TIP3    H173417   5.668   1.341   0.869 -0.4845 -1.1451  0.3646
17334TIP3    H273418   5.773   1.279   0.959 -0.2384  1.2421  1.8230
17335TIP3   OH273419   0.335   3.660   4.936 -0.4043  0.3060  0.4263
17335TIP3    H173420   0.430   3.667   4.942 -0.0238 -1.5476 -1.9153
17335TIP3    H273421   0.304   3.750   4.951  1.6141  0.8149  1.9744
17336TIP3   OH273422   3.109   2.363   5.229 -0.1624  0.1787 -0.1258
17336TIP3    H173423   3.191   2.316   5.246 -0.9343 -0.6055  1.8086
17336TIP3    H273424   3.094   2.414   5.309 -2.3322 -0.9583  0.2753
17337TIP3   OH273425   0.051   5.685  14.270  0.2281  0.1859 -0.2974
17337TIP3    H173426  -0.042   5.687  14.291  0.2036 -0.5963 -0.3280
17337TIP3    H273427   0.088   5.758  14.320 -0.6592  1.5993 -1.6223
17338TIP3   OH273428   3.514   4.141  14.641  0.0947  0.0812 -0.1045
17338TIP3    H173429   3.601   4.101  14.643 -0.7570 -1.9062  0.0641
17338TIP3    H273430   3.496   4.154  14.548 -0.2070 -1.4597 -0.3013
17339TIP3   OH273431   3.356   5.207   2.512 -0.3148 -0.1679  0.0703
17339TIP3    H173432   3.334   5.201   2.419 -0.7476  0.8530  0.0948
17339TIP3    H273433   3.452   5.215   2.514 -0.3812  0.8907 -0.3629
17340TIP3   OH273434   2.634   0.181   4.419 -0.2925  0.1352 -0.5081
17340TIP3    H173435   2.582   0.145   4.348 -0.2456 -0.2095 -0.3681
17340TIP3    H273436   2.586   0.157   4.498  1.3835 -2.4661 -0.1730
17341TIP3   OH273437   2.914   5.240  12.298  0.4019 -0.4859  0.4189
17341TIP3    H173438   2.994   5.284  12.325  0.5025 -1.8002  2.4085
17341TIP3    H273439   2.943   5.156  12.262 -0.0809 -1.3454  1.9527
17342TIP3   OH273440   1.908   5.093   1.562 -0.5142 -0.3987  0.2122
17342TIP3    H173441   1.948   5.045   1.635 -0.0819 -2.2097 -1.1291
17342TIP3    H273442   1.983   5.126   1.511 -0.8093  0.7689  0.5018
17343TIP3   OH273443   5.379   6.044  16.582  0.5348  0.4489  0.1842
17343TIP3    H173444   5.286   6.022  16.576  0.7237 -0.4583  0.4488
17343TIP3    H273445   5.424   5.960  16.577  1.1553  0.2813  4.7065
17344TIP3   OH273446   6.076   6.700  16.829  0.1665  0.1039  0.2953
17344TIP3    H173447   6.073   6.699  16.924  0.1857 -0.5082  0.2894
17344TIP3    H273448   5.999   6.752  16.803 -2.3401 -3.1198  0.5657
17345TIP3   OH273449   3.806   1.691   4.742 -0.0719  0.1138  0.4815
17345TIP3    H173450   3.831   1.671   4.833 -1.3973 -1.2368  0.5772
17345TIP3    H273451   3.881   1.661   4.690 -0.5786 -2.0512  0.9144
17346TIP3   OH273452   3.318   5.174   3.256 -0.0582  0.2657 -0.7477
17346TIP3    H173453   3.225   5.196   3.249  0.1879  1.3626 -0.6570
17346TIP3    H273454   3.361   5.257   3.272  0.7908 -0.4276  0.7456
17347TIP3   OH273455   5.756   1.775  10.408 -0.5110 -0.5302  0.0525
17347TIP3    H173456   5.759   1.680  10.417 -0.0502 -0.2744  4.7453
17347TIP3    H273457   5.691   1.803  10.472 -1.3338  2.3731 -1.8358
17348TIP3   OH273458   4.389   0.086  17.105  0.5066  0.9717  0.1953
17348TIP3    H173459   4.293   0.083  17.108  0.5159  0.6202  0.2020
17348TIP3    H273460   4.409   0.148  17.035  0.2591 -0.4666 -1.2191
17349TIP3   OH273461   2.636   1.893   5.843  0.3370 -0.0065 -0.7558
17349TIP3    H173462   2.577   1.968   5.827 -0.5351  0.2497  2.8360
17349TIP3    H273463   2.577   1.818   5.852  0.8109 -0.3073 -0.0862
17350TIP3   OH273464   1.629   0.992  15.090  0.8752 -0.1073  0.2402
17350TIP3    H173465   1.593   0.973  15.176 -1.0852 -1.4388 -0.8064
17350TIP3    H273466   1.665   0.908  15.060  0.5170  0.0649 -0.7004
17351TIP3   OH273467   6.237   3.302  13.333 -0.0032 -0.2062 -0.1060
17351TIP3    H173468   6.241   3.387  13.289  1.6091  0.6237  1.5080
17351TIP3    H273469   6.326   3.267  13.323  0.0301 -0.5678  1.3222
17352TIP3   OH273470   5.464   0.556  16.231 -0.1120 -0.6152 -0.4679
17352TIP3    H173471   5.483   0.463  16.247 -0.9236 -0.6733  0.2576
17352TIP3    H273472   5.520   0.580  16.158  4.0892 -0.2881  2.5465
17353TIP3   OH273473   6.157   0.732   5.529 -0.1771  0.1087 -0.4129
17353TIP3    H173474   6.222   0.666   5.553 -0.9154 -0.5659 -0.2776
17353TIP3    H273475   6.164   0.739   5.434  0.1542  0.1106 -0.3911
17354TIP3   OH273476   1.371   2.460  17.021  0.1143 -0.5957  0.2224
17354TIP3    H173477   1.300   2.523  17.006 -0.6972 -1.3200  0.9517
17354TIP3    H273478   1.391   2.427  16.933 -1.8583 -1.8558  0.1717
17355TIP3   OH273479   6.159   6.392  14.309  0.5109  0.6198  0.8294
17355TIP3    H173480   6.192   6.338  14.238  1.0963  0.1817  1.4196
17355TIP3    H273481   6.099   6.455  14.267 -0.6229 -0.8338  0.1971
17356TIP3   OH273482   2.227   5.494  14.781 -0.1028 -0.1198 -0.0840
17356TIP3    H173483   2.141   5.462  14.808 -0.5348  1.1173  0.0744
17356TIP3    H273484   2.275   5.416  14.755 -0.3348 -1.1874  2.4239
17357TIP3   OH273485   3.307   4.525   6.486 -0.1128  0.2400 -0.7156
17357TIP3    H173486   3.222   4.568   6.502  0.9090  2.8169 -1.6197
17357TIP3    H273487   3.346   4.519   6.573 -1.4044 -1.5787 -0.1898
17358TIP3   OH273488   2.340   6.546  17.250 -0.1958  0.7748  0.1517
17358TIP3    H173489   2.262   6.509  17.210 -1.1680  0.8266  1.9353
17358TIP3    H273490   2.318   6.638  17.265  0.9608  1.3083 -1.1031
17359TIP3   OH273491   0.274   3.491  16.952  0.0597  0.0629  0.5279
17359TIP3    H173492   0.260   3.397  16.968  0.2558  0.2707  1.9844
17359TIP3    H273493   0.363   3.508  16.983  0.8360  0.3269 -1.6735
17360TIP3   OH273494   4.127   1.536   0.217 -0.2335  0.0658 -0.2341
17360TIP3    H173495   4.199   1.567   0.271 -1.4422  3.8922 -0.5142
17360TIP3    H273496   4.168   1.510   0.135  0.9742  1.1816 -0.0208
17361TIP3   OH273497   2.675   5.340   4.586  0.1290 -0.5360  0.6059
17361TIP3    H173498   2.683   5.431   4.613 -0.3996 -0.5076  0.6774
17361TIP3    H273499   2.747   5.327   4.524 -0.2788  0.1657 -0.0418
17362TIP3   OH273500   2.330   3.055  16.644  0.3489  0.5372  0.0977
17362TIP3    H173501   2.289   2.968  16.643 -1.8207  1.4965 -0.2313
17362TIP3    H273502   2.360   3.067  16.734  1.5514 -0.8807 -0.0606
17363TIP3   OH273503   3.810   2.936   3.945  0.6980  0.0048 -0.3400
17363TIP3    H173504   3.723   2.931   3.905  0.8332  0.7851 -0.7586
17363TIP3    H273505   3.824   2.850   3.983  0.0591 -0.3704 -0.9285
17364TIP3   OH273506   0.383   0.670  11.548  0.1726 -0.5531  0.2905
17364TIP3    H173507   0.432   0.621  11.614  0.2945 -0.4154  0.3028
17364TIP3    H273508   0.314   0.715  11.597 -0.8587 -1.8698  0.0937
17365TIP3   OH273509   3.268   5.489  14.011 -0.1023 -0.1983  0.1086
17365TIP3    H173510   3.321   5.410  14.010 -1.8976 -1.4854 -1.7163
17365TIP3    H273511   3.281   5.529  13.925 -1.8722 -0.4531 -0.3229
17366TIP3   OH273512   6.480   5.830  15.569 -0.0055  0.0989 -0.1318
17366TIP3    H173513   6.440   5.909  15.533 -1.1342 -1.2109 -1.8782
17366TIP3    H273514   6.525   5.789  15.495 -0.7395 -1.6915  0.3671
17367TIP3   OH273515   0.986   1.846  11.034  0.1575 -0.1371  0.3688
17367TIP3    H173516   0.926   1.842  11.109 -0.9911  1.4744 -0.4049
17367TIP3    H273517   0.938   1.896  10.968  1.4078 -0.9475 -1.2161
17368TIP3   OH273518   1.459   0.469  15.367  0.0187 -0.5991  0.1458
17368TIP3    H173519   1.523   0.536  15.390  0.8835 -1.9256  1.8247
17368TIP3    H273520   1.378   0.498  15.410  0.5118 -0.8419  1.2716
17369TIP3   OH273521   0.934   5.577  12.641  0.2862 -0.3153  0.6551
17369TIP3    H173522   1.029   5.565  12.637  0.1561 -1.6483  0.9064
17369TIP3    H273523   0.922   5.667  12.671  1.4728 -0.2217  0.9061
17370TIP3   OH273524   2.636   3.602   5.176 -0.2562  0.2067 -0.2148
17370TIP3    H173525   2.693   3.539   5.132 -1.2095 -0.0616 -1.0958
17370TIP3    H273526   2.638   3.679   5.120 -0.8607  0.1432 -0.3282
17371TIP3   OH273527   3.282   5.575   0.528  0.4298 -0.4058 -0.6873
17371TIP3    H173528   3.255   5.536   0.611  2.1294 -0.6590 -0.2296
17371TIP3    H273529   3.207   5.560   0.470 -2.0355  2.2799  1.4951
17372TIP3   OH273530   4.081   4.762  13.402  0.0373 -0.6115 -0.3454
17372TIP3    H173531   4.079   4.787  13.494 -0.4914  1.2639 -0.8229
17372TIP3    H273532   4.050   4.839  13.355  0.0479 -1.6061 -2.0918
17373TIP3   OH273533   3.158   1.626  12.797 -0.0709  0.7524 -0.2666
17373TIP3    H173534   3.116   1.706  12.766 -1.1556 -0.0060 -0.8115
17373TIP3    H273535   3.117   1.556  12.747  1.2452 -0.1106 -0.1810
17374TIP3   OH273536   1.450   2.093   6.310  0.7439 -0.2621  0.7850
17374TIP3    H173537   1.455   2.186   6.332  3.3401 -0.0667 -0.2704
17374TIP3    H273538   1.527   2.054   6.351 -0.0658 -1.8743  0.8436
17375TIP3   OH273539   4.714   4.408  14.039 -0.1128 -0.3978 -0.6483
17375TIP3    H173540   4.768   4.376  13.968 -0.2758 -0.9022 -0.5514
17375TIP3    H273541   4.694   4.499  14.016 -0.2687 -0.5960 -1.3057
17376TIP3   OH273542   5.882   5.428  16.467 -0.3202  0.3768  0.4397
17376TIP3    H173543   5.837   5.434  16.551  2.4023 -2.1604  2.2822
17376TIP3    H273544   5.975   5.433  16.489  0.5088 -0.2810 -2.4459
17377TIP3   OH273545   6.396   5.335  12.021  0.3514 -0.0391  0.2339
17377TIP3    H173546   6.474   5.361  11.972 -0.0750  1.1015  0.1346
17377TIP3    H273547   6.364   5.417  12.059 -1.6268 -0.2239 -0.9253
17378TIP3   OH273548   0.268   4.500  15.885  0.1191 -0.0116  0.2496
17378TIP3    H173549   0.284   4.411  15.854  1.3218  0.1870  0.2480
17378TIP3    H273550   0.338   4.552  15.845  0.8703  0.5045  2.1198
17379TIP3   OH273551   3.983   5.744   5.727 -1.0719 -0.4678  0.1717
17379TIP3    H173552   3.938   5.732   5.643 -0.3532  0.9226 -0.4471
17379TIP3    H273553   3.948   5.675   5.783  0.3498 -3.1727 -2.0485
17380TIP3   OH273554   3.101   4.950  11.982 -0.5432  0.1154 -0.2943
17380TIP3    H173555   3.111   4.893  11.905  0.1007  1.5046 -1.2867
17380TIP3    H273556   3.174   4.926  12.038 -1.9306 -2.0790  0.7517
17381TIP3   OH273557   1.926   0.185   5.977  0.0509 -0.1353 -0.0644
17381TIP3    H173558   1.944   0.276   5.953  0.6403 -0.2575 -0.0853
17381TIP3    H273559   1.935   0.136   5.896 -1.4614 -0.0555 -0.3089
17382TIP3   OH273560   5.032   4.966  13.990  0.6503  0.3080 -0.3094
17382TIP3    H173561   5.109   4.954  14.046  0.6899  1.5712 -0.0654
17382TIP3    H273562   4.978   5.029  14.038  0.4996  1.1137 -1.5011
17383TIP3   OH273563   0.280   1.724  15.962  0.0800 -0.2514  0.0567
17383TIP3    H173564   0.329   1.660  15.912  0.4122  0.7954 -1.0181
17383TIP3    H273565   0.262   1.795  15.900 -1.5704  0.0352  0.7902
17384TIP3   OH273566   0.150   3.739  11.313 -0.2562  0.1608  0.0075
17384TIP3    H173567   0.102   3.777  11.387  0.6287  1.7716 -0.2017
17384TIP3    H273568   0.133   3.799  11.241  1.0469  0.0731 -0.3876
17385TIP3   OH273569   1.254   2.985   1.355 -0.2940  0.6507  0.1777
17385TIP3    H173570   1.287   2.964   1.443  0.5448  0.7723 -0.0966
17385TIP3    H273571   1.305   2.928   1.297 -2.8761 -1.6678 -0.0555
17386TIP3   OH273572   4.110   0.105   5.032 -0.1326  0.0809  0.2997
17386TIP3    H173573   4.039   0.112   4.968 -0.9036 -1.4176  0.9585
17386TIP3    H273574   4.183   0.066   4.983  0.6349  2.4459 -0.6221
17387TIP3   OH273575   3.655   0.130   2.150 -0.2018 -0.3218  0.1240
17387TIP3    H173576   3.673   0.036   2.146 -0.1588 -0.3463  0.8602
17387TIP3    H273577   3.578   0.141   2.094 -0.2638 -0.8116  0.1059
17388TIP3   OH273578   1.410   0.503  11.387  0.2130  0.2582 -0.1661
17388TIP3    H173579   1.335   0.486  11.444  0.1678  2.1086  0.3711
17388TIP3    H273580   1.401   0.439  11.316 -0.8908 -0.6896  0.7981
17389TIP3   OH273581   2.163   1.061   6.078  0.4825 -0.3824  0.1777
17389TIP3    H173582   2.216   1.112   6.138  1.0587 -0.7283 -0.0290
17389TIP3    H273583   2.091   1.027   6.131  1.3340 -1.2136  0.8301
17390TIP3   OH273584   4.983   1.989  17.222 -0.3810  0.4038  0.3057
17390TIP3    H173585   5.013   1.903  17.191 -0.4719  0.0664  1.1142
17390TIP3    H273586   5.026   2.052  17.165 -0.3364 -0.1824 -0.3231
17391TIP3   OH273587   3.717   3.721  13.211  0.0360  1.1441 -0.4423
17391TIP3    H173588   3.745   3.700  13.301 -0.0174 -1.7529 -1.0077
17391TIP3    H273589   3.624   3.742  13.219 -0.2730 -0.3149  0.0635
17392TIP3   OH273590   4.522   1.791  12.625  0.5663 -0.1548 -0.0278
17392TIP3    H173591   4.540   1.796  12.531  1.5520  0.0582  0.1554
17392TIP3    H273592   4.599   1.747  12.662 -0.0243 -0.6686  0.6259
17393TIP3   OH273593   0.429   4.939  12.190 -0.0252 -0.1561 -0.4011
17393TIP3    H173594   0.357   4.994  12.158  0.3452 -0.1467 -1.2428
17393TIP3    H273595   0.492   5.001  12.227 -1.6941 -0.3069  3.0813
17394TIP3   OH273596   2.594   3.308  15.882  0.1476  0.3540 -0.0234
17394TIP3    H173597   2.634   3.255  15.813 -0.1403  0.2670 -0.1216
17394TIP3    H273598   2.501   3.286  15.880  0.0568  0.7116  0.0698
17395TIP3   OH273599   3.108   2.186   1.964 -0.5578  0.9359 -0.0358
17395TIP3    H173600   3.178   2.251   1.967  0.7130 -0.2879 -1.3109
17395TIP3    H273601   3.123   2.138   1.883 -1.2382 -1.1331  0.9769
17396TIP3   OH273602   5.059   1.790   0.276  0.5186 -0.3633 -0.1550
17396TIP3    H173603   5.085   1.734   0.350  2.0155 -2.4604 -2.1319
17396TIP3    H273604   4.990   1.740   0.232  2.6280 -1.3382 -2.5863
17397TIP3   OH273605   4.205   1.163   1.263  0.1895  0.0811 -0.1059
17397TIP3    H173606   4.228   1.070   1.268 -1.1167 -0.1867  1.6825
17397TIP3    H273607   4.244   1.202   1.341 -0.0062  0.8799 -0.3927
17398TIP3   OH273608   3.324   1.569  13.339  0.1989  0.3168 -0.1872
17398TIP3    H173609   3.287   1.649  13.378 -2.2568 -1.1109  0.6700
17398TIP3    H273610   3.283   1.563  13.253 -0.3704 -0.4499  0.1209
17399TIP3   OH273611   5.796   6.498   1.504  0.2174 -0.0249  0.0269
17399TIP3    H173612   5.887   6.493   1.534  0.1528 -1.7993  0.0361
17399TIP3    H273613   5.800   6.551   1.424  1.1008  0.7512  0.5708
17400TIP3   OH273614   2.290   5.945  16.885  0.1835  0.1492 -0.3231
17400TIP3    H173615   2.354   5.883  16.922  0.6091  0.6848 -0.1437
17400TIP3    H273616   2.340   5.995  16.820 -0.5456 -0.7327 -1.5986
17401TIP3   OH273617   5.568   3.840  12.969  0.1048  0.1070 -0.3118
17401TIP3    H173618   5.642   3.894  12.997  0.9878 -0.4054 -1.5824
17401TIP3    H273619   5.548   3.871  12.881 -0.0640 -0.9334 -0.6492
17402TIP3   OH273620   1.815   2.332   6.642  0.3310 -0.3413  0.1831
17402TIP3    H173621   1.761   2.410   6.629 -0.4585 -1.1248 -1.5151
17402TIP3    H273622   1.888   2.343   6.581 -0.0207 -1.1341 -0.3865
17403TIP3   OH273623   2.545   0.686   2.243 -0.0770  0.4971 -0.5096
17403TIP3    H173624   2.507   0.773   2.232 -0.1508  0.4235 -0.8471
17403TIP3    H273625   2.469   0.629   2.259  0.0840  0.7312  1.2838
17404TIP3   OH273626   5.453   4.152  11.279  0.3084  0.3935  0.0551
17404TIP3    H173627   5.392   4.098  11.330  0.0067 -0.7314 -1.4218
17404TIP3    H273628   5.506   4.198  11.345  1.2063 -2.4151  1.4434
17405TIP3   OH273629   1.783   3.333  12.479 -0.0198 -0.4906 -0.2007
17405TIP3    H173630   1.721   3.384  12.532  0.2277  0.6088 -0.9279
17405TIP3    H273631   1.739   3.322  12.395 -0.5925 -2.6074  0.3280
17406TIP3   OH273632   3.751   5.182   2.244  0.0583 -0.1144 -0.3026
17406TIP3    H173633   3.819   5.210   2.182  0.7574  1.0064  0.9201
17406TIP3    H273634   3.727   5.262   2.290 -1.2985 -0.7184  0.0690
17407TIP3   OH273635   4.839   4.536  16.589  0.1377  0.2551 -0.1725
17407TIP3    H173636   4.774   4.556  16.656  0.5988  0.7103  0.1430
17407TIP3    H273637   4.814   4.449  16.557 -0.9569  0.6514 -0.4586
17408TIP3   OH273638   1.704   3.787  11.107 -0.1596  0.3368  0.2867
17408TIP3    H173639   1.653   3.718  11.066  1.3887 -1.5101  1.3246
17408TIP3    H273640   1.741   3.836  11.034 -0.5644 -0.4812 -0.4871
17409TIP3   OH273641   0.970   4.329  16.021  0.8519  0.3314 -0.1486
17409TIP3    H173642   0.940   4.316  16.111  0.7592  0.5576 -0.1464
17409TIP3    H273643   0.894   4.367  15.976  0.8281  0.0191 -0.3753
17410TIP3   OH273644   2.551   5.508  11.555  0.0607  0.0271 -0.4780
17410TIP3    H173645   2.527   5.591  11.514 -2.2864 -1.0336 -1.4483
17410TIP3    H273646   2.541   5.523  11.649 -0.2034  0.8808 -0.6368
17411TIP3   OH273647   2.447   0.310  16.431 -0.0934  0.3969 -0.2709
17411TIP3    H173648   2.423   0.378  16.494 -0.0888  0.5447 -0.4261
17411TIP3    H273649   2.393   0.329  16.354 -0.2065  0.1294 -0.2583
17412TIP3   OH273650   5.908   5.454  11.236  0.0859 -0.5008  0.4391
17412TIP3    H173651   5.825   5.420  11.268  0.4204  0.1691  2.1720
17412TIP3    H273652   5.897   5.549  11.236  0.7855 -0.4079  0.5709
17413TIP3   OH273653   4.325   6.225  16.263  0.0135  0.0678  0.1505
17413TIP3    H173654   4.277   6.280  16.200 -0.7763 -0.0217  0.6488
17413TIP3    H273655   4.386   6.175  16.210  1.4638  2.1258 -0.2330
17414TIP3   OH273656   1.768   5.187  16.788  0.1927 -0.4000  0.6080
17414TIP3    H173657   1.857   5.217  16.771  0.3855 -0.1298  1.9844
17414TIP3    H273658   1.726   5.262  16.830 -1.1682  0.0237 -1.3814
17415TIP3   OH273659   3.414   3.162  17.270 -0.3889  0.3073 -1.1579
17415TIP3    H173660   3.475   3.167  17.197  2.0865  1.5456  0.8274
17415TIP3    H273661   3.398   3.254  17.294  0.3417 -0.0600  0.9292
17416TIP3   OH273662   0.612   5.961  15.657 -0.1112  0.1853  0.8232
17416TIP3    H173663   0.531   5.912  15.647 -0.3780  0.4335  1.6715
17416TIP3    H273664   0.656   5.919  15.732  1.3637 -1.0418 -0.6470
17417TIP3   OH273665   2.589   6.397   5.478  0.4032  0.1454 -0.3823
17417TIP3    H173666   2.585   6.316   5.427  2.5655 -0.0800 -0.3048
17417TIP3    H273667   2.676   6.433   5.459  1.1799  0.2507  2.8031
17418TIP3   OH273668   3.443   1.402   0.128 -0.1773  1.0574 -0.0864
17418TIP3    H173669   3.408   1.409   0.217 -0.9269  0.7271 -0.3422
17418TIP3    H273670   3.457   1.493   0.101 -0.9852  1.2136 -0.0220
17419TIP3   OH273671   5.386   1.478   4.641 -0.6934  0.0258 -0.1070
17419TIP3    H173672   5.438   1.398   4.653 -1.1029  0.1016  3.2623
17419TIP3    H273673   5.451   1.547   4.630 -0.3129 -0.5628 -1.9852
17420TIP3   OH273674   1.563   1.487  15.726 -0.4215 -0.3420  0.0203
17420TIP3    H173675   1.655   1.477  15.751  0.0730  3.1546  0.0520
17420TIP3    H273676   1.532   1.563  15.776 -1.7065  1.9305 -3.7819
17421TIP3   OH273677   5.014   1.949  15.599  0.7107 -0.7233  0.4933
17421TIP3    H173678   4.994   2.007  15.526  0.8708 -0.2310  0.8326
17421TIP3    H273679   4.929   1.930  15.638  0.7414  0.1863  1.0490
17422TIP3   OH273680   2.023   3.852  14.728  0.1062 -0.7398  0.0647
17422TIP3    H173681   1.957   3.798  14.684 -0.3063  1.4461 -2.2268
17422TIP3    H273682   2.095   3.857  14.666  1.7439 -1.6053  1.7976
17423TIP3   OH273683   2.147   3.626   6.676  0.5160 -0.5916  0.5203
17423TIP3    H173684   2.213   3.610   6.743  0.3295 -2.9995  0.2102
17423TIP3    H273685   2.195   3.616   6.593  0.0926 -0.7597  0.2956
17424TIP3   OH273686   6.565   3.270  14.770  0.0684 -0.4469 -0.0262
17424TIP3    H173687   6.651   3.236  14.745 -0.4281 -0.8699 -1.2420
17424TIP3    H273688   6.506   3.237  14.702 -0.9634  0.2772  0.4973
17425TIP3   OH273689   1.914   3.190   0.204 -0.5120  0.3378  0.4483
17425TIP3    H173690   1.851   3.132   0.161  1.5788 -1.2656 -0.6762
17425TIP3    H273691   1.888   3.278   0.178 -2.2709 -0.2562  0.0561
17426TIP3   OH273692   0.387   5.298  13.627  0.4460  0.8866 -0.3402
17426TIP3    H173693   0.315   5.238  13.647  1.7922 -0.3455  1.1316
17426TIP3    H273694   0.344   5.379  13.601 -1.5056  0.5123  1.4175
17427TIP3   OH273695   5.715   5.262  11.673  0.3489  0.6928  0.5672
17427TIP3    H173696   5.682   5.338  11.722 -1.4727  0.9856 -1.0048
17427TIP3    H273697   5.643   5.199  11.675  0.5974  0.3240 -0.8888
17428TIP3   OH273698   4.590   2.495   0.426  0.1809  0.7035 -0.4240
17428TIP3    H173699   4.580   2.454   0.512  0.3474  0.9631 -0.2787
17428TIP3    H273700   4.521   2.561   0.423 -0.4828  0.0135 -0.9030
17429TIP3   OH273701   3.614   5.598  10.463 -0.1956  0.0444 -0.2026
17429TIP3    H173702   3.598   5.535  10.533 -0.8658  0.4734  0.0413
17429TIP3    H273703   3.533   5.649  10.458  0.1042  0.4669 -0.8226
17430TIP3   OH273704   2.501   2.049   3.649 -0.3079  0.2259  0.0881
17430TIP3    H173705   2.442   1.974   3.642 -0.5513  0.4308 -0.1092
17430TIP3    H273706   2.444   2.122   3.673 -0.2469  0.5575 -0.7288
17431TIP3   OH273707   4.572   1.660   3.600 -0.2906  0.1831 -0.0394
17431TIP3    H173708   4.534   1.737   3.558 -0.2368 -0.5123 -1.4048
17431TIP3    H273709   4.497   1.610   3.632 -0.2847  1.8831  2.9748
17432TIP3   OH273710   0.080   0.778  12.562  0.0011  0.2561  0.0524
17432TIP3    H173711   0.002   0.829  12.540 -0.2927  0.0940  0.6944
17432TIP3    H273712   0.089   0.716  12.491  0.8052  1.6841 -1.1495
17433TIP3   OH273713   3.536   4.788   2.643  0.1437 -0.5602 -0.0230
17433TIP3    H173714   3.602   4.846   2.605 -1.2986  0.5531 -0.9383
17433TIP3    H273715   3.452   4.831   2.624 -0.8825 -2.1112  0.7666
17434TIP3   OH273716   6.431   1.786  14.228  0.0152 -0.2501  0.7261
17434TIP3    H173717   6.378   1.859  14.196 -0.1382 -0.9260 -0.6411
17434TIP3    H273718   6.391   1.708  14.188  2.4500 -0.7241 -0.9759
17435TIP3   OH273719   1.512   1.226  14.151  0.4099 -0.2417  0.5527
17435TIP3    H173720   1.492   1.307  14.104  0.6571 -0.0344  0.8052
17435TIP3    H273721   1.433   1.173  14.140  0.5009 -0.2413 -0.1807
17436TIP3   OH273722   5.254   2.109   5.990  0.4844  0.8069 -0.1910
17436TIP3    H173723   5.262   2.190   6.040  0.4939  1.9440 -1.9592
17436TIP3    H273724   5.343   2.075   5.987  0.8023  1.6573 -0.8824
17437TIP3   OH273725   3.490   4.845   3.206  0.4537 -0.1301  0.0029
17437TIP3    H173726   3.433   4.872   3.134 -0.2896 -1.8064 -0.0830
17437TIP3    H273727   3.544   4.922   3.223 -0.9667  1.1110 -0.7513
17438TIP3   OH273728   5.795   0.968  13.759  0.4795  0.2647  0.1723
17438TIP3    H173729   5.826   1.056  13.779 -0.9666  0.4277  1.9929
17438TIP3    H273730   5.703   0.980  13.734  0.2423 -0.7096  0.5248
17439TIP3   OH273731   2.248   4.412   2.886  0.5764  0.1811 -0.0028
17439TIP3    H173732   2.176   4.474   2.889  0.9668  0.5898  1.9605
17439TIP3    H273733   2.247   4.378   2.796 -1.2976  1.0446 -0.3435
17440TIP3   OH273734   5.699   5.520  17.038 -0.4531  0.2046 -0.1840
17440TIP3    H173735   5.750   5.563  16.969  0.5948 -2.6075 -1.3102
17440TIP3    H273736   5.622   5.486  16.992  0.0284 -1.3005  0.0504
17441TIP3   OH273737   3.629   4.617   3.452  0.6832 -0.5359  0.1633
17441TIP3    H173738   3.662   4.597   3.365  1.8273  0.4498  0.3398
17441TIP3    H273739   3.657   4.544   3.506 -1.4377 -1.9828 -0.5601
17442TIP3   OH273740   4.840   5.029   2.097  0.3095 -0.1366 -0.1897
17442TIP3    H173741   4.894   5.100   2.062  2.4548 -0.2073  2.6709
17442TIP3    H273742   4.866   4.952   2.047  0.3051  0.4620 -1.1432
17443TIP3   OH273743   0.264   1.342  11.496  0.2641  0.6193 -0.7321
17443TIP3    H173744   0.249   1.412  11.432 -2.2830  0.4213 -0.4628
17443TIP3    H273745   0.190   1.350  11.557  1.6819 -0.2791  1.2130
17444TIP3   OH273746   1.525   6.427   4.552 -0.1025  0.3765 -0.5092
17444TIP3    H173747   1.543   6.398   4.463  2.9455  0.3461 -0.0085
17444TIP3    H273748   1.531   6.523   4.548  2.2294  0.3064 -0.0393
17445TIP3   OH273749   0.541   6.229  16.991  0.5727 -0.4227 -0.0829
17445TIP3    H173750   0.512   6.191  16.908  0.1941 -0.7361  0.1901
17445TIP3    H273751   0.613   6.287  16.967  1.5590 -1.7516 -0.4330
17446TIP3   OH273752   5.920   1.873  12.294 -0.3803  0.3050 -0.2338
17446TIP3    H173753   5.886   1.803  12.350  0.4344 -0.3660 -0.5579
17446TIP3    H273754   5.884   1.953  12.331 -0.9621 -0.2434  0.4167
17447TIP3   OH273755   6.650   0.210  16.207  0.9189  0.0499 -0.7297
17447TIP3    H173756   6.592   0.144  16.247 -0.3006  0.4879 -1.6993
17447TIP3    H273757   6.732   0.203  16.256 -0.0034 -0.4861  0.8259
17448TIP3   OH273758   3.589   3.568   5.750  0.2982 -0.0788  0.6539
17448TIP3    H173759   3.547   3.497   5.798  1.2372  0.2575  2.0253
17448TIP3    H273760   3.579   3.645   5.807  2.6035  0.0426  0.9879
17449TIP3   OH273761   4.126   4.833   4.367 -0.2251  0.0976 -0.0511
17449TIP3    H173762   4.135   4.740   4.347 -1.3982  0.1607 -1.0396
17449TIP3    H273763   4.033   4.844   4.389  0.2021  0.7957  1.5252
17450TIP3   OH273764   2.342   6.455  13.027  0.3081 -0.2082  1.0704
17450TIP3    H173765   2.280   6.498  13.084 -0.4867  0.5013 -0.2750
17450TIP3    H273766   2.389   6.526  12.984  0.2044 -0.6819  0.1367
17451TIP3   OH273767   4.704   1.348  13.651  0.0341 -0.1897 -0.0921
17451TIP3    H173768   4.748   1.432  13.664 -0.3926 -0.2088  1.7171
17451TIP3    H273769   4.623   1.371  13.605 -0.7125  0.6020  1.5310
17452TIP3   OH273770   2.168   2.546  13.095 -0.4727 -0.4405  0.1785
17452TIP3    H173771   2.146   2.639  13.102 -2.0843 -0.6314 -1.3644
17452TIP3    H273772   2.259   2.545  13.066 -1.2288  0.8355 -2.6747
17453TIP3   OH273773   2.319   5.584   0.813 -0.0839 -0.2909  0.4377
17453TIP3    H173774   2.358   5.617   0.732 -0.9458  1.7990  0.8032
17453TIP3    H273775   2.225   5.587   0.798 -0.2391 -2.7781  0.4995
17454TIP3   OH273776   0.282   0.916   2.043  0.1744  0.0554 -0.2916
17454TIP3    H173777   0.364   0.869   2.061  0.5932  0.9925  0.3196
17454TIP3    H273778   0.215   0.849   2.048  0.7643 -0.4996  0.5652
17455TIP3   OH273779   5.503   0.424   1.814  0.0126 -0.2615 -0.4152
17455TIP3    H173780   5.505   0.421   1.910 -1.6725 -1.8548 -0.3855
17455TIP3    H273781   5.474   0.337   1.788 -2.3149  0.9714 -2.2662
17456TIP3   OH273782   4.952   5.470   0.164  0.1941 -0.2962  0.4860
17456TIP3    H173783   4.900   5.397   0.198 -1.6385 -0.0681 -1.5888
17456TIP3    H273784   5.042   5.438   0.164  0.0112 -1.0702  3.2888
17457TIP3   OH273785   4.189   6.387   3.895  0.1796 -0.2973  0.3091
17457TIP3    H173786   4.154   6.298   3.899  3.8866 -1.9233  0.6321
17457TIP3    H273787   4.206   6.411   3.986  0.6836  0.0745  0.1234
17458TIP3   OH273788   2.560   1.698  15.690 -0.1160 -0.6789  0.3421
17458TIP3    H173789   2.466   1.683  15.702 -0.1476 -0.3808  0.4518
17458TIP3    H273790   2.580   1.654  15.607 -0.3841 -0.5998  0.2364
17459TIP3   OH273791   5.533   4.036   3.069  0.3210  0.6201  0.1803
17459TIP3    H173792   5.621   4.074   3.060  0.7584 -0.3562  0.1756
17459TIP3    H273793   5.496   4.042   2.981  0.3525  1.1050  0.1971
17460TIP3   OH273794   0.115   0.339  15.008 -0.4575  0.6121  0.2316
17460TIP3    H173795   0.146   0.295  15.087 -1.0032  0.5983  0.4412
17460TIP3    H273796   0.027   0.304  14.994 -1.1592  2.0588  0.7520
17461TIP3   OH273797   5.199   4.341  13.761 -0.7570  0.3607  0.6095
17461TIP3    H173798   5.131   4.408  13.755  0.2330  1.3762  0.4697
17461TIP3    H273799   5.255   4.370  13.834  1.1623  1.1214 -1.0667
17462TIP3   OH273800   6.511   5.642  14.856 -0.1872  0.4596 -0.0833
17462TIP3    H173801   6.482   5.602  14.774  0.7031  1.1265 -0.7491
17462TIP3    H273802   6.431   5.653  14.907 -1.0557  1.7142 -1.6178
17463TIP3   OH273803   5.878   0.525   3.975 -0.2593 -0.4583  0.2558
17463TIP3    H173804   5.931   0.480   4.040 -0.7929 -2.5649 -0.6734
17463TIP3    H273805   5.871   0.463   3.902 -2.3158  0.5290 -0.4780
17464TIP3   OH273806   0.654   1.659  17.219 -0.0947  0.0862  0.2647
17464TIP3    H173807   0.725   1.719  17.240 -0.0945 -0.3552  1.5848
17464TIP3    H273808   0.675   1.579  17.267  1.3022 -2.0053 -3.3433
17465TIP3   OH273809   0.400   3.367   3.667 -0.1695 -0.6749  0.2846
17465TIP3    H173810   0.434   3.376   3.756  0.1414  1.2967  0.0139
17465TIP3    H273811   0.387   3.273   3.655  2.1332 -1.2108  1.5248
17466TIP3   OH273812   5.182   5.114   0.498 -0.2067 -0.0252  0.1291
17466TIP3    H173813   5.275   5.137   0.494  0.0618 -1.0732  0.0195
17466TIP3    H273814   5.167   5.088   0.589 -0.3704  0.0132  0.1148
17467TIP3   OH273815   6.754   2.541  14.424  0.5847  0.2798 -0.2952
17467TIP3    H173816   6.847   2.543  14.402  0.0830 -1.3494 -3.1469
17467TIP3    H273817   6.710   2.573  14.346 -1.3016 -0.6108  0.3284
17468TIP3   OH273818   2.752   4.535   3.218 -0.2977 -0.3263  0.0463
17468TIP3    H173819   2.735   4.586   3.138  0.1768  0.2621  0.3107
17468TIP3    H273820   2.665   4.514   3.252 -0.5060  0.2647 -0.1049
17469TIP3   OH273821   2.704   6.314   0.981  0.0085  0.2594  0.9726
17469TIP3    H173822   2.731   6.293   0.892  3.8653  0.2836  1.9356
17469TIP3    H273823   2.657   6.237   1.012 -0.3253 -0.2166 -0.6522
17470TIP3   OH273824   6.350   0.769   5.058 -0.1171 -0.3663 -0.0121
17470TIP3    H173825   6.328   0.824   4.982  2.0535  0.9593  0.2160
17470TIP3    H273826   6.342   0.828   5.133 -1.6628 -1.5077  0.7855
17471TIP3   OH273827   6.105   0.541   0.953  0.1440  0.1764 -0.1005
17471TIP3    H173828   6.199   0.523   0.957 -0.1031 -1.0577  0.8859
17471TIP3    H273829   6.090   0.606   1.022 -0.0586 -1.4094  1.4132
17472TIP3   OH273830   0.131   6.671   5.490  0.0462  0.0002 -0.0481
17472TIP3    H173831   0.060   6.695   5.430 -0.0388  0.3934  0.2115
17472TIP3    H273832   0.208   6.714   5.455 -0.1898  1.0416  0.6630
17473TIP3   OH273833   0.689   5.941  16.485  0.1995 -0.5028  0.2276
17473TIP3    H173834   0.637   5.896  16.551 -0.3513  1.1131  0.9539
17473TIP3    H273835   0.660   5.904  16.401 -2.9154  0.9979  0.5031
17474TIP3   OH273836   1.936   5.309   1.196 -0.2241 -0.0211 -0.4072
17474TIP3    H173837   2.009   5.258   1.230 -0.2244 -0.0771 -0.4908
17474TIP3    H273838   1.946   5.305   1.101  1.3175  2.3484 -0.4176
17475TIP3   OH273839   3.305   0.727  15.332 -0.7545 -1.1509 -0.0652
17475TIP3    H173840   3.268   0.738  15.244 -1.9272 -1.4481  0.3601
17475TIP3    H273841   3.273   0.803  15.381  0.2046 -0.7914  0.0129
17476TIP3   OH273842   5.528   4.528   2.779 -0.2047 -0.4532  0.2873
17476TIP3    H173843   5.559   4.481   2.702  1.7206 -0.6217  1.1224
17476TIP3    H273844   5.559   4.618   2.766 -1.2214 -0.1054  0.1566
17477TIP3   OH273845   6.058   5.501  14.137  0.9840  0.1328  0.0542
17477TIP3    H173846   6.019   5.521  14.052  1.5754  0.1995 -0.2068
17477TIP3    H273847   6.101   5.416  14.124  0.7645 -0.0326  0.3924
17478TIP3   OH273848   6.525   5.293  15.578 -0.2548 -0.1707 -0.3364
17478TIP3    H173849   6.466   5.365  15.554 -1.3340 -0.8189  0.3127
17478TIP3    H273850   6.480   5.248  15.649  1.5601  0.0013  0.9686
17479TIP3   OH273851   2.553   6.544   2.751  0.0747 -0.2752  0.0779
17479TIP3    H173852   2.510   6.622   2.717  0.2492  0.0232  0.5344
17479TIP3    H273853   2.488   6.503   2.808  0.5224  0.4018  1.1020
17480TIP3   OH273854   0.689   6.087   1.581  0.5357  0.1318  0.7282
17480TIP3    H173855   0.645   6.110   1.663 -0.0988  0.6856  0.2390
17480TIP3    H273856   0.714   6.171   1.543 -0.4509 -0.0394 -0.3362
17481TIP3   OH273857   5.067   2.023   5.471  0.1412  0.5845  0.4728
17481TIP3    H173858   5.115   1.946   5.439 -1.8405  0.3531 -2.2654
17481TIP3    H273859   5.091   2.028   5.563  2.2871 -1.8238  0.1932
17482TIP3   OH273860   5.289   3.597  10.515  0.2705  0.3964  0.3108
17482TIP3    H173861   5.363   3.578  10.457 -1.4905  1.8206 -2.6533
17482TIP3    H273862   5.243   3.513  10.521 -0.4967  0.5574 -2.0228
17483TIP3   OH273863   4.969   1.789   5.604  0.1649 -0.1331 -0.1789
17483TIP3    H173864   5.024   1.777   5.527 -1.3134 -0.3147 -1.2537
17483TIP3    H273865   5.029   1.819   5.672  1.6032 -0.5130 -1.2377
17484TIP3   OH273866   1.795   3.942   2.173  0.2493  0.2968 -0.4972
17484TIP3    H173867   1.885   3.971   2.190  0.8983 -0.6751 -2.0131
17484TIP3    H273868   1.781   3.870   2.234 -1.0032  2.8884  2.5591
17485TIP3   OH273869   0.254   6.122   0.251  0.0205  0.1876  0.1869
17485TIP3    H173870   0.211   6.080   0.325  3.5277 -0.9653  1.8293
17485TIP3    H273871   0.243   6.060   0.179 -0.0999 -0.6413  0.8937
17486TIP3   OH273872   2.413   0.901   2.300  0.3675 -0.2622  0.3764
17486TIP3    H173873   2.438   0.870   2.387  0.9843  1.9359  1.0479
17486TIP3    H273874   2.336   0.956   2.316 -0.6784 -1.3427 -0.7537
17487TIP3   OH273875   2.581   4.092  16.501  0.3488  0.1443 -0.4679
17487TIP3    H173876   2.488   4.076  16.516  0.6372  0.0753  1.5102
17487TIP3    H273877   2.619   4.004  16.499  0.5127  0.2098 -0.2054
17488TIP3   OH273878   3.945   5.857  13.780  0.3072 -0.2583 -0.3929
17488TIP3    H173879   3.982   5.930  13.730  0.6344  0.6528  1.1095
17488TIP3    H273880   4.012   5.835  13.845 -1.1178  0.4555  1.4313
17489TIP3   OH273881   2.454   0.346   6.209  0.1888  0.3733 -0.6461
17489TIP3    H173882   2.448   0.267   6.263 -1.0704  1.3369  0.7204
17489TIP3    H273883   2.371   0.392   6.225  1.4897  2.7256 -0.1475
17490TIP3   OH273884   1.883   3.135  14.675  0.3091  0.5748 -0.0752
17490TIP3    H173885   1.834   3.064  14.634  0.2868  0.2006  0.5823
17490TIP3    H273886   1.974   3.106  14.675  0.5113  1.1766 -1.0995
17491TIP3   OH273887   1.526   5.219   3.299  0.3077 -0.5090 -0.1470
17491TIP3    H173888   1.566   5.304   3.282 -0.3673 -0.2424 -0.4047
17491TIP3    H273889   1.583   5.179   3.366  1.5704 -0.5555 -1.2021
17492TIP3   OH273890   4.418   6.054   2.949  0.2241  0.1180  0.3113
17492TIP3    H173891   4.399   5.984   2.886 -0.3322 -1.4273  2.1124
17492TIP3    H273892   4.386   6.133   2.906  0.4845 -0.7591 -1.6289
17493TIP3   OH273893   5.846   2.290   0.218 -0.2846 -0.5562  0.6320
17493TIP3    H173894   5.850   2.238   0.298 -2.7244 -0.6253  0.7744
17493TIP3    H273895   5.767   2.260   0.173  1.2733 -0.9344 -2.1477
17494TIP3   OH273896   0.465   3.140  15.756 -0.0167 -0.2941  0.2277
17494TIP3    H173897   0.552   3.161  15.790 -0.1077  0.4126  0.0365
17494TIP3    H273898   0.406   3.196  15.806  0.0730  2.8375 -2.8385
17495TIP3   OH273899   1.230   1.312   1.733  0.5394  0.0537 -0.2003
17495TIP3    H173900   1.273   1.253   1.671  0.8020 -0.3388  0.3498
17495TIP3    H273901   1.298   1.334   1.796 -0.1804 -0.9817  0.9748
17496TIP3   OH273902   0.786   5.997   3.642 -0.0163  0.3875 -0.0051
17496TIP3    H173903   0.827   6.083   3.643  0.0091  0.3867  1.7387
17496TIP3    H273904   0.693   6.014   3.654  0.0698  0.1594  1.0882
17497TIP3   OH273905   2.602   3.949  13.197  0.1698 -0.2223  0.1005
17497TIP3    H173906   2.525   3.982  13.151 -0.9448  1.2411  2.7265
17497TIP3    H273907   2.669   4.016  13.183 -0.0660  0.0644  0.3202
17498TIP3   OH273908   2.077   0.486  12.979 -0.5616  0.3967 -0.0242
17498TIP3    H173909   2.113   0.404  13.012  0.6743  0.7481 -0.4411
17498TIP3    H273910   2.140   0.553  13.006  0.4194  0.7373 -2.8158
17499TIP3   OH273911   0.054   6.134   0.956  0.3638  0.2722  0.0399
17499TIP3    H173912  -0.021   6.192   0.938  0.3505  0.3040  0.1981
17499TIP3    H273913   0.091   6.168   1.037  2.2367  1.9818 -1.4384
17500TIP3   OH273914   4.711   1.960   3.865  1.0386  0.0377  0.6147
17500TIP3    H173915   4.713   1.867   3.842  1.6610  0.3417 -0.6321
17500TIP3    H273916   4.789   1.973   3.918  0.6357 -0.2632  1.2944
17501TIP3   OH273917   6.229   5.299   2.912  0.6364  0.0306  0.3070
17501TIP3    H173918   6.228   5.392   2.889  0.4403 -0.3269 -1.2274
17501TIP3    H273919   6.138   5.278   2.932  0.0571 -0.4907 -2.4048
17502TIP3   OH273920   2.357   2.523   0.471  0.2395 -0.6279 -0.4838
17502TIP3    H173921   2.423   2.589   0.449 -0.5582  0.8856  1.3753
17502TIP3    H273922   2.401   2.466   0.535 -0.5593  1.1725  1.7855
17503TIP3   OH273923   6.075   3.484  13.973 -0.5207  0.2366 -0.2551
17503TIP3    H173924   6.159   3.521  13.999 -0.2476 -0.6172  0.1167
17503TIP3    H273925   6.010   3.546  14.006 -0.0081  1.6117 -1.7350
17504TIP3   OH273926   1.241   1.474   2.165  0.5030  0.1468  0.3210
17504TIP3    H173927   1.164   1.427   2.195 -0.6275  0.4144 -1.9436
17504TIP3    H273928   1.264   1.433   2.081  2.7871  0.1433  0.8772
17505TIP3   OH273929   1.188   5.206  15.975  0.2644 -0.0228  0.0589
17505TIP3    H173930   1.272   5.250  15.963  0.1772  0.0321 -0.3577
17505TIP3    H273931   1.209   5.129  16.029  0.7806 -0.6299 -0.9590
17506TIP3   OH273932   1.448   1.423   0.208 -0.1320 -0.1017  0.3956
17506TIP3    H173933   1.509   1.403   0.279 -0.7594  1.2177  1.3368
17506TIP3    H273934   1.504   1.456   0.137  0.4007 -0.5341  0.6045
17507TIP3   OH273935   1.373   6.344  16.718 -0.2780  0.3065 -0.0682
17507TIP3    H173936   1.468   6.350  16.725 -0.2580 -0.9799  1.3649
17507TIP3    H273937   1.352   6.256  16.748 -1.9161  0.4593 -0.6325
17508TIP3   OH273938   6.030   3.763  15.915 -0.5034  0.1302  0.2121
17508TIP3    H173939   6.024   3.685  15.860 -1.4385 -1.0684  1.9189
17508TIP3    H273940   6.036   3.836  15.853 -1.2846 -1.1592 -1.4643
17509TIP3   OH273941   1.536   1.696  12.535  0.4035  0.2653 -0.0513
17509TIP3    H173942   1.615   1.687  12.589 -0.6006 -1.1636  1.2655
17509TIP3    H273943   1.488   1.769  12.575  0.6787  0.6350 -0.3838
17510TIP3   OH273944   2.733   0.885   3.187  0.5406 -0.1382  0.4856
17510TIP3    H173945   2.734   0.979   3.203 -0.5784 -0.0212  0.0064
17510TIP3    H273946   2.752   0.845   3.272  1.5425  0.5067  0.5880
17511TIP3   OH273947   3.674   2.469   4.630 -0.5258  0.2434  0.4514
17511TIP3    H173948   3.718   2.424   4.702 -0.8857 -0.4539  0.2404
17511TIP3    H273949   3.592   2.501   4.668 -1.0556 -0.7471  0.1926
17512TIP3   OH273950   3.436   3.335   5.932  0.0570 -0.5935 -0.5216
17512TIP3    H173951   3.356   3.385   5.915  0.0418 -0.1200  0.7903
17512TIP3    H273952   3.435   3.320   6.027 -0.3421 -3.8481 -0.9556
17513TIP3   OH273953   0.484   3.525   1.277 -0.4108 -0.1091  0.3407
17513TIP3    H173954   0.527   3.455   1.327 -2.8162 -1.0989  1.1933
17513TIP3    H273955   0.555   3.567   1.229  1.3811 -2.0451  1.1184
17514TIP3   OH273956   4.858   3.754   4.042  0.2306  0.6917  0.1797
17514TIP3    H173957   4.811   3.837   4.030 -0.1854  0.5099  0.5611
17514TIP3    H273958   4.864   3.718   3.953 -1.7917 -0.0716  0.2950
17515TIP3   OH273959   5.968   6.273   2.583 -0.1537  0.1026 -0.2262
17515TIP3    H173960   5.968   6.300   2.675  2.2436  0.5748 -0.2952
17515TIP3    H273961   5.978   6.355   2.534 -1.5359 -0.1320 -0.9471
17516TIP3   OH273962   6.448   3.025   0.734 -0.2834  0.0659  0.2514
17516TIP3    H173963   6.504   3.003   0.660  0.8833  1.4001  0.7088
17516TIP3    H273964   6.470   2.959   0.800  0.2612  0.1834  0.1910
17517TIP3   OH273965   5.848   3.590  11.800  0.3164 -0.4968 -0.0554
17517TIP3    H173966   5.921   3.650  11.787 -1.2546  1.3342 -0.9093
17517TIP3    H273967   5.809   3.580  11.713 -1.3607 -0.1962  0.6311
17518TIP3   OH273968   3.044   0.714  11.237  0.1490 -0.3450 -0.0134
17518TIP3    H173969   3.095   0.751  11.165  0.5353 -0.1455  0.3590
17518TIP3    H273970   2.979   0.782  11.257 -0.9992 -1.0472 -1.2214
17519TIP3   OH273971   2.761   2.017   4.098  0.3515  0.0133 -0.3728
17519TIP3    H173972   2.743   1.955   4.028  0.8980 -0.0715 -0.4418
17519TIP3    H273973   2.680   2.020   4.149  0.9611 -2.3239  0.8523
17520TIP3   OH273974   1.546   2.625  11.343  0.0830  0.1076 -0.1592
17520TIP3    H173975   1.543   2.590  11.254 -1.1946 -0.4347  0.0791
17520TIP3    H273976   1.573   2.716  11.332 -1.0791  0.3420 -1.2066
17521TIP3   OH273977   3.806   3.337   0.228 -0.0290 -0.7392 -0.7921
17521TIP3    H173978   3.895   3.348   0.193  0.3790 -0.7055  0.2099
17521TIP3    H273979   3.768   3.267   0.176  0.8998 -1.3451 -0.6680
17522TIP3   OH273980   4.396   1.692  14.713 -0.0057 -0.0782  0.2411
17522TIP3    H173981   4.321   1.645  14.676 -1.5559  2.0947  0.4187
17522TIP3    H273982   4.411   1.652  14.798 -0.7691 -0.7589  0.0640
17523TIP3   OH273983   6.375   5.323  15.123 -0.1208 -0.1628  0.1423
17523TIP3    H173984   6.360   5.415  15.098 -1.8254 -0.3509  0.3299
17523TIP3    H273985   6.439   5.291  15.059 -0.0822  0.9464 -0.3994
17524TIP3   OH273986   6.040   5.971   2.173  0.2763  0.1884  0.5213
17524TIP3    H173987   6.122   5.981   2.221  1.1415 -0.3633 -0.7716
17524TIP3    H273988   6.034   6.050   2.119 -1.1580  1.2516  2.1477
17525TIP3   OH273989   1.064   0.561   1.005 -0.6409 -0.1408 -0.4518
17525TIP3    H173990   1.077   0.467   0.991 -0.4408 -0.1893  0.0541
17525TIP3    H273991   1.009   0.588   0.932 -1.3541 -0.8038 -0.1773
17526TIP3   OH273992   4.396   5.254  17.166  0.3270 -0.0036 -0.1231
17526TIP3    H173993   4.399   5.180  17.105 -1.5152 -0.2520  0.0269
17526TIP3    H273994   4.342   5.223  17.239 -2.2274  2.0385 -0.9646
17527TIP3   OH273995   2.075   3.910   4.281  0.1011 -0.2043  0.6102
17527TIP3    H173996   2.074   4.004   4.294  2.0672 -0.4576  3.5558
17527TIP3    H273997   1.998   3.878   4.327 -1.3801 -0.0442 -1.5871
17528TIP3   OH273998   6.377   3.192   2.453 -0.1871  0.2687  0.2819
17528TIP3    H173999   6.345   3.194   2.543 -0.5034  0.3479  0.1692
17528TIP3    H274000   6.394   3.283   2.432 -0.3003  0.2715  0.1980
17529TIP3   OH274001   1.164   1.718   2.263  0.7010  0.5426  0.2594
17529TIP3    H174002   1.069   1.731   2.259  0.8249  1.2791 -0.9419
17529TIP3    H274003   1.174   1.624   2.280 -0.2456  0.3266 -0.2678
17530TIP3   OH274004   3.778   6.148   2.663 -0.5780  0.5736 -0.2408
17530TIP3    H174005   3.871   6.127   2.655 -0.8046 -0.2049 -0.9127
17530TIP3    H274006   3.737   6.068   2.695 -0.7883  1.4353  1.8277
17531TIP3   OH274007   1.110   3.120   3.808  0.2724  0.1342 -0.4806
17531TIP3    H174008   1.173   3.053   3.837  1.4814  0.9243 -1.1675
17531TIP3    H274009   1.029   3.098   3.852  1.9476  1.3042  3.6931
17532TIP3   OH274010   4.889   1.274   3.352  0.1190  0.2668  0.3426
17532TIP3    H174011   4.863   1.312   3.435  1.1615 -1.1424  1.3738
17532TIP3    H274012   4.822   1.207   3.334  2.1473 -2.5706  2.4244
17533TIP3   OH274013   5.251   1.835  13.851  0.2132  0.0963 -0.3389
17533TIP3    H174014   5.279   1.901  13.914 -0.6480  0.8422 -0.7185
17533TIP3    H274015   5.307   1.850  13.774 -1.0914  1.5512 -1.0763
17534TIP3   OH274016   5.506   0.147   5.488 -0.3345 -0.6836  0.2311
17534TIP3    H174017   5.524   0.142   5.582  3.4562 -4.1443 -0.4155
17534TIP3    H274018   5.423   0.101   5.477 -0.6192 -0.6108  1.7970
17535TIP3   OH274019   6.304   1.071  15.427  0.2198 -0.5167  0.3542
17535TIP3    H174020   6.255   1.113  15.497  0.3902 -1.1256  0.8454
17535TIP3    H274021   6.237   1.042  15.365  0.1101  0.5573 -0.0370
17536TIP3   OH274022   1.043   0.792   4.155  0.3850 -0.0539 -0.1028
17536TIP3    H174023   1.015   0.708   4.192 -1.9697  0.1081 -1.3526
17536TIP3    H274024   1.037   0.780   4.061  0.7435  1.2878 -0.3091
17537TIP3   OH274025   6.627   0.309  12.398 -0.3030 -0.1023 -0.2606
17537TIP3    H174026   6.639   0.214  12.395 -0.3663 -0.1250  0.0903
17537TIP3    H274027   6.708   0.341  12.438  0.1995  0.0983 -1.3986
17538TIP3   OH274028   2.694   0.855  12.941 -0.2631 -0.2671 -0.5719
17538TIP3    H174029   2.743   0.906  12.876  0.9041  0.4212  0.8023
17538TIP3    H274030   2.610   0.901  12.949  0.8309  1.6513  0.7727
17539TIP3   OH274031   1.007   2.875  16.064 -0.4368 -0.0327  0.0524
17539TIP3    H174032   1.000   2.834  16.150 -0.0479 -0.4190 -0.0958
17539TIP3    H274033   0.920   2.912  16.048 -0.8975 -1.0521  0.0670
17540TIP3   OH274034   1.889   5.660   4.003 -0.1021  0.0443 -0.2520
17540TIP3    H174035   1.887   5.680   3.909 -1.8532  2.4449  0.2054
17540TIP3    H274036   1.803   5.622   4.021  0.9046 -2.2771  0.1184
17541TIP3   OH274037   0.417   4.414   1.632 -0.5633  0.2560 -0.1728
17541TIP3    H174038   0.337   4.361   1.625 -0.3829  0.0291 -0.5533
17541TIP3    H274039   0.471   4.369   1.696 -0.0805 -0.4647 -1.0576
17542TIP3   OH274040   0.378   6.078  11.490  0.1048  0.2822  0.6923
17542TIP3    H174041   0.448   6.109  11.432 -0.0104  0.6254  0.7321
17542TIP3    H274042   0.299   6.080  11.436 -0.6489  3.6732  1.6642
17543TIP3   OH274043   2.036   0.156   5.707  0.2000 -0.1993 -0.1164
17543TIP3    H174044   1.969   0.209   5.664 -0.0769  0.1114  0.6795
17543TIP3    H274045   2.051   0.083   5.647  0.3873  0.6224 -1.1116
17544TIP3   OH274046   1.408   1.719   2.766  0.1664  0.1979  0.0483
17544TIP3    H174047   1.424   1.801   2.720  0.6284  0.8139  1.2758
17544TIP3    H274048   1.457   1.654   2.715  0.3296  0.7934 -0.5654
17545TIP3   OH274049   3.348   0.947  13.304  0.0651  0.4664  0.6540
17545TIP3    H174050   3.406   0.892  13.357 -0.2833  0.0399  0.5995
17545TIP3    H274051   3.313   0.888  13.237  0.0967  0.8795  0.2674
17546TIP3   OH274052   3.709   3.788   6.478  0.0066  0.5544  0.4808
17546TIP3    H174053   3.710   3.692   6.477 -0.1998  0.5054  2.0118
17546TIP3    H274054   3.618   3.811   6.457 -0.0807  0.3877  0.6690
17547TIP3   OH274055   1.798   0.883  14.064 -0.0116 -0.1482 -0.4946
17547TIP3    H174056   1.804   0.972  14.029 -1.0298  0.0048 -0.3111
17547TIP3    H274057   1.851   0.885  14.144  0.0678  0.2668 -0.5546
17548TIP3   OH274058   4.377   1.721  11.544 -0.2560  0.3259 -0.2446
17548TIP3    H174059   4.456   1.673  11.521 -1.6071 -1.3537 -1.7104
17548TIP3    H274060   4.358   1.774  11.467 -1.4394 -0.5734 -0.5988
17549TIP3   OH274061   2.440   6.055  16.456 -0.1127  0.0081 -0.3185
17549TIP3    H174062   2.434   6.015  16.542 -0.1753  0.8567  0.0848
17549TIP3    H274063   2.534   6.052  16.435  0.2056  1.5900  0.6837
17550TIP3   OH274064   2.524   5.601   4.605 -0.1227 -0.0832 -0.6008
17550TIP3    H174065   2.516   5.672   4.541  0.6769 -0.0729 -0.6969
17550TIP3    H274066   2.481   5.635   4.683  0.1257  0.4519 -0.6906
17551TIP3   OH274067   4.251   2.470   5.657  0.4377 -0.0880  0.3432
17551TIP3    H174068   4.207   2.387   5.635  2.5989 -1.1929 -0.1017
17551TIP3    H274069   4.327   2.443   5.709  0.7011  1.7226  0.9522
17552TIP3   OH274070   0.960   4.130  16.630 -0.4753 -0.0767 -0.0008
17552TIP3    H174071   1.009   4.165  16.703 -1.4323  1.6688 -0.1496
17552TIP3    H274072   0.968   4.196  16.561 -1.2485 -0.7547 -0.7698
17553TIP3   OH274073   4.757   3.954  15.136 -0.3653 -0.3812  0.2621
17553TIP3    H174074   4.755   4.018  15.065 -1.7446  0.6217  1.1662
17553TIP3    H274075   4.678   3.901  15.123  0.2604 -1.2992  0.0876
17554TIP3   OH274076   4.657   4.671   1.777 -0.8079  0.2039  0.4178
17554TIP3    H174077   4.695   4.756   1.802  0.0694 -0.4344  1.3038
17554TIP3    H274078   4.617   4.688   1.691  2.1516  0.7581 -1.0056
17555TIP3   OH274079   2.049   6.428  13.947 -0.4885  0.0686 -0.1073
17555TIP3    H174080   2.140   6.407  13.965 -0.3327 -0.4402 -1.4096
17555TIP3    H274081   2.014   6.457  14.032  0.5800 -0.7686  0.6488
17556TIP3   OH274082   1.005   1.470   2.887  0.2374  0.1778  0.9080
17556TIP3    H174083   0.986   1.419   2.808 -1.1983 -0.3902  1.5954
17556TIP3    H274084   1.098   1.453   2.904  0.5002  0.0677 -0.4700
17557TIP3   OH274085   0.960   5.526   5.269  0.2829  0.1621 -0.2618
17557TIP3    H174086   0.943   5.569   5.353  1.0177 -1.7974  0.9501
17557TIP3    H274087   1.049   5.554   5.246  0.1662  0.5210 -0.2874
17558TIP3   OH274088   1.598   0.871   3.973 -0.7477 -0.4357 -0.5340
17558TIP3    H174089   1.685   0.857   4.011 -1.1949 -1.2113  0.2222
17558TIP3    H274090   1.600   0.823   3.890 -0.8998 -1.6165  0.1234
17559TIP3   OH274091   0.025   5.226  12.949  0.4440 -0.3916  0.0606
17559TIP3    H174092   0.010   5.250  13.041  1.9218  0.0577  0.2078
17559TIP3    H274093   0.110   5.181  12.950  0.1656 -0.9717 -1.0072
17560TIP3   OH274094   4.346   3.380   0.490 -0.4940  0.4034  0.5520
17560TIP3    H174095   4.330   3.378   0.584 -0.8207  1.8300  0.5465
17560TIP3    H274096   4.354   3.473   0.469  2.0038  0.0258 -0.4388
17561TIP3   OH274097   3.373   2.954   3.308  0.4871 -0.3588 -0.1588
17561TIP3    H174098   3.398   2.906   3.387  0.2289 -0.7328 -0.3004
17561TIP3    H274099   3.453   2.997   3.279  0.2133  1.2944  1.3289
17562TIP3   OH274100   5.163   1.007   2.531  0.1961  0.4818 -0.2813
17562TIP3    H174101   5.146   0.963   2.448 -0.8386  0.6047 -0.1500
17562TIP3    H274102   5.077   1.033   2.563  0.4705 -0.4073  1.3030
17563TIP3   OH274103   3.561   5.784  17.260  0.1462 -0.2234 -0.0935
17563TIP3    H174104   3.509   5.799  17.338 -0.1086  1.9076 -0.6174
17563TIP3    H274105   3.525   5.703  17.223 -0.5429 -0.5918  1.3079
17564TIP3   OH274106   6.559   4.610  15.006  0.3113 -0.3983 -0.2704
17564TIP3    H174107   6.571   4.610  15.101 -0.4895 -2.1795 -0.1234
17564TIP3    H274108   6.624   4.672  14.973  1.1009 -0.3034  1.3824
17565TIP3   OH274109   5.293   1.834   4.538 -0.5659  0.2405 -0.1274
17565TIP3    H174110   5.367   1.873   4.585 -0.3985 -0.4114  0.1572
17565TIP3    H274111   5.233   1.806   4.606 -0.0580 -1.2362 -0.2534
17566TIP3   OH274112   0.128   0.110  16.803 -0.0425 -0.2007  0.5617
17566TIP3    H174113   0.159   0.147  16.886 -1.9924 -0.3136  1.4049
17566TIP3    H274114   0.082   0.031  16.829 -2.3288  0.7379 -0.3629
17567TIP3   OH274115   3.246   1.990   0.949 -0.0020 -0.4232 -0.0170
17567TIP3    H174116   3.260   2.067   1.004 -3.3325  1.4762 -1.4862
17567TIP3    H274117   3.197   1.929   1.004 -1.5149  0.5876 -0.2074
17568TIP3   OH274118   2.390   1.532  14.514 -0.3109  0.0249  0.2644
17568TIP3    H174119   2.466   1.584  14.540  0.0328 -0.6875  0.7201
17568TIP3    H274120   2.329   1.596  14.477  0.8056  0.5105 -0.8082
17569TIP3   OH274121   2.048   3.437  14.286 -0.2706  0.6457  0.4229
17569TIP3    H174122   1.995   3.456  14.363 -1.3265  1.2821 -0.4461
17569TIP3    H274123   2.059   3.521  14.242 -0.4311  0.1613 -0.5872
17570TIP3   OH274124   4.592   5.061  14.652  0.3010  0.2563 -0.4431
17570TIP3    H174125   4.516   5.113  14.629  0.4215  0.8438  0.4198
17570TIP3    H274126   4.560   5.000  14.719  0.8402  1.3771  0.8904
17571TIP3   OH274127   2.391   6.389  12.493  0.1632  0.6929 -0.4491
17571TIP3    H174128   2.365   6.411  12.583  0.2693  1.6123 -0.6311
17571TIP3    H274129   2.344   6.309  12.473 -0.7843  1.1224  0.0186
17572TIP3   OH274130   5.676   6.062  12.240  0.3314 -0.5845  0.1409
17572TIP3    H174131   5.658   6.138  12.185  1.9131  0.5145  1.0617
17572TIP3    H274132   5.736   6.008  12.187  0.0583 -0.6644 -0.0899
17573TIP3   OH274133   1.017   0.776   0.295 -0.1978  0.0020 -0.0024
17573TIP3    H174134   0.934   0.824   0.297 -0.6484 -0.7330 -0.4295
17573TIP3    H274135   1.014   0.728   0.211 -0.0969 -1.3190  0.7139
17574TIP3   OH274136   2.758   2.423  12.505  0.4624 -0.5015  0.1980
17574TIP3    H174137   2.827   2.457  12.448  0.9438 -0.7235  0.6378
17574TIP3    H274138   2.799   2.416  12.591 -0.1747 -0.4323  0.5154
17575TIP3   OH274139   5.499   2.837  13.073 -0.5008  0.5722 -0.0399
17575TIP3    H174140   5.575   2.783  13.055 -1.4482 -1.8842  2.5375
17575TIP3    H274141   5.456   2.848  12.988  1.9704  0.9185 -1.3179
17576TIP3   OH274142   3.912   6.010  14.886 -0.0015  0.6127  0.5173
17576TIP3    H174143   3.944   5.992  14.974 -2.3846  2.4293  1.8858
17576TIP3    H274144   3.898   5.924  14.847  1.7424 -0.2225  1.6035
17577TIP3   OH274145   1.510   2.012  15.446  0.2292  0.2128  0.1429
17577TIP3    H174146   1.579   1.951  15.474  1.3470  0.1904 -2.4446
17577TIP3    H274147   1.429   1.964  15.462  1.0368 -1.6485 -0.9514
17578TIP3   OH274148   3.813   2.963   4.415 -0.7269 -0.2167 -0.0276
17578TIP3    H174149   3.862   3.002   4.487  0.6972 -0.8779 -0.5945
17578TIP3    H274150   3.817   2.869   4.430  1.3782 -0.5279 -1.9814
17579TIP3   OH274151   0.876   3.891   1.135 -0.6794  0.1321  0.1179
17579TIP3    H174152   0.899   3.974   1.176 -0.2502  0.5299 -0.9005
17579TIP3    H274153   0.960   3.849   1.116 -0.8914 -1.0800  1.6599
17580TIP3   OH274154   3.728   2.667  14.347  0.4216 -0.0495 -0.2272
17580TIP3    H174155   3.706   2.600  14.412 -3.0015  0.3595 -0.8315
17580TIP3    H274156   3.690   2.636  14.265  1.4941  1.1930 -1.2550
17581TIP3   OH274157   1.423   3.720   4.307  0.1019  0.1988  0.3372
17581TIP3    H174158   1.401   3.657   4.238 -0.6159  0.2774  0.4806
17581TIP3    H274159   1.405   3.672   4.388  1.9914 -0.2760  0.5168
17582TIP3   OH274160   5.822   1.186   1.417 -0.1455  0.3363 -0.7670
17582TIP3    H174161   5.775   1.233   1.348 -1.2964 -0.8095 -0.7985
17582TIP3    H274162   5.790   1.096   1.411 -2.2610  0.6523  2.8997
17583TIP3   OH274163   4.694   2.865  14.976  0.0795  0.1770  0.1785
17583TIP3    H174164   4.776   2.827  15.005 -1.3884 -1.9150  1.9409
17583TIP3    H274165   4.706   2.959  14.984  2.0592 -0.1118  1.0600
17584TIP3   OH274166   3.753   0.291  13.463 -0.4670  0.1857  0.4044
17584TIP3    H174167   3.729   0.198  13.472  2.4342 -0.5465  1.6406
17584TIP3    H274168   3.671   0.338  13.478 -1.8093 -2.1303  0.8879
17585TIP3   OH274169   2.788   5.716  16.627  0.4856 -0.3264  0.6462
17585TIP3    H174170   2.809   5.626  16.651  2.0058 -0.0273  0.5104
17585TIP3    H274171   2.743   5.709  16.543 -1.9196 -1.1293  1.8918
17586TIP3   OH274172   0.858   3.711   5.461 -0.1836 -0.1796 -0.0727
17586TIP3    H174173   0.946   3.748   5.453  0.0432 -0.0343  2.4569
17586TIP3    H274174   0.812   3.769   5.521 -1.0598 -1.8590  0.9754
17587TIP3   OH274175   3.195   2.665  13.360  0.2664 -0.0762 -0.0471
17587TIP3    H174176   3.120   2.608  13.381  0.1323 -0.0457 -0.4363
17587TIP3    H274177   3.158   2.753  13.358  0.9171  0.3854  3.0084
17588TIP3   OH274178   5.342   5.925  10.594 -0.2105 -0.2052  0.2797
17588TIP3    H174179   5.380   5.959  10.675 -0.6047  0.1073  0.3383
17588TIP3    H274180   5.417   5.895  10.543  0.0278 -0.5847  0.8374
17589TIP3   OH274181   0.198   3.980   3.944 -0.0020  0.5696 -0.1840
17589TIP3    H174182   0.165   3.959   3.857 -3.2012  0.1896  0.9829
17589TIP3    H274183   0.226   4.071   3.938 -0.7458  0.7333 -1.4709
17590TIP3   OH274184   6.548   1.092  13.317  0.1542 -0.1522  0.4416
17590TIP3    H174185   6.524   1.180  13.349 -0.9549  0.4948 -1.9879
17590TIP3    H274186   6.625   1.107  13.263  0.2572 -0.7773  0.4161
17591TIP3   OH274187   6.551   4.084  14.584  0.3748  0.8285 -0.3980
17591TIP3    H174188   6.560   4.095  14.489 -1.6851  1.0881 -0.6152
17591TIP3    H274189   6.525   4.170  14.616  0.5225  0.6075  0.3443
17592TIP3   OH274190   0.455   2.456   0.412  0.0928 -0.0700  0.1501
17592TIP3    H174191   0.500   2.373   0.400 -0.1459 -0.3957  1.4139
17592TIP3    H274192   0.521   2.523   0.394 -0.0996 -0.4708 -2.4158
17593TIP3   OH274193   2.699   5.696  17.218 -0.0345 -0.1975 -0.1793
17593TIP3    H174194   2.752   5.678  17.141  1.6257  1.4085  0.4994
17593TIP3    H274195   2.692   5.791  17.221 -4.0875 -0.3175 -0.8855
17594TIP3   OH274196   3.096   1.979  14.857 -0.3833  0.1431  0.1383
17594TIP3    H174197   3.032   1.973  14.929 -1.8025  1.6220 -0.9378
17594TIP3    H274198   3.114   2.073  14.849  2.5312 -0.2432  0.8407
17595TIP3   OH274199   2.026   1.751   0.817 -0.1803  0.1954 -0.3686
17595TIP3    H174200   1.995   1.684   0.756  1.9311 -0.4870 -0.7531
17595TIP3    H274201   2.034   1.830   0.765 -0.5517  0.1984 -0.4267
17596TIP3   OH274202   2.038   5.633   5.718  0.0817  0.2429 -0.3580
17596TIP3    H174203   1.997   5.719   5.705  1.2315  1.2921  2.2756
17596TIP3    H274204   2.101   5.647   5.788 -0.5712 -3.0406  1.0553
17597TIP3   OH274205   4.375   0.828   4.249  0.2479 -0.4029 -0.5083
17597TIP3    H174206   4.342   0.763   4.187 -0.9743 -0.2934  0.0100
17597TIP3    H274207   4.463   0.849   4.216  0.3973 -1.7736 -1.0903
17598TIP3   OH274208   0.934   0.593  14.113  0.3188 -0.0771  0.0014
17598TIP3    H174209   0.914   0.555  14.198  1.3870 -0.9117 -0.0985
17598TIP3    H274210   0.893   0.534  14.050  0.6123 -0.1777 -0.0988
17599TIP3   OH274211   1.626   4.123   3.439 -1.1490  0.1630 -0.3564
17599TIP3    H174212   1.666   4.138   3.354 -1.1041  0.9714 -0.2062
17599TIP3    H274213   1.678   4.053   3.479 -1.9503 -1.1165 -1.4883
17600TIP3   OH274214   5.979   1.240   4.651 -0.3868 -0.3968 -0.0079
17600TIP3    H174215   5.925   1.319   4.652 -0.8194 -0.6575 -0.9458
17600TIP3    H274216   6.063   1.269   4.616 -0.5906 -0.3644 -0.4853
17601TIP3   OH274217   0.839   4.169   1.756  0.5085 -0.2518  0.4930
17601TIP3    H174218   0.829   4.248   1.702  0.5381 -0.7516 -0.2693
17601TIP3    H274219   0.859   4.100   1.693  0.6959 -0.8306  1.1727
17602TIP3   OH274220   0.155   4.448   2.079 -0.0819  0.1203 -0.0074
17602TIP3    H174221   0.161   4.400   2.161  0.1185  1.7694  0.9905
17602TIP3    H274222   0.242   4.437   2.038  0.1645  0.1431  0.5056
17603TIP3   OH274223   1.499   5.798  13.920  0.6955 -0.0716  0.1271
17603TIP3    H174224   1.472   5.747  13.844  0.3462  0.9458 -0.4472
17603TIP3    H274225   1.572   5.748  13.958 -0.0862 -1.3622  0.0094
17604TIP3   OH274226   4.832   1.010   1.162 -0.0978 -0.2501  0.3076
17604TIP3    H174227   4.803   1.043   1.247 -2.2336 -0.2749 -0.3493
17604TIP3    H274228   4.783   0.929   1.150  0.0349 -0.1484 -1.0019
17605TIP3   OH274229   0.339   1.577  15.513  0.3813  0.7190 -0.1924
17605TIP3    H174230   0.421   1.529  15.506  0.4702  1.0975 -2.9237
17605TIP3    H274231   0.294   1.560  15.430 -1.8780  1.3290  0.8090
17606TIP3   OH274232   4.047   2.230   6.602 -0.5189 -0.0377  0.1038
17606TIP3    H174233   4.005   2.169   6.543 -0.7179 -0.4538  0.6661
17606TIP3    H274234   4.010   2.315   6.579 -0.7599 -0.2280 -0.2160
17607TIP3   OH274235   0.229   0.026  13.153 -0.0793  0.6961 -0.1093
17607TIP3    H174236   0.207   0.107  13.106  1.9532  0.6906 -1.1765
17607TIP3    H274237   0.318   0.042  13.186 -0.1316 -0.6532  0.7229
17608TIP3   OH274238   5.240   6.004  11.669 -0.3185  0.4109 -0.4324
17608TIP3    H174239   5.253   5.967  11.582  1.1253  1.6638 -0.7995
17608TIP3    H274240   5.316   5.973  11.719 -0.8470  0.1540  0.2144
17609TIP3   OH274241   2.004   5.909  14.170 -0.0586 -0.1609  0.1693
17609TIP3    H174242   2.041   5.990  14.204  1.9385 -0.4944 -1.0483
17609TIP3    H274243   2.077   5.864  14.128 -0.8286 -3.1365  1.7264
17610TIP3   OH274244   1.779   1.294  13.269  0.1485 -0.3273  0.7439
17610TIP3    H174245   1.826   1.290  13.352 -0.0667  0.1032  0.8841
17610TIP3    H274246   1.735   1.378  13.269 -2.2203 -1.4831  1.4730
17611TIP3   OH274247   1.096   4.532  11.842 -0.7822 -0.1204 -0.4728
17611TIP3    H174248   1.190   4.511  11.841 -0.0306  2.5938  1.0531
17611TIP3    H274249   1.055   4.456  11.882  0.9031 -1.0082 -0.3101
17612TIP3   OH274250   1.292   0.365  12.774 -0.6863 -0.0294  0.4013
17612TIP3    H174251   1.269   0.308  12.848 -0.8678 -0.3651  0.0863
17612TIP3    H274252   1.329   0.443  12.815 -1.8430  0.2872  0.9107
17613TIP3   OH274253   2.720   2.667  11.965 -0.2785  0.0345 -0.5483
17613TIP3    H174254   2.753   2.733  11.903 -1.7500 -0.3440 -1.8137
17613TIP3    H274255   2.689   2.596  11.909 -2.7359  0.1630  0.5230
17614TIP3   OH274256   3.512   1.777  11.493 -0.0205 -0.3980  0.0209
17614TIP3    H174257   3.599   1.796  11.526 -0.5636  2.6486 -0.0504
17614TIP3    H274258   3.521   1.780  11.397 -0.2159 -0.0372  0.0125
17615TIP3   OH274259   3.118   6.182   0.834 -0.1888  0.0044 -0.3455
17615TIP3    H174260   3.194   6.239   0.845  0.2209 -0.3577 -1.1994
17615TIP3    H274261   3.075   6.214   0.754  0.2925 -1.1253 -1.0842
17616TIP3   OH274262   1.787   3.551  13.002  0.4310  0.3074 -0.0865
17616TIP3    H174263   1.731   3.606  13.056 -1.6741 -1.2677 -0.5136
17616TIP3    H274264   1.786   3.592  12.916 -0.8063 -0.1361 -0.3037
17617TIP3   OH274265   0.796   2.050   0.053 -0.0655  0.2339  0.1215
17617TIP3    H174266   0.738   2.080  -0.018 -2.1956 -0.4870  1.4649
17617TIP3    H274267   0.832   1.967   0.021  0.2588  0.6924 -0.7346
17618TIP3   OH274268   2.410   0.026  16.015 -0.6115  0.2455  0.0449
17618TIP3    H174269   2.400   0.029  15.920 -0.6508  0.1972  0.0478
17618TIP3    H274270   2.343   0.086  16.048  0.8543  2.0213 -0.0553
17619TIP3   OH274271   0.218   6.055   1.435  0.0925 -0.2390 -0.6908
17619TIP3    H174272   0.247   5.982   1.381  1.0624 -1.6724  1.5828
17619TIP3    H274273   0.247   6.031   1.524 -1.3210  1.9881  0.4531
17620TIP3   OH274274   1.674   3.386  10.608 -0.4856  0.1377  0.1296
17620TIP3    H174275   1.617   3.415  10.537 -0.3606  1.4488  0.5245
17620TIP3    H274276   1.736   3.327  10.566 -0.6731  0.5582 -0.7761
17621TIP3   OH274277   2.618   4.187  14.843  0.2151 -0.0101 -0.3524
17621TIP3    H174278   2.681   4.156  14.907 -0.4751  0.3401  0.5116
17621TIP3    H274279   2.623   4.282  14.848  0.1634  0.0243 -0.8375
17622TIP3   OH274280   5.487   2.320  16.083  0.6291  0.0020  0.0093
17622TIP3    H174281   5.439   2.274  16.014  1.6940  1.1548 -1.5731
17622TIP3    H274282   5.503   2.253  16.149 -1.4533 -0.8625 -0.2843
17623TIP3   OH274283   1.189   4.684  15.727  0.4104  0.3852 -0.1894
17623TIP3    H174284   1.236   4.687  15.810  0.4845 -0.5552 -0.1813
17623TIP3    H274285   1.097   4.673  15.752  0.2999  1.2214 -0.2191
17624TIP3   OH274286   3.989   6.566   1.480 -0.4635 -0.3229 -0.1978
17624TIP3    H174287   3.949   6.641   1.436 -1.3740 -0.4733  0.3344
17624TIP3    H274288   3.922   6.497   1.475 -0.1303 -0.6992  0.4089
17625TIP3   OH274289   3.439   4.367   5.647  0.5713  0.3071 -0.6681
17625TIP3    H174290   3.390   4.313   5.585  2.4071 -1.1320 -0.9197
17625TIP3    H274291   3.531   4.352   5.625  1.2431  0.6665  1.6576
17626TIP3   OH274292   6.576   2.471  16.070 -0.0393 -0.3496 -0.1531
17626TIP3    H174293   6.669   2.490  16.068 -0.0441 -0.3615 -0.6921
17626TIP3    H274294   6.570   2.378  16.046 -0.1529 -0.4878  0.4004
17627TIP3   OH274295   4.416   3.817   0.717  0.7335 -0.9842 -1.1204
17627TIP3    H174296   4.327   3.836   0.748  0.3116 -0.5977 -2.4752
17627TIP3    H274297   4.440   3.737   0.763  0.0841 -0.5445  0.0231
17628TIP3   OH274298   2.047   4.707   2.412  0.3468  0.3663 -0.5998
17628TIP3    H174299   2.084   4.637   2.357 -0.5723 -1.1494  0.6122
17628TIP3    H274300   2.014   4.661   2.489 -1.5169  1.9760 -0.3565
17629TIP3   OH274301   2.563   0.722  17.065  0.0341  0.1030 -0.4962
17629TIP3    H174302   2.518   0.700  17.147  0.0626  2.2385  0.1520
17629TIP3    H274303   2.652   0.689  17.077  0.0645  0.4884  0.3739
17630TIP3   OH274304   4.840   1.112  15.126  0.0442  0.7229 -0.1919
17630TIP3    H174305   4.931   1.082  15.126 -0.5028 -1.1313 -0.8879
17630TIP3    H274306   4.807   1.088  15.039 -1.1203  1.3250  0.0559
17631TIP3   OH274307   4.351   2.580   4.563 -0.5070  0.0776  0.7846
17631TIP3    H174308   4.256   2.589   4.575 -0.2347  1.7802  1.9379
17631TIP3    H274309   4.380   2.666   4.534  0.8985  0.0225  1.9312
17632TIP3   OH274310   4.448   5.955   5.611 -0.2770 -0.3509  0.5419
17632TIP3    H174311   4.510   5.903   5.559  0.7775  1.2715  0.0824
17632TIP3    H274312   4.411   6.018   5.548  0.3301  1.0432  1.5174
17633TIP3   OH274313   6.336   0.358  14.707 -0.2657  0.3768  0.1580
17633TIP3    H174314   6.295   0.271  14.703 -0.1562  0.3431 -2.8166
17633TIP3    H274315   6.427   0.342  14.682 -0.3340  1.3642 -0.7895
17634TIP3   OH274316   4.834   6.751   4.476 -0.7535  0.0165 -0.0416
17634TIP3    H174317   4.764   6.772   4.538 -0.9535  0.0206 -0.2696
17634TIP3    H274318   4.823   6.813   4.404 -0.1004  0.4675  0.2351
17635TIP3   OH274319   0.013   0.869  17.163  0.2492  0.3001 -0.2084
17635TIP3    H174320  -0.079   0.845  17.152 -0.3104  2.6603 -1.3198
17635TIP3    H274321   0.045   0.811  17.232 -2.0307 -0.6437  0.1418
17636TIP3   OH274322   4.475   5.695  12.784 -0.7534  0.2042 -0.0261
17636TIP3    H174323   4.423   5.767  12.748  2.7051  3.8278  1.5365
17636TIP3    H274324   4.449   5.690  12.876 -0.6112 -0.2510 -0.0056
17637TIP3   OH274325   0.565   1.952  12.744 -0.0495  0.2509 -0.4666
17637TIP3    H174326   0.588   1.901  12.666 -0.6275  0.2705 -0.6597
17637TIP3    H274327   0.470   1.942  12.751  0.1984 -1.4056  1.3902
17638TIP3   OH274328   3.221   3.958   3.176 -0.2283  0.2133 -0.1854
17638TIP3    H174329   3.293   3.941   3.237 -1.1976 -1.9432  0.4541
17638TIP3    H274330   3.234   4.049   3.148  1.1791  0.7410  1.9649
17639TIP3   OH274331   6.352   1.932   3.475  0.1731 -0.1065  1.1235
17639TIP3    H174332   6.364   2.019   3.514 -0.6337  0.6864 -0.3214
17639TIP3    H274333   6.258   1.917   3.478  0.0790 -0.0092 -0.4774
17640TIP3   OH274334   5.950   3.599   0.391  0.3769 -0.5442  0.4827
17640TIP3    H174335   5.981   3.673   0.443  0.7353  0.3541 -0.9554
17640TIP3    H274336   5.973   3.522   0.444  1.6868  0.2749  1.1685
17641TIP3   OH274337   3.213   4.868   1.896 -0.7125 -0.0535 -0.6071
17641TIP3    H174338   3.256   4.858   1.811  0.2783 -1.3400  0.0145
17641TIP3    H274339   3.268   4.930   1.944  1.1819 -2.4529  0.5579
17642TIP3   OH274340   1.244   1.681   4.389 -0.2243  0.2934 -0.1587
17642TIP3    H174341   1.245   1.605   4.330  1.7386  1.1889 -1.3709
17642TIP3    H274342   1.333   1.716   4.384 -0.4816  1.4013  2.0885
17643TIP3   OH274343   1.547   4.684   3.514  0.7450 -0.0205 -0.1089
17643TIP3    H174344   1.490   4.732   3.574 -0.4703 -0.8485 -0.5573
17643TIP3    H274345   1.514   4.594   3.517  1.3514 -0.2955 -1.1955
17644TIP3   OH274346   6.737   3.618   3.972  0.4057  0.8218  0.9784
17644TIP3    H174347   6.671   3.581   4.029  0.7793  1.4210  1.8200
17644TIP3    H274348   6.820   3.582   4.003  0.5299  0.4860  0.2703
17645TIP3   OH274349   2.455   6.295  17.283 -0.6607 -0.0474  0.2328
17645TIP3    H174350   2.440   6.246  17.202 -0.2934 -0.3941  0.3672
17645TIP3    H274351   2.423   6.383  17.264  0.4302  0.1822 -0.6736
17646TIP3   OH274352   4.629   2.740   3.967 -0.2926 -0.0613 -0.1373
17646TIP3    H174353   4.693   2.696   3.911  2.2330  1.6390  1.2323
17646TIP3    H274354   4.587   2.805   3.911 -0.1639 -0.5661 -0.8229
17647TIP3   OH274355   3.832   4.090   1.709  0.3404 -0.5451 -0.3895
17647TIP3    H174356   3.789   4.070   1.626 -1.7144  3.3345 -0.4921
17647TIP3    H274357   3.797   4.026   1.771 -0.8041 -1.3337 -1.8064
17648TIP3   OH274358   3.258   3.747   3.401  0.3469 -0.7479  0.2882
17648TIP3    H174359   3.264   3.723   3.309  1.1337 -1.2444  0.4556
17648TIP3    H274360   3.325   3.814   3.413 -0.7287  0.3743  0.1912
17649TIP3   OH274361   2.304   2.797   1.567  0.1960 -0.2970  0.0565
17649TIP3    H174362   2.336   2.736   1.635  1.0929 -0.6411 -0.6484
17649TIP3    H274363   2.227   2.838   1.606  1.2168  0.2051  1.6726
17650TIP3   OH274364   4.469   5.857   0.387 -0.3853 -0.4087  0.7553
17650TIP3    H174365   4.481   5.874   0.481 -0.0067  0.9768  0.4718
17650TIP3    H274366   4.448   5.763   0.383 -1.1527 -0.3456  2.2907
17651TIP3   OH274367   5.725   0.145  11.703  0.1800  0.2284  0.1330
17651TIP3    H174368   5.639   0.103  11.708 -0.1356  0.7095 -0.9556
17651TIP3    H274369   5.705   0.237  11.690  0.8531  0.2353 -0.9368
17652TIP3   OH274370   1.003   0.161   6.000 -0.7152 -0.2680  0.6330
17652TIP3    H174371   0.970   0.149   6.089 -0.0260  0.2875  0.9723
17652TIP3    H274372   1.089   0.119   6.001 -0.9480 -0.7729  0.0606
17653TIP3   OH274373   6.631   4.865   5.370 -0.1078 -0.0277 -0.0593
17653TIP3    H174374   6.549   4.898   5.334  0.5890 -0.2561 -1.9428
17653TIP3    H274375   6.624   4.883   5.464 -1.0318  2.7081 -0.5714
17654TIP3   OH274376   1.919   6.565  13.181  0.1401 -0.3803  0.1545
17654TIP3    H174377   1.874   6.488  13.217 -2.3642  1.0823  0.4393
17654TIP3    H274378   1.884   6.574  13.092  0.6947  0.2100 -0.0121
17655TIP3   OH274379   3.412   1.722  16.590  0.0784 -0.2322 -0.5402
17655TIP3    H174380   3.485   1.669  16.560 -0.2013 -0.8548 -0.1616
17655TIP3    H274381   3.341   1.659  16.603  0.3740 -0.1537  2.0667
17656TIP3   OH274382   5.280   4.979   1.040  0.3413 -0.0855  0.4086
17656TIP3    H174383   5.289   4.885   1.024  0.5273 -0.1876  1.0799
17656TIP3    H274384   5.234   4.985   1.124 -0.1681  0.4271  0.1038
17657TIP3   OH274385   6.676   0.656   2.441 -0.2114 -0.0589 -0.1320
17657TIP3    H174386   6.616   0.731   2.439 -0.6421 -0.4004  0.1630
17657TIP3    H274387   6.659   0.613   2.524 -0.5246 -0.9490 -0.6511
17658TIP3   OH274388   1.429   0.611  12.964  0.2291  0.1151 -0.0578
17658TIP3    H174389   1.378   0.646  12.891 -0.3475  1.3469  0.8925
17658TIP3    H274390   1.365   0.598  13.034  0.6840 -1.5162  0.1003
17659TIP3   OH274391   3.241   0.638   4.831 -0.0008  0.0796  0.1755
17659TIP3    H174392   3.274   0.726   4.848  2.1842 -0.8695  1.3256
17659TIP3    H274393   3.204   0.643   4.743  1.2941  1.8407 -0.3314
17660TIP3   OH274394   6.116   6.306   5.853 -0.4270  0.2492 -0.2241
17660TIP3    H174395   6.026   6.325   5.825 -0.3337  0.5680 -0.3172
17660TIP3    H274396   6.163   6.389   5.840 -0.2822  0.2851  0.4748
17661TIP3   OH274397   2.564   3.972  12.431 -0.1749  0.1693 -0.0215
17661TIP3    H174398   2.485   3.964  12.486  0.9205 -0.0339  1.6033
17661TIP3    H274399   2.619   3.899  12.459  0.3210 -0.1068 -1.6360
17662TIP3   OH274400   6.084   0.854   3.256 -0.1617  0.2529  0.3070
17662TIP3    H174401   6.156   0.914   3.274 -1.6338  2.0569  0.5674
17662TIP3    H274402   6.113   0.803   3.180  1.2006  1.2009  0.1593
17663TIP3   OH274403   2.659   3.564  17.243 -0.5694  0.8683 -0.3357
17663TIP3    H174404   2.568   3.535  17.251 -0.5075 -0.1303 -2.3358
17663TIP3    H274405   2.657   3.627  17.171  0.2891  0.9015 -0.3339
17664TIP3   OH274406   1.494   2.306  13.796 -0.5895  0.5104  0.5905
17664TIP3    H174407   1.460   2.395  13.799  0.1950  0.7995  1.4677
17664TIP3    H274408   1.582   2.315  13.761 -0.5403  0.0651  0.5946
17665TIP3   OH274409   2.309   1.490   1.211  0.2496 -0.1806  0.5119
17665TIP3    H174410   2.294   1.561   1.149  0.0556 -1.8886 -1.5052
17665TIP3    H274411   2.232   1.491   1.268 -1.3036 -0.6513 -1.4555
17666TIP3   OH274412   0.744   6.032   2.591  0.1817 -0.3162  0.4082
17666TIP3    H174413   0.722   6.125   2.605 -1.6600 -0.0687 -3.0882
17666TIP3    H274414   0.828   6.034   2.546 -0.5882 -0.1994 -1.0630
17667TIP3   OH274415   5.589   4.474   3.161 -0.0869 -0.2371 -0.0491
17667TIP3    H174416   5.533   4.530   3.107 -0.3179  1.3137  1.6824
17667TIP3    H274417   5.632   4.416   3.099 -0.1553  1.6005 -1.9379
17668TIP3   OH274418   2.404   4.523   0.416  0.2236 -0.0055  0.0315
17668TIP3    H174419   2.324   4.575   0.418 -0.1769 -0.6426  0.9565
17668TIP3    H274420   2.473   4.584   0.442 -0.0437  0.3882 -0.1751
17669TIP3   OH274421   1.556   6.420   4.828 -0.2480  0.5183 -1.0902
17669TIP3    H174422   1.521   6.394   4.743  0.2463 -0.3433 -1.0401
17669TIP3    H274423   1.626   6.481   4.807 -1.1201  1.5021 -1.2279
17670TIP3   OH274424   0.664   1.649  15.954 -0.5254  0.2376  0.6410
17670TIP3    H174425   0.575   1.642  15.921 -0.3985  1.1330  0.0680
17670TIP3    H274426   0.660   1.716  16.022 -0.0882  1.1264 -0.1887
17671TIP3   OH274427   4.891   1.296   5.264 -0.3146 -0.9414 -0.6091
17671TIP3    H174428   4.836   1.254   5.199 -1.0892 -0.3833 -0.3266
17671TIP3    H274429   4.951   1.351   5.213 -0.0269 -1.5339 -0.9140
17672TIP3   OH274430   4.670   2.056   3.558 -0.0367  0.2613  0.3340
17672TIP3    H174431   4.674   2.149   3.533  1.3653 -0.1991 -1.3617
17672TIP3    H274432   4.688   2.056   3.652 -1.5296  1.7927  0.6692
17673TIP3   OH274433   2.310   0.411  11.775  0.1600  0.9397  0.0301
17673TIP3    H174434   2.345   0.407  11.864 -0.6955 -2.5990  0.3665
17673TIP3    H274435   2.360   0.345  11.726 -0.9279  1.1750 -1.4888
17674TIP3   OH274436   3.330   4.950   5.858 -0.5394  0.4374  0.0362
17674TIP3    H174437   3.361   4.882   5.799  3.8303  1.4188  0.8920
17674TIP3    H274438   3.342   5.032   5.810 -2.2826  0.9196  0.3410
17675TIP3   OH274439   6.026   2.279  12.343  0.4163 -0.0336 -0.3117
17675TIP3    H174440   6.109   2.235  12.327  0.0193 -0.5519 -0.9538
17675TIP3    H274441   6.048   2.372  12.343  0.7972 -0.1087 -1.6982
17676TIP3   OH274442   0.311   0.595  16.659 -0.3403 -0.0494  0.0285
17676TIP3    H174443   0.222   0.571  16.631 -0.1464  0.0004 -0.6546
17676TIP3    H274444   0.328   0.678  16.613  0.7164 -0.9278 -1.2333
17677TIP3   OH274445   5.453   5.488  15.632  0.4249 -0.2343 -0.0635
17677TIP3    H174446   5.453   5.565  15.689  1.1606  0.4798 -0.9992
17677TIP3    H274447   5.393   5.427  15.675  1.9646 -0.2758  2.1881
17678TIP3   OH274448   3.904   5.614  10.870  0.3785  0.3244  0.0947
17678TIP3    H174449   3.859   5.610  10.785 -0.4896 -1.4711  0.5797
17678TIP3    H274450   3.969   5.683  10.860  1.0849 -0.6089 -2.4232
17679TIP3   OH274451   1.707   5.909  16.237  0.0881 -0.1448 -0.5376
17679TIP3    H174452   1.797   5.877  16.242  0.8926  1.8597 -1.3941
17679TIP3    H274453   1.672   5.871  16.157  0.3559 -0.4671 -0.5033
17680TIP3   OH274454   0.048   1.006   4.721  0.1693  0.0235 -0.0950
17680TIP3    H174455  -0.023   0.945   4.702  0.5213 -0.0973 -1.0620
17680TIP3    H274456   0.095   1.015   4.639  1.0979  0.3419  0.4560
17681TIP3   OH274457   4.970   5.150   5.457  0.6337 -0.0057 -0.0982
17681TIP3    H174458   4.918   5.225   5.429 -0.7873 -0.6430  0.7607
17681TIP3    H274459   5.059   5.170   5.426  0.1473  1.6811 -0.5095
17682TIP3   OH274460   6.676   1.924   1.046  0.6183 -0.1121  0.1685
17682TIP3    H174461   6.590   1.910   1.086  0.9490  0.0362  0.9495
17682TIP3    H274462   6.701   2.012   1.072  0.0352  0.7355 -1.9309
17683TIP3   OH274463   6.077   6.462   1.528 -0.0573  0.2299 -0.1919
17683TIP3    H174464   6.116   6.420   1.451  1.1222 -0.7889  0.9126
17683TIP3    H274465   6.075   6.392   1.594 -1.9718  0.8011  0.4079
17684TIP3   OH274466   5.404   1.756   3.880 -0.1629 -0.6021  0.4051
17684TIP3    H174467   5.406   1.725   3.971 -0.2468 -1.1543  0.2217
17684TIP3    H274468   5.374   1.847   3.887 -0.2582 -0.6670  0.9252
17685TIP3   OH274469   3.940   0.173   0.640 -0.2526 -0.0956 -0.6287
17685TIP3    H174470   3.948   0.175   0.735 -0.4578 -0.6024 -0.5933
17685TIP3    H274471   4.020   0.131   0.610 -0.1478  0.1464 -0.6832
17686TIP3   OH274472   6.474   4.369  13.311  0.3179  0.2606  0.0919
17686TIP3    H174473   6.459   4.326  13.395  0.1834  0.3024  0.0904
17686TIP3    H274474   6.387   4.378  13.273  0.3885  0.1519 -0.0978
17687TIP3   OH274475   6.424   3.773   6.371 -0.0235  0.5512  0.8708
17687TIP3    H174476   6.333   3.779   6.401 -0.6201  0.3468 -0.8149
17687TIP3    H274477   6.466   3.851   6.407 -1.1979  1.3341  0.6215
17688TIP3   OH274478   3.087   5.570  12.525  0.6479  0.7722 -0.2760
17688TIP3    H174479   3.124   5.482  12.519 -1.9592 -0.3503 -0.8816
17688TIP3    H274480   3.113   5.612  12.442 -1.9039 -1.0876 -2.1599
17689TIP3   OH274481   5.805   6.543   0.281 -0.1089 -0.0994 -0.2555
17689TIP3    H174482   5.860   6.476   0.241 -1.8754 -0.9992 -1.2804
17689TIP3    H274483   5.776   6.505   0.364 -1.1557 -0.6593 -0.8624
17690TIP3   OH274484   6.550   0.379  15.275 -0.1042  0.4010 -0.1890
17690TIP3    H174485   6.622   0.428  15.237 -1.7157  3.7310  0.6341
17690TIP3    H274486   6.497   0.352  15.200  0.7387  0.0330 -0.6625
17691TIP3   OH274487   0.316   1.181  12.391  0.4021  0.3588  0.0032
17691TIP3    H174488   0.335   1.087  12.395 -0.5968  0.1703  0.6559
17691TIP3    H274489   0.398   1.221  12.362  1.1017 -0.6299  0.5713
17692TIP3   OH274490   1.568   0.280   1.719  0.2334 -0.4015  0.3729
17692TIP3    H174491   1.539   0.189   1.711 -1.1023  0.0870 -0.9529
17692TIP3    H274492   1.598   0.289   1.809 -1.3498 -1.6894  1.0678
17693TIP3   OH274493   0.029   6.228   1.276 -0.2227  0.4050 -0.1436
17693TIP3    H174494   0.076   6.155   1.318 -1.5450  0.0933  0.8741
17693TIP3    H274495   0.094   6.297   1.267  0.4900 -0.0858  1.0353
17694TIP3   OH274496   0.265   2.428   5.329  0.5124  0.1950 -0.3775
17694TIP3    H174497   0.290   2.382   5.249 -0.3754  0.3141 -0.7335
17694TIP3    H274498   0.245   2.517   5.300 -0.3609  0.0915 -0.1189
17695TIP3   OH274499   5.847   4.226  14.008  0.3031 -0.3673 -0.4275
17695TIP3    H174500   5.823   4.175  14.086  0.5843 -1.0530 -0.7874
17695TIP3    H274501   5.907   4.170  13.960  2.4100  1.1517  0.2693
17696TIP3   OH274502   1.464   1.807  11.465  0.1514  0.0649  0.0494
17696TIP3    H174503   1.482   1.855  11.384  2.2194 -0.3547  0.2164
17696TIP3    H274504   1.435   1.721  11.436  1.7296 -0.3866 -0.2979
17697TIP3   OH274505   1.323   0.880  11.134 -0.5191  0.5575  0.3847
17697TIP3    H174506   1.288   0.791  11.128  0.3756  0.1734  0.6792
17697TIP3    H274507   1.376   0.880  11.214  0.9062  0.8280 -0.5188
17698TIP3   OH274508   6.706   0.777  14.336  0.2399  0.0473  0.1574
17698TIP3    H174509   6.647   0.705  14.357 -0.3748  0.9678  1.7131
17698TIP3    H274510   6.680   0.804  14.247 -0.2991 -0.8718  0.0235
17699TIP3   OH274511   1.270   5.832   3.794  0.0056 -0.5755 -0.2980
17699TIP3    H174512   1.350   5.855   3.842  0.4200 -1.7421 -0.4001
17699TIP3    H274513   1.230   5.916   3.773  0.2607 -0.0158  1.3302
17700TIP3   OH274514   3.448   0.717   2.136  0.3392 -0.5984 -0.2718
17700TIP3    H174515   3.366   0.723   2.185  0.4868  0.6634 -0.1585
17700TIP3    H274516   3.421   0.722   2.044  0.2359 -0.8209 -0.2535
17701TIP3   OH274517   4.354   2.176   0.040 -0.1152  0.0250  0.4069
17701TIP3    H174518   4.382   2.221  -0.040  0.9581 -0.0453  0.7345
17701TIP3    H274519   4.407   2.096   0.042  1.1418  0.8442  2.0695
17702TIP3   OH274520   5.377   5.194   4.309 -0.2795  0.0708  0.5090
17702TIP3    H174521   5.452   5.146   4.274 -0.8359 -0.2488 -0.2548
17702TIP3    H274522   5.301   5.140   4.289 -0.6889  0.1583  1.6980
17703TIP3   OH274523   5.371   4.804   0.682  0.1583 -0.5754 -0.2621
17703TIP3    H174524   5.281   4.811   0.714  0.0416  0.2602 -0.7269
17703TIP3    H274525   5.361   4.788   0.588  0.4976 -1.4912 -0.1469
17704TIP3   OH274526   5.250   4.366   6.225  0.3159  0.3662 -0.3066
17704TIP3    H174527   5.330   4.353   6.276  0.6577 -0.2531 -0.9882
17704TIP3    H274528   5.191   4.298   6.257 -0.3107  1.4158  0.8803
17705TIP3   OH274529   0.284   6.006  12.639  0.0223 -0.3768 -0.4012
17705TIP3    H174530   0.334   5.943  12.587 -0.8655  0.4513 -2.3308
17705TIP3    H274531   0.346   6.075  12.660  0.2260 -0.3854 -0.9582
17706TIP3   OH274532   1.969   6.356   4.398 -0.0721 -0.4548  0.3234
17706TIP3    H174533   2.019   6.288   4.353 -0.9327 -1.3815  0.7485
17706TIP3    H274534   1.995   6.348   4.490 -1.3627 -1.2887  0.6341
17707TIP3   OH274535   2.912   0.691   3.952 -0.0061  0.0570 -0.5811
17707TIP3    H174536   2.847   0.658   4.014  0.5226 -0.3633 -0.2379
17707TIP3    H274537   2.947   0.612   3.910  1.5236  0.1087  0.4958
17708TIP3   OH274538   6.493   4.741   4.523 -0.0431  0.4607  0.0384
17708TIP3    H174539   6.464   4.832   4.519 -0.5140  0.2753 -1.1889
17708TIP3    H274540   6.413   4.692   4.544 -0.0023  0.2424 -0.3086
17709TIP3   OH274541   1.814   2.224   2.128  0.1429 -0.0799 -0.2127
17709TIP3    H174542   1.852   2.311   2.136  1.1242 -0.5242  0.1058
17709TIP3    H274543   1.749   2.220   2.199 -1.0295  0.9195 -1.1749
17710TIP3   OH274544   6.029   0.219   1.296  0.1136  0.1469 -0.1693
17710TIP3    H174545   6.011   0.143   1.351 -1.8992  0.1843 -0.6957
17710TIP3    H274546   6.048   0.289   1.357 -1.7365  0.1024  0.5225
17711TIP3   OH274547   2.025   6.227  13.747 -0.1649 -0.0370  0.0357
17711TIP3    H174548   2.055   6.286  13.817  1.7787 -1.2204  0.2792
17711TIP3    H274549   2.076   6.254  13.670  0.7331 -1.3276  0.1456
17712TIP3   OH274550   3.775   4.170  16.311  0.1577  0.1113 -0.3880
17712TIP3    H174551   3.856   4.219  16.327  0.4080 -0.1236 -0.9110
17712TIP3    H274552   3.710   4.237  16.291  0.2266  0.2999  0.0145
17713TIP3   OH274553   5.526   3.113   1.692  0.4264 -0.2277  0.0775
17713TIP3    H174554   5.543   3.093   1.600  2.2089  0.3631  0.2448
17713TIP3    H274555   5.484   3.200   1.690  1.0851  0.0929 -0.1594
17714TIP3   OH274556   0.046   2.588   3.360 -0.1669  0.2024  0.3821
17714TIP3    H174557   0.089   2.503   3.371  0.1691  0.2895 -0.2145
17714TIP3    H274558  -0.046   2.571   3.380  0.2459  0.1984  2.5797
17715TIP3   OH274559   4.979   6.469   5.886 -0.4691 -0.4472  0.1809
17715TIP3    H174560   5.058   6.490   5.936  2.6353 -2.9436 -3.1477
17715TIP3    H274561   4.959   6.379   5.910 -2.0202 -0.0397  0.5104
17716TIP3   OH274562   1.833   0.427   5.632 -0.2980  0.3121  0.0762
17716TIP3    H174563   1.927   0.445   5.635 -0.5958  1.9951  1.5317
17716TIP3    H274564   1.792   0.512   5.651 -2.1543 -0.1538 -1.5213
17717TIP3   OH274565   2.589   5.230   1.521 -0.4518  0.1875 -0.2098
17717TIP3    H174566   2.681   5.205   1.517 -0.6242 -0.2564 -1.7920
17717TIP3    H274567   2.588   5.323   1.501 -0.3856  0.0847 -0.7014
17718TIP3   OH274568   0.237   1.928   3.552  0.0198 -0.2917 -0.2779
17718TIP3    H174569   0.293   1.959   3.481 -0.0798  0.2348 -0.1291
17718TIP3    H274570   0.290   1.934   3.630 -0.1205 -0.1476 -0.1929
17719TIP3   OH274571   1.304   5.406   2.955  0.0361  0.2526  0.2502
17719TIP3    H174572   1.279   5.346   3.025 -1.6111  0.6899  0.0784
17719TIP3    H274573   1.305   5.493   2.996  0.7910  0.3048  0.1274
17720TIP3   OH274574   5.475   0.464  14.561  0.4711 -0.0146 -0.6404
17720TIP3    H174575   5.538   0.401  14.593 -0.5847 -2.0326 -2.2945
17720TIP3    H274576   5.514   0.499  14.481  0.9291  1.2762  0.1204
17721TIP3   OH274577   0.375   0.880   2.358  0.1100  0.0118  0.1785
17721TIP3    H174578   0.313   0.946   2.326 -0.5671 -0.1801  1.0586
17721TIP3    H274579   0.372   0.811   2.292  0.0410  0.3879 -0.2195
17722TIP3   OH274580   1.636   0.073   0.769 -0.1486 -0.3820 -0.5191
17722TIP3    H174581   1.675   0.160   0.781  1.5241 -1.0963 -0.4677
17722TIP3    H274582   1.542   0.087   0.782  0.2717  1.0627  1.5068
17723TIP3   OH274583   2.163   2.857  12.013 -0.2089  0.2184 -0.1214
17723TIP3    H174584   2.129   2.796  12.079  0.2108  1.2980  1.1525
17723TIP3    H274585   2.092   2.920  12.000 -1.4648 -1.5867 -2.9791
17724TIP3   OH274586   4.661   4.856   0.612  0.2979 -0.0787  0.3960
17724TIP3    H174587   4.693   4.942   0.638  1.0275 -0.1703 -0.1608
17724TIP3    H274588   4.680   4.851   0.518  1.7773 -1.4630  0.7210
17725TIP3   OH274589   1.549   6.208   1.505  0.4988  0.2005 -0.2984
17725TIP3    H174590   1.546   6.114   1.483  0.5852  0.1560 -0.1185
17725TIP3    H274591   1.565   6.210   1.599  1.1441  0.4072 -0.4102
17726TIP3   OH274592   6.072   3.317  16.845  0.0310 -0.3363 -0.6430
17726TIP3    H174593   6.150   3.371  16.861 -0.6610  0.2702  0.8927
17726TIP3    H274594   6.095   3.231  16.881 -0.3429  0.1264  0.7692
17727TIP3   OH274595   6.307   1.657  13.221 -0.3799  0.3116 -0.3759
17727TIP3    H174596   6.348   1.732  13.178 -0.5077  0.8382  0.3981
17727TIP3    H274597   6.295   1.685  13.312  0.4962 -1.0145  0.1798
17728TIP3   OH274598   3.098   2.780  12.684 -0.0825 -0.0681  0.1463
17728TIP3    H174599   3.152   2.708  12.653  1.1652  1.4963 -1.5203
17728TIP3    H274600   3.020   2.738  12.721  0.1763 -2.2168 -1.5578
17729TIP3   OH274601   1.898   3.761  15.019 -0.1694  0.5138  0.2633
17729TIP3    H174602   1.986   3.797  15.011  0.3038 -0.4548  0.9132
17729TIP3    H274603   1.874   3.734  14.931  0.6023 -0.1611  0.2540
17730TIP3   OH274604   2.438   3.327   5.504 -0.0699  0.4244  0.3488
17730TIP3    H174605   2.518   3.361   5.544 -0.3421  1.3790  0.1123
17730TIP3    H274606   2.467   3.250   5.454  0.6208  0.4878  0.6383
17731TIP3   OH274607   6.535   2.119   1.886 -0.3076  0.1775 -0.1980
17731TIP3    H174608   6.532   2.132   1.791 -3.4412 -0.1151 -0.2380
17731TIP3    H274609   6.518   2.205   1.923  1.5948  0.4367  0.1958
17732TIP3   OH274610   2.317   4.645  12.116  0.0214  0.0592 -0.4818
17732TIP3    H174611   2.247   4.705  12.092  1.6989  2.3755  0.0186
17732TIP3    H274612   2.291   4.608  12.200 -0.4171  1.2493 -0.0769
17733TIP3   OH274613   3.884   1.858   1.748 -0.3031 -0.0771  0.0875
17733TIP3    H174614   3.862   1.866   1.841  0.4869  0.7564  0.2166
17733TIP3    H274615   3.801   1.834   1.706 -1.1779  1.6486  0.7298
17734TIP3   OH274616   0.290   0.521  14.602  0.3302 -0.0248 -0.3842
17734TIP3    H174617   0.362   0.582  14.588  1.9139 -0.7895  3.2072
17734TIP3    H274618   0.212   0.576  14.609  1.2808  1.3117 -0.0371
17735TIP3   OH274619   0.096   3.982  13.432 -0.3490  0.2488 -0.2688
17735TIP3    H174620   0.117   3.994  13.340 -0.7992 -0.2552 -0.4428
17735TIP3    H274621   0.001   3.994  13.438 -0.1631  1.5847  0.3557
17736TIP3   OH274622   1.323   1.468   5.392  0.2472 -0.4155  0.1334
17736TIP3    H174623   1.237   1.488   5.355 -0.7377  0.1732  2.5380
17736TIP3    H274624   1.341   1.378   5.364 -0.8807 -0.3545 -0.8649
17737TIP3   OH274625   0.358   4.150  16.778 -0.1742 -0.2836  0.6761
17737TIP3    H174626   0.323   4.236  16.802 -0.7002  0.2377 -1.6799
17737TIP3    H274627   0.281   4.100  16.749  0.5844  0.2475 -2.7707
17738TIP3   OH274628   4.314   5.454   5.279 -0.2182 -0.2938 -0.4855
17738TIP3    H174629   4.340   5.364   5.261 -0.4736 -0.3261 -0.7028
17738TIP3    H274630   4.218   5.452   5.283 -0.2794  0.1193 -1.3820
17739TIP3   OH274631   3.315   3.037   0.118  0.0114  0.3222  0.2288
17739TIP3    H174632   3.361   3.071   0.041 -0.2234  0.6478  0.2341
17739TIP3    H274633   3.270   2.959   0.086  0.2043  0.2525  0.1216
17740TIP3   OH274634   5.103   2.638   1.875 -0.3723 -0.5610  0.2875
17740TIP3    H174635   5.115   2.571   1.943 -0.4655 -0.8497  0.0240
17740TIP3    H274636   5.161   2.709   1.901  0.6349 -1.2326 -0.0690
17741TIP3   OH274637   4.518   5.510   2.619  0.3770 -0.5588 -0.2039
17741TIP3    H174638   4.460   5.585   2.608 -0.7020 -1.6200 -2.4556
17741TIP3    H274639   4.575   5.512   2.542  1.0083 -1.4996  0.2184
17742TIP3   OH274640   0.015   6.375  15.304 -0.2112 -0.1245 -0.1074
17742TIP3    H174641   0.043   6.416  15.386  2.3039 -0.0879 -0.8974
17742TIP3    H274642   0.088   6.389  15.244 -2.3318  0.6191 -2.6805
17743TIP3   OH274643   1.828   1.137  15.228 -0.2354  0.0972  0.7049
17743TIP3    H174644   1.792   1.226  15.229  1.3671  0.7813  2.1507
17743TIP3    H274645   1.752   1.082  15.208 -1.3733  1.7355  0.2515
17744TIP3   OH274646   4.511   1.168   4.564  0.0453  0.2879 -0.1220
17744TIP3    H174647   4.503   1.114   4.485 -0.8935 -0.6434  0.5831
17744TIP3    H274648   4.604   1.189   4.569  0.3255 -0.6903 -0.7963
17745TIP3   OH274649   3.774   4.936   2.579 -0.1640  0.4288  0.6220
17745TIP3    H174650   3.742   5.016   2.538  1.3628  0.3951 -0.7336
17745TIP3    H274651   3.862   4.958   2.611  0.1595 -0.6134  0.4857
17746TIP3   OH274652   0.327   1.687   3.968 -0.0094 -0.0150 -0.1144
17746TIP3    H174653   0.373   1.686   3.884  0.7057  4.2982  0.0168
17746TIP3    H274654   0.387   1.643   4.028  0.7850 -0.5590 -1.2651
17747TIP3   OH274655   6.280   2.318   4.507  0.3233 -0.1848 -0.0359
17747TIP3    H174656   6.347   2.361   4.560 -0.1825  0.3586  0.1775
17747TIP3    H274657   6.328   2.254   4.455  0.8005 -0.9430  1.2901
17748TIP3   OH274658   3.456   0.209  15.400 -0.1325 -0.4182 -0.1655
17748TIP3    H174659   3.515   0.204  15.325  0.8598  1.7761  0.3947
17748TIP3    H274660   3.401   0.130  15.393  1.7699 -1.7044 -1.6020
17749TIP3   OH274661   6.156   1.354  10.924 -0.5689  0.0644 -0.6257
17749TIP3    H174662   6.133   1.266  10.953 -1.8109 -0.1686 -2.1941
17749TIP3    H274663   6.218   1.341  10.852  1.8813  0.6218  1.1996
17750TIP3   OH274664   1.547   0.903  16.715 -0.1205 -0.1518  0.0347
17750TIP3    H174665   1.493   0.910  16.636  0.8136 -0.3805 -0.6482
17750TIP3    H274666   1.612   0.836  16.693 -0.0872 -0.4999  1.1536
17751TIP3   OH274667   4.845   2.982  14.443  0.3384 -0.2613  0.0409
17751TIP3    H174668   4.911   2.944  14.385  0.3014  0.9271 -0.8207
17751TIP3    H274669   4.831   2.915  14.510  0.8616 -1.4137 -0.9472
17752TIP3   OH274670   5.583   4.896  15.488  0.2611  0.1034  0.0263
17752TIP3    H174671   5.559   4.825  15.547 -0.4823  1.8737  1.9896
17752TIP3    H274672   5.532   4.880  15.409  0.4068 -1.7221  0.2614
17753TIP3   OH274673   4.371   5.729  12.117 -0.1802 -0.4400 -0.4621
17753TIP3    H174674   4.282   5.764  12.112  0.5069  1.5078  0.0987
17753TIP3    H274675   4.372   5.673  12.194 -0.9925 -0.7596 -0.6776
17754TIP3   OH274676   5.452   4.924  15.230  0.2227  0.4682 -0.1181
17754TIP3    H174677   5.373   4.976  15.244 -0.4706 -0.5792  0.0118
17754TIP3    H274678   5.503   4.975  15.167 -1.5214  0.2133 -1.8476
17755TIP3   OH274679   0.340   6.473   0.600 -0.4910 -0.5432 -0.2492
17755TIP3    H174680   0.252   6.439   0.611 -1.0775  1.2493  1.1707
17755TIP3    H274681   0.348   6.543   0.665  1.1178  0.9926 -1.9249
17756TIP3   OH274682   4.934   1.582  11.952 -0.5010 -0.1290 -0.3328
17756TIP3    H174683   4.988   1.636  11.895 -0.6893 -0.2626 -0.6383
17756TIP3    H274684   4.964   1.492  11.937 -0.5962 -0.1720 -0.2734
17757TIP3   OH274685   5.626   1.065  12.052 -0.2962  0.6919  0.5131
17757TIP3    H174686   5.583   1.020  12.125 -0.9008 -2.2486 -1.4647
17757TIP3    H274687   5.699   1.008  12.029 -0.2263  1.4358 -1.2576
17758TIP3   OH274688   3.745   4.570   2.161  0.0722 -0.5102 -0.3248
17758TIP3    H174689   3.678   4.604   2.221  2.1217  1.8071  0.8242
17758TIP3    H274690   3.763   4.644   2.102  1.8130 -0.9709 -0.4018
17759TIP3   OH274691   2.223   3.463   5.412  0.1078  0.5415  0.1570
17759TIP3    H174692   2.241   3.489   5.322  1.1836  0.5823  0.3773
17759TIP3    H274693   2.303   3.420   5.442 -0.9985 -1.5481  0.3544
17760TIP3   OH274694   1.776   4.110  15.625  0.4348  0.0779  0.0609
17760TIP3    H174695   1.702   4.057  15.597  0.0582  1.0536 -0.8287
17760TIP3    H274696   1.766   4.193  15.579  1.8443  0.3875  0.2513
17761TIP3   OH274697   1.658   5.701  14.863 -0.3037 -0.0430  0.2742
17761TIP3    H174698   1.700   5.657  14.937  0.5532  1.2131  0.5630
17761TIP3    H274699   1.578   5.650  14.847 -1.9826  1.1951  3.8096
17762TIP3   OH274700   0.686   3.530  12.441  0.0206  0.4392 -0.2285
17762TIP3    H174701   0.611   3.587  12.458  0.7251  1.1370  0.6702
17762TIP3    H274702   0.682   3.463  12.510 -1.0536 -0.9138 -1.5327
17763TIP3   OH274703   3.530   4.105  13.062  0.6600  0.3342 -0.6501
17763TIP3    H174704   3.472   4.032  13.084  1.1386 -0.3122 -1.4627
17763TIP3    H274705   3.580   4.122  13.141 -2.4321  2.7014  1.0237
17764TIP3   OH274706   4.329   1.343   4.701 -0.2607 -0.0684 -0.2637
17764TIP3    H174707   4.241   1.308   4.713  0.0782 -0.1756  2.7254
17764TIP3    H274708   4.373   1.277   4.647 -1.2368 -1.4665  0.5615
17765TIP3   OH274709   3.105   2.721   2.724 -0.2513  0.5632 -0.5479
17765TIP3    H174710   3.180   2.666   2.701 -1.0108 -0.8523  0.2571
17765TIP3    H274711   3.143   2.807   2.742  0.9501  0.3835 -1.9988
17766TIP3   OH274712   0.745   5.807  15.347 -0.4634 -0.0546 -0.7016
17766TIP3    H174713   0.723   5.785  15.256  0.5511 -1.2092 -0.6893
17766TIP3    H274714   0.671   5.774  15.398 -1.2932  1.0698 -1.1267
17767TIP3   OH274715   3.464   1.364  16.341 -0.0542 -0.0033 -0.2983
17767TIP3    H174716   3.426   1.376  16.428 -0.9746  0.5596 -0.7642
17767TIP3    H274717   3.545   1.416  16.342  0.2476 -0.4755  0.4023
17768TIP3   OH274718   1.290   2.006   0.548 -0.2090  0.2661 -0.7239
17768TIP3    H174719   1.377   2.036   0.519  0.3169 -0.4820  0.0487
17768TIP3    H274720   1.294   2.007   0.643 -1.2285  0.6929 -0.6728
17769TIP3   OH274721   3.595   3.075  16.906  1.0267  0.2612 -0.3129
17769TIP3    H174722   3.504   3.067  16.933  1.2309  0.9144  0.5796
17769TIP3    H274723   3.609   3.000  16.847  0.2848 -0.5846  0.5591
17770TIP3   OH274724   5.046   4.519  15.581  0.3355  0.1475 -0.3057
17770TIP3    H174725   4.954   4.507  15.606 -0.1471  1.2820 -1.4299
17770TIP3    H274726   5.091   4.542  15.662 -0.8913  2.2049 -0.1375
17771TIP3   OH274727   3.906   6.715   6.095 -0.6973 -0.0359  0.6184
17771TIP3    H174728   3.856   6.731   6.174 -2.0369  0.4520 -0.2983
17771TIP3    H274729   3.901   6.620   6.081 -2.3014  0.1117 -0.0245
17772TIP3   OH274730   2.552   1.686   0.047 -0.1839 -0.0460  0.3639
17772TIP3    H174731   2.628   1.703   0.101  1.2358  0.2226 -1.5927
17772TIP3    H274732   2.488   1.752   0.072  1.6005  2.0917 -0.4086
17773TIP3   OH274733   1.773   3.562   4.144 -0.1082 -0.0477  0.0731
17773TIP3    H174734   1.853   3.513   4.125  0.1778 -0.2160  1.5421
17773TIP3    H274735   1.802   3.633   4.203 -1.1488 -0.6763  1.4014
17774TIP3   OH274736   5.278   2.026   2.777 -0.1822  0.0752  0.4584
17774TIP3    H174737   5.201   2.083   2.780  0.0220  0.3486  0.5297
17774TIP3    H274738   5.345   2.073   2.828  0.1473  0.0195  0.0825
17775TIP3   OH274739   6.419   4.475   1.321 -0.4239  0.1708 -0.3072
17775TIP3    H174740   6.448   4.554   1.368  0.2675  1.1649 -2.2851
17775TIP3    H274741   6.335   4.501   1.281 -0.3535 -0.2080 -0.7020
17776TIP3   OH274742   6.433   6.409   0.757  0.1069 -0.5183  0.4274
17776TIP3    H174743   6.491   6.338   0.731  0.1139 -0.3587  0.0072
17776TIP3    H274744   6.348   6.385   0.721  1.0744  2.2704 -4.7180
17777TIP3   OH274745   6.477   0.652  11.923 -0.0260  0.2379 -0.5972
17777TIP3    H174746   6.555   0.702  11.948 -0.7085  0.3582  1.5244
17777TIP3    H274747   6.495   0.564  11.955  0.3856 -0.4892 -2.6642
17778TIP3   OH274748   0.987   5.682  14.967 -0.2189  0.4769  0.3855
17778TIP3    H174749   0.973   5.776  14.954  0.5193  0.6923  1.0483
17778TIP3    H274750   1.034   5.676  15.050 -0.0784 -0.4686  0.2522
17779TIP3   OH274751   6.404   3.117   4.557 -0.1411  0.3462  0.7611
17779TIP3    H174752   6.312   3.096   4.573 -0.0045 -0.0602  1.0241
17779TIP3    H274753   6.410   3.127   4.462 -0.5340  0.7436  0.7774
17780TIP3   OH274754   5.817   1.596  17.110 -0.2867  0.3115  0.0959
17780TIP3    H174755   5.897   1.554  17.141 -1.2190 -0.7824  1.0976
17780TIP3    H274756   5.771   1.623  17.190 -1.3711  0.0714 -0.4220
17781TIP3   OH274757   5.075   4.230  14.816 -0.0796  0.0676  0.1804
17781TIP3    H174758   5.165   4.261  14.827 -0.6416  1.7776  0.1401
17781TIP3    H274759   5.044   4.272  14.736 -1.0376 -0.2038  0.3999
17782TIP3   OH274760   4.665   4.385   2.643  0.6067 -0.0838 -0.3892
17782TIP3    H174761   4.624   4.387   2.729  1.6172 -1.1454  0.1455
17782TIP3    H274762   4.737   4.447   2.649  1.1207 -0.6892 -0.2224
17783TIP3   OH274763   1.130   5.306  17.076  0.2308 -0.1528 -0.0623
17783TIP3    H174764   1.093   5.272  16.994 -1.3316 -0.3129  0.6801
17783TIP3    H274765   1.205   5.359  17.047  0.7371 -1.5511 -1.4617
17784TIP3   OH274766   0.296   0.911   3.662  0.3802 -0.9821  0.1226
17784TIP3    H174767   0.255   0.902   3.748 -0.8200  0.3769 -0.2785
17784TIP3    H274768   0.241   0.858   3.604 -0.8614  0.8212 -0.4112
17785TIP3   OH274769   2.995   1.498  10.682  0.0302 -0.0925 -0.1791
17785TIP3    H174770   2.944   1.577  10.662 -1.3730 -1.1034 -0.7277
17785TIP3    H274771   3.073   1.505  10.626  0.1097  1.0622  0.0437
17786TIP3   OH274772   1.103   3.471   1.023  0.2889 -0.2498  0.2587
17786TIP3    H174773   1.187   3.462   0.977 -0.1445  0.9149 -0.8339
17786TIP3    H274774   1.055   3.391   1.002  0.8977 -0.6637  0.4147
17787TIP3   OH274775   1.957   3.344  13.455 -0.0562 -0.3471 -0.0028
17787TIP3    H174776   1.941   3.398  13.533  2.0660  1.2688 -0.5870
17787TIP3    H274777   2.037   3.295  13.476  0.2907 -0.2159 -0.9929
17788TIP3   OH274778   6.202   0.492   5.663 -0.3610  0.3125 -0.6414
17788TIP3    H174779   6.293   0.467   5.677  0.5197  2.5579 -1.9063
17788TIP3    H274780   6.154   0.409   5.669  1.4295 -0.6968  2.1040
17789TIP3   OH274781   6.415   4.998   3.221 -0.4653  0.0479 -0.4963
17789TIP3    H174782   6.385   4.909   3.240 -1.0300 -0.6165 -3.8815
17789TIP3    H274783   6.337   5.053   3.230 -0.1928  0.1956  1.2487
17790TIP3   OH274784   4.877   2.807   2.540 -0.0743  0.3813 -0.4277
17790TIP3    H174785   4.872   2.856   2.622 -2.9434 -1.1747  0.4420
17790TIP3    H274786   4.856   2.873   2.473 -1.0070  1.0064  0.4361
17791TIP3   OH274787   1.030   3.019   1.509 -0.1748 -0.1807 -1.2177
17791TIP3    H174788   0.966   2.949   1.496 -1.0412  0.4863 -0.6008
17791TIP3    H274789   1.097   3.002   1.442 -1.4358 -0.3604 -2.4804
17792TIP3   OH274790   6.721   0.575  12.050  0.4811  0.1441 -0.2467
17792TIP3    H174791   6.738   0.486  12.081  0.7599  0.0570 -0.6434
17792TIP3    H274792   6.738   0.572  11.956 -1.1494  0.2038 -0.5721
17793TIP3   OH274793   6.605   2.386   0.397  0.4616 -0.3075  0.2034
17793TIP3    H174794   6.687   2.380   0.447  0.2979 -0.4927  0.4545
17793TIP3    H274795   6.542   2.338   0.450  0.0060  0.4904  0.3900
17794TIP3   OH274796   3.152   3.061  10.813  0.4933  0.3208 -0.0534
17794TIP3    H174797   3.149   3.052  10.908  0.9878 -1.7646 -0.1874
17794TIP3    H274798   3.062   3.081  10.788  0.2837  0.4901  0.8183
17795TIP3   OH274799   1.386   4.752   5.255 -0.2823  0.6487  0.0240
17795TIP3    H174800   1.384   4.804   5.174 -0.4829  2.2506  1.0264
17795TIP3    H274801   1.370   4.815   5.325 -1.5352 -0.9212  1.2399
17796TIP3   OH274802   0.612   4.233   1.291  0.3770  0.0181 -0.1417
17796TIP3    H174803   0.623   4.157   1.348  1.1184  0.2611  0.0482
17796TIP3    H274804   0.519   4.231   1.266  0.4199 -1.0468 -0.2826
17797TIP3   OH274805   1.097   4.628  12.195 -0.0601  0.1338  0.0393
17797TIP3    H174806   1.085   4.682  12.273 -1.2920 -0.0351 -0.0116
17797TIP3    H274807   1.035   4.663  12.131  1.3189  0.6355 -1.0956
17798TIP3   OH274808   6.707   3.153  15.310  0.1913  0.5516 -0.5136
17798TIP3    H174809   6.673   3.140  15.398  3.1469 -1.0154  0.5403
17798TIP3    H274810   6.659   3.091  15.255 -0.9502  0.8136  0.1577
17799TIP3   OH274811   0.723   1.173   4.363  0.8580 -0.0856  0.3217
17799TIP3    H174812   0.787   1.240   4.387  1.0893  0.3223 -1.3123
17799TIP3    H274813   0.772   1.110   4.310  0.5435 -1.3560  1.4881
17800TIP3   OH274814   6.080   2.404  14.411 -0.3778 -0.4935 -0.1663
17800TIP3    H174815   6.108   2.424  14.500  0.3523  0.4457 -0.5951
17800TIP3    H274816   6.138   2.455  14.355 -0.3266 -1.6564 -1.2161
17801TIP3   OH274817   6.600   0.141  15.421 -0.1147  0.9991  0.5816
17801TIP3    H174818   6.675   0.140  15.480 -0.0765  0.1275  0.5299
17801TIP3    H274819   6.601   0.228  15.382  1.5249  0.6367 -0.2573
17802TIP3   OH274820   4.746   6.182   0.605  0.5329  0.3381 -0.0099
17802TIP3    H174821   4.787   6.096   0.612 -0.0383  0.1489  1.3682
17802TIP3    H274822   4.652   6.166   0.617  0.4574  1.1866  0.7012
17803TIP3   OH274823   3.404   1.871   5.878 -0.0118 -0.3332 -0.0158
17803TIP3    H174824   3.414   1.811   5.952  0.3402 -0.2005  0.0488
17803TIP3    H274825   3.316   1.907   5.887 -0.7190 -1.7905 -0.7721
17804TIP3   OH274826   4.076   3.010   0.089 -0.3568 -0.2187 -0.5019
17804TIP3    H174827   4.054   3.090   0.042  0.5010 -0.5291 -1.4723
17804TIP3    H274828   4.008   2.947   0.062 -1.6643  0.4295  1.0849
17805TIP3   OH274829   0.373   1.274  11.005 -0.1911 -0.2980  0.1071
17805TIP3    H174830   0.457   1.240  10.972 -1.3293 -0.2506 -3.2249
17805TIP3    H274831   0.363   1.358  10.960 -0.8101  1.0942  2.6457
17806TIP3   OH274832   1.352   4.866   4.776  0.3707  0.3028 -0.3362
17806TIP3    H174833   1.397   4.842   4.696  0.6538  0.2912 -0.1742
17806TIP3    H274834   1.326   4.782   4.815 -0.5713  0.3293 -0.8675
17807TIP3   OH274835   6.371   1.276   2.494 -0.5157 -0.5080 -0.0619
17807TIP3    H174836   6.282   1.247   2.472 -0.0830 -1.8662 -0.0814
17807TIP3    H274837   6.400   1.324   2.417 -0.4855 -1.8285 -0.9093
17808TIP3   OH274838   6.668   5.365  11.933  0.1043  0.2029  0.2492
17808TIP3    H174839   6.722   5.296  11.971  2.0269  2.0098  0.9498
17808TIP3    H274840   6.715   5.391  11.854 -1.5207 -0.4144 -0.9925
17809TIP3   OH274841   5.982   0.936  15.952  0.2586  0.2194  0.1910
17809TIP3    H174842   5.891   0.923  15.925 -0.4479  0.0320  2.4861
17809TIP3    H274843   6.033   0.885  15.889 -1.3725 -1.1759 -0.0770
17810TIP3   OH274844   4.473   0.338  12.990 -1.3237 -0.0501  0.1183
17810TIP3    H174845   4.499   0.333  12.898 -2.1060  0.5778 -0.1543
17810TIP3    H274846   4.392   0.288  12.994 -1.9065  0.8625  0.2047
17811TIP3   OH274847   5.714   3.542  14.052 -0.5897  0.2592  0.1547
17811TIP3    H174848   5.641   3.603  14.043 -0.3377  0.6707  0.8518
17811TIP3    H274849   5.679   3.471  14.107 -0.1702  0.9572  1.3466
17812TIP3   OH274850   0.210   1.559   5.625 -0.3292  0.5193  0.2986
17812TIP3    H174851   0.197   1.602   5.541 -1.3506  1.6515  1.0032
17812TIP3    H274852   0.145   1.488   5.626 -0.8575  1.0053  0.4597
17813TIP3   OH274853   6.033   0.870   5.782  0.4622 -0.0428  0.0618
17813TIP3    H174854   6.080   0.898   5.860 -0.1202 -1.6815  1.0507
17813TIP3    H274855   6.103   0.844   5.721  0.9585  2.2961 -0.4427
17814TIP3   OH274856   1.994   4.614  12.467 -0.0719 -0.2737  0.0752
17814TIP3    H174857   2.081   4.639  12.497  0.8551 -1.2710 -1.6103
17814TIP3    H274858   1.976   4.531  12.512 -0.5200  0.3207  1.0236
17815TIP3   OH274859   2.483   1.386  11.414  0.4499  0.8126  1.1534
17815TIP3    H174860   2.533   1.416  11.490  2.7776 -0.4377  0.2331
17815TIP3    H274861   2.542   1.326  11.369 -2.5329 -2.2581  0.8895
17816TIP3   OH274862   5.691   0.614   5.038 -0.6104 -0.0914  0.5120
17816TIP3    H174863   5.720   0.601   5.128 -1.3750 -1.0718  0.6362
17816TIP3    H274864   5.612   0.560   5.031  0.0478 -0.9022 -1.0696
17817TIP3   OH274865   3.688   5.984  13.894  0.0391  0.0227  0.1316
17817TIP3    H174866   3.756   5.922  13.869 -1.7631 -1.8636 -0.4432
17817TIP3    H274867   3.685   6.046  13.821  1.1384  0.1496  0.1781
17818TIP3   OH274868   3.557   5.915  15.433 -0.1213 -0.4348 -0.4914
17818TIP3    H174869   3.546   5.831  15.478 -1.2881 -0.3544 -0.5949
17818TIP3    H274870   3.576   5.977  15.504  1.1691 -0.8398 -0.4595
17819TIP3   OH274871   4.452   3.376   3.868  0.2995 -0.1870  0.3241
17819TIP3    H174872   4.493   3.451   3.910  0.4041 -1.5198  2.7643
17819TIP3    H274873   4.490   3.373   3.780  1.2902  1.7873  0.6540
17820TIP3   OH274874   0.917   4.901   1.240  0.2143  0.1169  0.3815
17820TIP3    H174875   0.872   4.823   1.208  0.2268  0.7383 -1.2468
17820TIP3    H274876   0.966   4.933   1.164  0.0300  1.8379  0.9544
17821TIP3   OH274877   1.196   3.462   3.396 -0.4258 -0.0472 -0.0198
17821TIP3    H174878   1.189   3.463   3.300 -0.4002  0.8321 -0.0174
17821TIP3    H274879   1.123   3.407   3.424 -1.2398  0.7611 -0.4890
17822TIP3   OH274880   0.278   3.547  15.999 -0.3727  0.4430 -0.3517
17822TIP3    H174881   0.253   3.573  16.088 -0.5800  0.0118 -0.2783
17822TIP3    H274882   0.331   3.619  15.966  1.2680 -0.1970  0.7935
17823TIP3   OH274883   2.930   1.859  13.562  0.4858  0.4180  0.1161
17823TIP3    H174884   3.001   1.895  13.509  1.7082  0.2072  1.5517
17823TIP3    H274885   2.973   1.829  13.642 -1.0933 -0.5836  0.6254
17824TIP3   OH274886   3.181   4.792  12.563 -0.1633 -0.1297 -0.1552
17824TIP3    H174887   3.270   4.822  12.545  0.8952 -1.3629  2.4502
17824TIP3    H274888   3.140   4.863  12.611 -0.4010  0.2189 -0.8684
17825TIP3   OH274889   3.835   0.631  13.297 -0.0392 -0.8205  0.6449
17825TIP3    H174890   3.757   0.579  13.277 -0.1250 -0.2945 -0.4491
17825TIP3    H274891   3.902   0.566  13.318 -0.4907 -1.3184  0.5745
17826TIP3   OH274892   1.003   5.363  16.477 -0.2710 -0.1441  0.0704
17826TIP3    H174893   0.937   5.338  16.542 -0.7479  1.0727  0.0837
17826TIP3    H274894   1.029   5.280  16.436 -0.8990 -0.7799  0.9209
17827TIP3   OH274895   6.259   2.590   2.074  0.0029  0.4202 -0.2768
17827TIP3    H174896   6.313   2.612   2.149  0.3234  1.1711 -0.7196
17827TIP3    H274897   6.241   2.673   2.031 -1.7356  0.2178  0.0058
17828TIP3   OH274898   0.482   5.402  15.404 -0.0071  0.4080  0.0892
17828TIP3    H174899   0.539   5.451  15.344  0.2057  1.2657  0.9678
17828TIP3    H274900   0.484   5.313  15.371 -0.3344  0.9588 -1.5039
17829TIP3   OH274901   4.738   1.817   3.215  0.2282  0.5452 -0.7264
17829TIP3    H174902   4.688   1.746   3.255  0.2773  0.6405 -0.4904
17829TIP3    H274903   4.792   1.775   3.148 -0.5731  0.5190 -1.3593
17830TIP3   OH274904   2.277   3.243  14.264 -0.0684 -0.0706  0.2092
17830TIP3    H174905   2.206   3.292  14.306  0.7595 -0.6425  2.3776
17830TIP3    H274906   2.259   3.252  14.170 -1.5940  1.8810  0.6151
17831TIP3   OH274907   4.185   4.336   4.078  0.2246 -0.0065  0.2487
17831TIP3    H174908   4.255   4.293   4.127  0.8969  0.3054 -0.4023
17831TIP3    H274909   4.130   4.377   4.144  0.6414 -0.2922  0.7764
17832TIP3   OH274910   5.732   2.995  13.380 -0.4451 -0.1613 -0.2280
17832TIP3    H174911   5.807   2.936  13.387 -0.0573  0.2713 -0.6626
17832TIP3    H274912   5.749   3.046  13.300 -2.3115 -1.6071 -1.6334
17833TIP3   OH274913   0.939   6.735  15.260 -0.5433  0.4705  0.6286
17833TIP3    H174914   0.978   6.650  15.239  1.5206  2.2674 -4.4546
17833TIP3    H274915   0.848   6.729  15.232 -0.1872  0.1502 -0.4716
17834TIP3   OH274916   4.586   1.732  15.511 -0.1207 -0.2637  0.0707
17834TIP3    H174917   4.583   1.695  15.423 -1.4236 -3.6418  1.3481
17834TIP3    H274918   4.647   1.675  15.559  1.5328  2.2261  1.1370
17835TIP3   OH274919   1.857   3.012  15.030 -0.1212 -0.6218 -0.4722
17835TIP3    H174920   1.768   2.979  15.037 -0.6738  1.1677  3.4854
17835TIP3    H274921   1.847   3.101  14.997  0.1035 -0.1934  0.5920
17836TIP3   OH274922   6.493   5.307  12.858 -0.0116 -0.2921 -0.3870
17836TIP3    H174923   6.515   5.346  12.774  2.2105 -0.3394  0.1216
17836TIP3    H274924   6.549   5.352  12.921  0.0368 -1.8554  0.7304
17837TIP3   OH274925   3.129   4.204  16.257  0.3048 -0.5046  0.7719
17837TIP3    H174926   3.092   4.147  16.189  0.4119 -1.2492  1.3268
17837TIP3    H274927   3.212   4.164  16.280  0.3681 -0.1385  1.1993
17838TIP3   OH274928   4.143   5.924  16.857  0.0398 -0.2058 -0.0569
17838TIP3    H174929   4.162   5.844  16.809  0.7507 -0.0956  0.0250
17838TIP3    H274930   4.183   5.994  16.805  1.7351 -0.1892  1.1671
17839TIP3   OH274931   3.544   2.852  10.739 -0.1309 -0.1500 -0.0927
17839TIP3    H174932   3.616   2.914  10.754  0.0962 -0.5583  0.5982
17839TIP3    H274933   3.577   2.769  10.774 -0.7287 -0.4766 -0.2879
17840TIP3   OH274934   0.465   3.767  11.544  0.1102 -0.0528 -0.1567
17840TIP3    H174935   0.526   3.792  11.474 -0.1786  1.5635  0.1429
17840TIP3    H274936   0.515   3.708  11.600  1.2282  0.8207 -0.2198
17841TIP3   OH274937   4.418   1.132   1.722 -0.1178 -0.0796  0.0199
17841TIP3    H174938   4.492   1.157   1.778  1.3260 -1.9423 -0.9327
17841TIP3    H274939   4.344   1.126   1.781  1.1991 -1.2887  1.6399
17842TIP3   OH274940   4.847   5.175   3.964  0.4429 -0.3950  0.3857
17842TIP3    H174941   4.848   5.268   3.983 -0.2254 -0.2569 -0.2205
17842TIP3    H274942   4.891   5.166   3.880  0.2300 -0.5892  0.2927
17843TIP3   OH274943   0.863   6.263   3.661 -0.1680  0.0605 -0.0826
17843TIP3    H174944   0.808   6.297   3.590 -0.1238  0.4446  0.0628
17843TIP3    H274945   0.927   6.332   3.677  1.9425 -1.3552 -1.9018
17844TIP3   OH274946   2.556   6.600  15.689 -0.1486 -0.7731  0.2692
17844TIP3    H174947   2.648   6.620  15.710  0.1101 -1.5870 -0.0540
17844TIP3    H274948   2.550   6.614  15.595 -0.5210 -0.1465  0.3777
17845TIP3   OH274949   6.340   5.089  12.165  0.2589  0.1083 -0.0795
17845TIP3    H174950   6.419   5.093  12.219 -1.6762 -0.0116  2.9876
17845TIP3    H274951   6.332   5.176  12.128  0.8819  0.6566  1.0332
17846TIP3   OH274952   4.599   2.927  16.891  0.3822  0.5764 -0.7613
17846TIP3    H174953   4.616   2.990  16.961 -0.3407 -0.2627  0.2052
17846TIP3    H274954   4.684   2.914  16.849  0.2521  3.5699 -2.2254
17847TIP3   OH274955   5.736   2.746   4.183  0.2059  0.1755  0.3796
17847TIP3    H174956   5.770   2.787   4.263 -2.0039  0.6423  1.1334
17847TIP3    H274957   5.653   2.790   4.166 -0.2874 -1.2307 -1.1199
17848TIP3   OH274958   4.735   5.082   1.164 -1.1238  0.3731 -0.1740
17848TIP3    H174959   4.792   5.038   1.226 -0.9523  0.2108 -0.4429
17848TIP3    H274960   4.795   5.117   1.097 -1.2382  1.1674  0.1297
17849TIP3   OH274961   2.291   1.332  13.220  0.0876  0.1223 -0.2301
17849TIP3    H174962   2.385   1.337  13.205 -0.0392  0.6219 -0.8656
17849TIP3    H274963   2.253   1.322  13.133 -0.4015 -0.9067  0.0777
17850TIP3   OH274964   3.163   0.769  12.859 -0.1651 -0.6386 -0.7345
17850TIP3    H174965   3.107   0.815  12.921  1.5668  0.2252  0.2729
17850TIP3    H274966   3.111   0.694  12.830 -1.6701 -0.0873  0.4131
17851TIP3   OH274967   2.029   3.869   1.450  0.1187 -0.1119  0.5286
17851TIP3    H174968   1.988   3.821   1.378 -0.1659  1.8499 -0.6782
17851TIP3    H274969   2.064   3.800   1.507 -0.5759 -1.7483 -0.9132
17852TIP3   OH274970   2.746   4.777  11.576  0.1935  0.0219 -0.1166
17852TIP3    H174971   2.707   4.843  11.634 -1.2612 -0.6109 -0.3436
17852TIP3    H274972   2.721   4.694  11.615  1.1687 -0.4135 -0.3980
17853TIP3   OH274973   5.225   3.557   0.948 -0.1586 -0.0033  0.7461
17853TIP3    H174974   5.225   3.518   0.861 -1.5291  0.8749  0.3393
17853TIP3    H274975   5.295   3.622   0.946 -1.3184  1.2563 -0.2901
17854TIP3   OH274976   2.525   1.170  14.069  0.3282  0.1115 -0.0979
17854TIP3    H174977   2.466   1.107  14.111 -0.9431  1.7418  0.7436
17854TIP3    H274978   2.584   1.118  14.016 -0.7169 -1.7533  0.4936
17855TIP3   OH274979   2.823   2.473  15.582 -0.5054  0.6204 -0.2514
17855TIP3    H174980   2.888   2.427  15.635  0.0111  2.4641  0.7827
17855TIP3    H274981   2.743   2.421  15.590  0.1239 -0.2341  0.6340
17856TIP3   OH274982   2.800   5.613   4.262 -0.5617 -0.1016  0.8307
17856TIP3    H174983   2.751   5.531   4.266  0.1345 -0.5580  0.3451
17856TIP3    H274984   2.759   5.662   4.191  0.1744 -0.8272 -0.1230
17857TIP3   OH274985   4.774   5.631   3.616  0.3406 -0.0685  0.0617
17857TIP3    H174986   4.832   5.705   3.636 -0.7989  0.4534  1.5921
17857TIP3    H274987   4.831   5.554   3.620  1.8876  0.7725 -3.0795
17858TIP3   OH274988   1.823   4.636   3.107 -0.0433 -0.0486 -0.2368
17858TIP3    H174989   1.764   4.621   3.033 -1.2198  2.8945 -0.0408
17858TIP3    H274990   1.807   4.561   3.165 -1.7289 -0.6329 -1.3461
17859TIP3   OH274991   5.133   3.708  16.921 -0.2035  0.7489  0.2844
17859TIP3    H174992   5.065   3.663  16.871  0.0203  0.1656  0.4967
17859TIP3    H274993   5.138   3.659  17.003  0.6362  0.6530  0.1801
17860TIP3   OH274994   6.072   2.937  12.122 -0.0361  0.4141 -0.3877
17860TIP3    H174995   6.102   3.002  12.185 -1.3397 -0.0368  0.7554
17860TIP3    H274996   5.977   2.938  12.130 -0.3008  0.6776 -2.7305
17861TIP3   OH274997   2.709   5.803  11.956  0.5896 -0.0931  0.6394
17861TIP3    H174998   2.657   5.743  12.010  0.4328  1.6935  2.6068
17861TIP3    H274999   2.709   5.885  12.005  0.4379  1.6934 -2.1257
17862TIP3   OH275000   2.405   0.323  14.094 -0.1735 -0.4542  0.6430
17862TIP3    H175001   2.370   0.320  14.183 -0.6975  0.4894  0.4847
17862TIP3    H275002   2.495   0.355  14.105 -0.1146 -0.6943  0.8655
17863TIP3   OH275003   5.141   4.824   1.643 -0.0646 -0.2856 -0.0717
17863TIP3    H175004   5.082   4.754   1.674 -0.7767  0.5450  0.5001
17863TIP3    H275005   5.165   4.871   1.723 -0.0452  0.4698 -0.5209
17864TIP3   OH275006   0.646   1.023   4.916 -0.1358 -0.2137 -0.3376
17864TIP3    H175007   0.581   1.055   4.854  0.5654 -0.5664 -1.2879
17864TIP3    H275008   0.604   0.948   4.958 -0.9665  0.6023  0.3043
17865TIP3   OH275009   5.919   5.471  14.629 -0.3636 -0.0363  0.2406
17865TIP3    H175010   5.919   5.380  14.597 -1.8175 -0.7660  2.1014
17865TIP3    H275011   6.012   5.493  14.638  0.0427 -0.8463 -1.4413
17866TIP3   OH275012   1.363   6.129  16.930  0.3456  0.0173 -0.0208
17866TIP3    H175013   1.343   6.073  17.005  0.0545  0.1594  0.0092
17866TIP3    H275014   1.440   6.089  16.889  0.0845 -0.4548 -0.0513
17867TIP3   OH275015   3.666   4.317   1.016  0.1278 -0.2238 -0.2528
17867TIP3    H175016   3.584   4.367   1.020  0.3908  0.2555 -0.7772
17867TIP3    H275017   3.639   4.226   1.028 -0.2847  0.0761  1.5035
17868TIP3   OH275018   4.025   1.054   0.219  0.1874 -0.2431 -0.1666
17868TIP3    H175019   4.099   1.086   0.168 -0.4181  1.3896 -0.0887
17868TIP3    H275020   4.011   1.120   0.286 -1.8954 -0.0203 -0.7418
17869TIP3   OH275021   5.856   1.772  12.600  0.1231  0.1429 -0.5895
17869TIP3    H175022   5.902   1.780  12.683  1.4040 -1.0669 -1.1476
17869TIP3    H275023   5.766   1.798  12.620  0.6246  0.8247  0.9348
17870TIP3   OH275024   0.122   0.316   5.583  0.4822  0.6775  0.4230
17870TIP3    H175025   0.166   0.339   5.501  2.8743  0.8505  1.6652
17870TIP3    H275026   0.177   0.355   5.651  0.3161 -2.0143  2.2503
17871TIP3   OH275027   1.941   0.726  12.928  0.0674 -0.4175  0.2388
17871TIP3    H175028   1.980   0.642  12.952 -0.9759 -0.9247  0.2411
17871TIP3    H275029   1.852   0.722  12.964  0.0924  0.8037  0.4739
17872TIP3   OH275030   3.246   2.325  14.355 -0.1676 -0.7108 -1.0789
17872TIP3    H175031   3.177   2.343  14.291  1.2179 -1.0781 -2.7398
17872TIP3    H275032   3.223   2.240  14.392 -2.2701  0.5431  0.7454
17873TIP3   OH275033   5.529   6.404  11.774  0.1845  0.1915 -0.2546
17873TIP3    H175034   5.455   6.354  11.741 -0.1524  0.8610 -0.5431
17873TIP3    H275035   5.517   6.404  11.869  0.4413 -0.6498 -0.2143
17874TIP3   OH275036   6.202   3.746  16.334 -0.4639  0.1091  0.7823
17874TIP3    H175037   6.216   3.777  16.244 -0.6126 -2.0594 -0.0483
17874TIP3    H275038   6.288   3.754  16.376 -0.4315  1.3019  0.5287
17875TIP3   OH275039   0.493   2.129   2.983  0.1537 -0.5368  0.2969
17875TIP3    H175040   0.531   2.062   3.040  2.1449 -0.3749 -0.7508
17875TIP3    H275041   0.540   2.209   3.005 -2.4384  0.6991  1.7807
17876TIP3   OH275042   1.285   0.803   0.275  0.2580 -0.1222 -0.7076
17876TIP3    H175043   1.306   0.766   0.189  0.3854  1.2370 -1.2903
17876TIP3    H275044   1.197   0.769   0.295  1.0164 -2.0601 -0.4144
17877TIP3   OH275045   0.717   2.172  17.206 -0.8037  0.0273 -0.7554
17877TIP3    H175046   0.636   2.154  17.158 -0.3770 -0.5147 -1.2885
17877TIP3    H275047   0.782   2.114  17.166 -0.0787  0.6820 -0.5504
17878TIP3   OH275048   4.442   5.629   0.090  0.2663  0.0382 -0.0765
17878TIP3    H175049   4.468   5.606   0.179  1.6313  0.1949 -0.4105
17878TIP3    H275050   4.512   5.593   0.035 -0.7148 -0.3392 -1.1177
17879TIP3   OH275051   6.299   4.179  16.906 -0.4718 -0.1288  0.6538
17879TIP3    H175052   6.210   4.208  16.928 -0.7083 -0.4880  0.2022
17879TIP3    H275053   6.327   4.129  16.983 -1.0534 -0.8579  0.4129
17880TIP3   OH275054   2.648   3.807  16.503 -0.0812  0.4696 -0.5888
17880TIP3    H175055   2.592   3.795  16.579  1.4394  0.6086  0.6110
17880TIP3    H275056   2.652   3.721  16.462 -0.7493  0.3458 -0.4013
17881TIP3   OH275057   3.376   3.338   3.471  0.6781 -0.7163 -0.2581
17881TIP3    H175058   3.468   3.341   3.497  1.2043  0.2919 -2.0314
17881TIP3    H275059   3.334   3.281   3.535  2.1764  0.2027  1.6452
17882TIP3   OH275060   1.497   0.474   0.639 -0.2582 -0.3878  0.2372
17882TIP3    H175061   1.479   0.419   0.716 -2.1638 -0.2634 -0.0753
17882TIP3    H275062   1.424   0.535   0.636  1.2800  1.5350 -0.0371
17883TIP3   OH275063   6.235   0.600  16.908  0.1890  0.1438  0.0319
17883TIP3    H175064   6.277   0.550  16.837  2.0908 -0.1975  1.3192
17883TIP3    H275065   6.189   0.671  16.863  0.1332 -0.8854 -1.6262
17884TIP3   OH275066   2.735   0.300  17.246  0.0419  0.0740 -0.2737
17884TIP3    H175067   2.733   0.206  17.230  4.7803 -0.1769 -0.9954
17884TIP3    H275068   2.766   0.338  17.164  2.0626  1.6853  1.1170
17885TIP3   OH275069   6.747   5.412   0.932 -0.3026  0.1969  0.1383
17885TIP3    H175070   6.740   5.381   0.842  2.4112  1.2732 -0.5521
17885TIP3    H275071   6.820   5.362   0.969  0.5547  1.8122  0.7327
17886TIP3   OH275072   6.259   4.527  14.999  0.1023  0.7747  0.8435
17886TIP3    H175073   6.334   4.526  15.058 -0.1301  0.4217  1.1378
17886TIP3    H275074   6.196   4.466  15.038  0.8448 -1.2652 -0.9488
17887TIP3   OH275075   4.008   3.913  11.504 -0.2291 -1.0539 -0.1357
17887TIP3    H175076   3.976   3.940  11.591  0.1113 -0.9926 -0.0255
17887TIP3    H275077   3.930   3.884  11.458 -0.2647 -2.1411  0.5741
17888TIP3   OH275078   2.322   4.879   2.536 -0.6096 -0.0440 -0.2920
17888TIP3    H175079   2.335   4.784   2.545  0.1277  0.1193  0.3585
17888TIP3    H275080   2.234   4.894   2.570 -1.0034 -0.5826 -1.0286
17889TIP3   OH275081   6.346   4.267  15.910 -0.0806 -0.1887  0.3710
17889TIP3    H175082   6.342   4.302  15.999  0.5226  1.1106 -0.0752
17889TIP3    H275083   6.434   4.289  15.880  0.0553 -1.4683 -0.2274
17890TIP3   OH275084   0.101   5.379  17.265  0.7309 -0.5289  0.4903
17890TIP3    H175085   0.125   5.458  17.217  0.3806 -0.0252  1.1212
17890TIP3    H275086   0.111   5.308  17.202  1.4271 -0.0298  0.0225
17891TIP3   OH275087   4.293   2.827   2.811  0.0238  0.0582  0.0249
17891TIP3    H175088   4.382   2.798   2.829  0.0161 -1.0986 -1.5835
17891TIP3    H275089   4.260   2.765   2.746 -0.5093  2.8057 -2.5646
17892TIP3   OH275090   0.391   0.751  14.146 -0.1623  0.1910  0.4621
17892TIP3    H175091   0.343   0.680  14.102 -0.4203 -0.9679  2.4703
17892TIP3    H275092   0.333   0.827  14.139  0.4609  0.5111 -2.4195
17893TIP3   OH275093   2.945   2.733  16.540 -0.0683  0.0021  0.7123
17893TIP3    H175094   2.860   2.764  16.508  0.3155  0.1741 -0.1790
17893TIP3    H275095   2.944   2.754  16.634  0.1835  2.8753  0.1843
17894TIP3   OH275096   3.894   0.244  12.782  0.3988  0.4844  0.2989
17894TIP3    H175097   3.966   0.188  12.809  0.1442 -0.2732 -0.5372
17894TIP3    H275098   3.815   0.193  12.802  0.2038 -0.0976 -1.7799
17895TIP3   OH275099   0.848   0.030   4.097 -0.7846  0.0486 -0.4901
17895TIP3    H175100   0.927  -0.010   4.131 -1.6168 -1.2277  0.0229
17895TIP3    H275101   0.866   0.124   4.098  0.9109 -0.2403 -0.9245
17896TIP3   OH275102   4.486   1.874  15.941  0.3489 -0.1871  0.1732
17896TIP3    H175103   4.422   1.942  15.961  2.0543  1.8376 -0.8515
17896TIP3    H275104   4.450   1.830  15.865  0.1138  0.8744 -0.3556
17897TIP3   OH275105   3.422   6.702   2.343  0.3124  0.0809  0.2611
17897TIP3    H175106   3.372   6.701   2.425 -0.2126  1.5501 -0.0013
17897TIP3    H275107   3.355   6.706   2.275  0.7530 -0.7241 -0.2328
17898TIP3   OH275108   1.829   3.056   0.442  0.8576 -0.9740 -0.1115
17898TIP3    H175109   1.860   3.120   0.378 -0.9552  0.2054  0.1272
17898TIP3    H275110   1.782   2.991   0.390 -1.6460  0.6071  0.0117
17899TIP3   OH275111   6.096   3.123   5.288 -0.3482 -0.2523  0.3130
17899TIP3    H175112   6.143   3.203   5.263  0.7421 -1.1349 -0.5541
17899TIP3    H275113   6.004   3.149   5.288  0.0881  1.5048  2.0190
17900TIP3   OH275114   0.227   4.820   1.119  0.8338 -0.3683  0.0812
17900TIP3    H175115   0.219   4.864   1.034 -0.7132 -1.5922 -0.4476
17900TIP3    H275116   0.189   4.883   1.182  0.7809  0.0006 -0.3154
17901TIP3   OH275117   5.288   0.618  16.785  0.2203  0.9822  0.2733
17901TIP3    H175118   5.224   0.657  16.725  1.1108  3.0883  0.6495
17901TIP3    H275119   5.318   0.539  16.739 -1.0156  1.1345 -0.8670
17902TIP3   OH275120   6.636   2.551   3.767  0.1434  0.2294 -0.6663
17902TIP3    H175121   6.685   2.602   3.831 -0.5388 -0.0542  0.0980
17902TIP3    H275122   6.626   2.465   3.808  0.2173 -0.1433 -1.4139
17903TIP3   OH275123   2.241   1.400  15.373 -0.5028  0.1460 -0.0290
17903TIP3    H175124   2.254   1.327  15.314 -1.3262  0.0167 -0.0600
17903TIP3    H275125   2.239   1.477  15.316 -1.8551 -0.0326 -0.2441
17904TIP3   OH275126   2.405   3.734  17.118 -0.2260 -0.2961  0.3878
17904TIP3    H175127   2.332   3.696  17.069 -0.9882  1.5698  0.0020
17904TIP3    H275128   2.374   3.821  17.142  1.8971  0.5672  0.1558
17905TIP3   OH275129   0.309   4.019   6.356  0.0903  0.3123 -0.8333
17905TIP3    H175130   0.303   3.931   6.393 -2.4886  0.2281 -1.2522
17905TIP3    H275131   0.382   4.059   6.402  0.9139 -1.8053 -0.1526
17906TIP3   OH275132   2.336   6.156  13.419 -0.2047 -1.1550 -0.0377
17906TIP3    H175133   2.421   6.132  13.458  1.3183  1.4657 -1.4536
17906TIP3    H275134   2.351   6.148  13.324 -0.9258  1.0097 -0.3837
17907TIP3   OH275135   3.767   5.612   4.768  0.1266 -0.0845  0.1978
17907TIP3    H175136   3.747   5.695   4.812 -0.1861  0.1009 -0.2874
17907TIP3    H275137   3.839   5.634   4.708  0.6604 -0.3719  0.7275
17908TIP3   OH275138   1.028   2.555  14.637 -0.1087  0.0186 -0.4065
17908TIP3    H175139   0.952   2.499  14.618 -2.0938  1.5543  2.1747
17908TIP3    H275140   1.013   2.584  14.727  2.7704  1.7130 -0.3714
17909TIP3   OH275141   0.815   0.129   2.403 -0.1940 -0.5931  0.3607
17909TIP3    H175142   0.765   0.064   2.354  0.2194  1.7208 -3.5207
17909TIP3    H275143   0.902   0.090   2.412  0.2716 -0.4290 -2.5932
17910TIP3   OH275144   4.802   2.197  15.181  0.2431  0.0714  0.1560
17910TIP3    H175145   4.897   2.193  15.170  0.1277  0.0091 -0.9124
17910TIP3    H275146   4.768   2.133  15.118 -0.6375  2.2148 -1.6696
17911TIP3   OH275147   2.453   1.286   3.164  0.1459  0.0924  0.1741
17911TIP3    H175148   2.528   1.341   3.184 -0.0340  0.5019 -0.2614
17911TIP3    H275149   2.464   1.263   3.072 -0.6039  0.6960 -0.0721
17912TIP3   OH275150   2.835   5.299   5.069 -0.2781 -0.5833 -0.3039
17912TIP3    H175151   2.840   5.204   5.058  0.5183 -0.8227  1.7219
17912TIP3    H275152   2.888   5.317   5.147  0.3409  1.6464 -1.1826
17913TIP3   OH275153   5.107   3.454   6.600  0.4268 -0.2344 -0.3585
17913TIP3    H175154   5.134   3.457   6.692 -0.6330 -0.6813 -0.0164
17913TIP3    H275155   5.049   3.530   6.589 -1.6108 -1.6346  0.0965
17914TIP3   OH275156   4.176   0.194  14.051  0.4623 -0.5697  0.6627
17914TIP3    H175157   4.086   0.197  14.084 -0.3636  2.3009 -1.4155
17914TIP3    H275158   4.178   0.119  13.992  0.0311 -1.7739  2.1232
17915TIP3   OH275159   3.044   2.256   4.744 -0.1225 -0.5911  0.0643
17915TIP3    H175160   3.013   2.167   4.724 -0.1659 -0.4497 -0.5233
17915TIP3    H275161   3.107   2.244   4.815  1.2952 -1.3240 -1.2707
17916TIP3   OH275162   2.454   3.984   1.612  0.3676  0.3845 -0.1904
17916TIP3    H175163   2.430   3.947   1.527 -1.8924  0.7989  0.1999
17916TIP3    H275164   2.434   3.915   1.674  0.1803  0.7678  0.1772
17917TIP3   OH275165   1.906   2.777  12.330 -0.3264 -0.2952 -0.5798
17917TIP3    H175166   1.953   2.701  12.295 -1.3967 -1.1411 -0.2710
17917TIP3    H275167   1.882   2.828  12.253  3.1879  1.5453 -0.6516
17918TIP3   OH275168   2.007   1.705   0.539  0.4197  0.0162  0.6874
17918TIP3    H175169   2.074   1.644   0.507  0.6043  0.6232 -0.1142
17918TIP3    H275170   2.030   1.789   0.499 -1.8087 -0.1097 -1.0529
17919TIP3   OH275171   5.152   5.998   3.761  0.2537  0.0232  0.3240
17919TIP3    H175172   5.198   5.947   3.828  0.5888  0.6701  0.5958
17919TIP3    H275173   5.207   5.990   3.683  1.7558  2.1253  1.0751
17920TIP3   OH275174   2.476   0.824  13.189 -0.2774 -0.1516  0.3783
17920TIP3    H175175   2.489   0.891  13.122  0.7148 -1.3140 -0.6347
17920TIP3    H275176   2.393   0.782  13.165 -0.1387 -0.2810  0.1190
17921TIP3   OH275177   2.161   2.530  11.117  0.4706 -0.4621  0.7846
17921TIP3    H175178   2.212   2.554  11.194 -0.0552 -0.0265  0.9975
17921TIP3    H275179   2.222   2.478  11.064  2.1517  2.5201 -0.4307
17922TIP3   OH275180   1.878   4.428   2.263  0.4252 -0.5312  0.1567
17922TIP3    H175181   1.907   4.361   2.325  0.4018 -1.8008 -1.1410
17922TIP3    H275182   1.793   4.457   2.296 -0.8305 -3.0731 -0.6163
17923TIP3   OH275183   5.220   2.928  11.421 -0.3798 -0.7220 -0.3362
17923TIP3    H175184   5.236   2.978  11.341  0.3702 -0.7951 -0.2434
17923TIP3    H275185   5.162   2.857  11.393  0.5510 -1.2420 -1.0159
17924TIP3   OH275186   1.833   1.697   3.310  0.2844 -0.0340  0.0966
17924TIP3    H175187   1.913   1.669   3.354  0.6087 -0.3465 -0.6737
17924TIP3    H275188   1.813   1.783   3.348  0.4761 -0.3482  0.9365
17925TIP3   OH275189   5.583   0.974   6.640  0.1563  0.4364  0.1384
17925TIP3    H175190   5.521   1.022   6.696 -0.5143 -0.1438 -0.0864
17925TIP3    H275191   5.534   0.959   6.559 -0.1471 -1.7633  0.6663
17926TIP3   OH275192   5.887   2.148   3.251  0.2786 -0.0068 -0.2468
17926TIP3    H175193   5.828   2.154   3.326  0.2294  0.1049 -0.2932
17926TIP3    H275194   5.973   2.172   3.286 -0.0632  1.9068 -0.6038
17927TIP3   OH275195   0.986   5.723  16.901  0.1053  0.0518 -0.3649
17927TIP3    H175196   0.982   5.790  16.833  0.7292  0.6668  0.1838
17927TIP3    H275197   0.978   5.640  16.854 -0.4620  0.5009 -1.0737
17928TIP3   OH275198   3.238   0.205  12.208 -0.2107 -0.4300  0.4127
17928TIP3    H175199   3.171   0.272  12.220 -0.1594 -0.4378  0.7440
17928TIP3    H275200   3.197   0.124  12.239 -0.3023 -0.5678 -0.0648
17929TIP3   OH275201   6.037   5.051   2.488 -0.1732  0.4595  0.3765
17929TIP3    H175202   5.970   5.100   2.536 -0.6951  1.6190 -1.3875
17929TIP3    H275203   6.005   5.052   2.397  1.3615 -0.5292 -0.2014
17930TIP3   OH275204   3.706   6.188   0.138 -0.1065  0.0410  0.0563
17930TIP3    H175205   3.658   6.266   0.111  0.3157  0.1254 -0.4805
17930TIP3    H275206   3.658   6.116   0.098 -0.6757 -0.0017  0.8108
17931TIP3   OH275207   3.553   2.988  11.021 -0.3257 -0.3676  0.4249
17931TIP3    H175208   3.598   2.994  10.936  0.1627 -1.0499  0.6198
17931TIP3    H275209   3.623   2.997  11.085 -0.1982 -2.8624  0.7308
17932TIP3   OH275210   5.865   5.283  12.810 -0.0635 -0.1939 -0.3489
17932TIP3    H175211   5.813   5.255  12.735  0.4759  1.2073 -1.3090
17932TIP3    H275212   5.878   5.204  12.862 -4.1005 -0.4217  0.5959
17933TIP3   OH275213   0.664   2.943  15.282  0.0674  0.4986 -0.2093
17933TIP3    H175214   0.666   2.917  15.374  2.3129 -3.3022 -1.1208
17933TIP3    H275215   0.573   2.932  15.256 -0.4571  0.9210  1.3450
17934TIP3   OH275216   4.168   4.507  13.889  0.1856 -0.4282  0.6900
17934TIP3    H175217   4.081   4.497  13.851  0.1224  0.2753  0.6314
17934TIP3    H275218   4.153   4.560  13.968  0.6177  0.1548  0.3922
17935TIP3   OH275219   6.493   0.972  15.125 -0.0803 -0.1852  0.2130
17935TIP3    H175220   6.569   0.997  15.072  0.6427  0.6268  1.5871
17935TIP3    H275221   6.444   1.054  15.137 -1.1206 -0.6739 -0.5414
17936TIP3   OH275222   0.250   3.167   3.441  0.3003 -0.5444 -0.7338
17936TIP3    H175223   0.332   3.123   3.416  0.0469 -0.6232 -1.4644
17936TIP3    H275224   0.224   3.214   3.362 -0.5319 -0.7935 -0.6153
17937TIP3   OH275225   2.508   3.568   1.709 -0.5749  0.6521 -0.3130
17937TIP3    H175226   2.574   3.582   1.641 -0.3052 -0.0115 -0.1957
17937TIP3    H275227   2.500   3.473   1.715 -1.3040  0.7210 -0.0891
17938TIP3   OH275228   5.556   0.090   3.887  0.2365 -0.6398  0.3767
17938TIP3    H175229   5.633   0.126   3.932  0.4816 -1.5158  0.6840
17938TIP3    H275230   5.535   0.010   3.936  0.6739 -1.7737 -1.2294
17939TIP3   OH275231   5.657   6.000  13.424  0.3703 -0.2711 -0.0245
17939TIP3    H175232   5.749   6.025  13.425  0.7152 -1.4158 -0.4814
17939TIP3    H275233   5.619   6.041  13.501  2.0705 -2.6059  2.2248
17940TIP3   OH275234   0.961   1.568   5.711  0.4538  0.6079  0.3720
17940TIP3    H175235   0.968   1.566   5.807  1.4079 -1.6351  0.3083
17940TIP3    H275236   0.890   1.508   5.690  2.1844 -1.2549 -0.4045
17941TIP3   OH275237   2.912   2.738   2.496  0.7350 -0.0629 -0.3054
17941TIP3    H175238   2.969   2.705   2.427 -0.4609  0.3389 -1.5309
17941TIP3    H275239   2.971   2.782   2.557  1.6677  1.0856 -1.9733
17942TIP3   OH275240   5.215   1.044  11.532 -0.1473  0.9507  0.2547
17942TIP3    H175241   5.247   1.116  11.588 -2.7097  0.2918  2.8410
17942TIP3    H275242   5.234   0.965  11.582  0.9965 -0.0897 -1.7208
17943TIP3   OH275243   5.825   5.682  15.773 -0.1554 -0.1671  0.1320
17943TIP3    H175244   5.870   5.761  15.801  1.3080 -0.8213 -0.2928
17943TIP3    H275245   5.865   5.660  15.689 -1.1904 -0.8546 -0.2053
17944TIP3   OH275246   3.033   5.235   3.207  0.4547  1.0051 -0.8701
17944TIP3    H175247   2.974   5.180   3.257 -0.9025  1.8648 -1.4570
17944TIP3    H275248   3.035   5.318   3.255  2.0167  0.6671 -0.3038
17945TIP3   OH275249   5.358   1.106  12.006 -1.1434  0.2439 -0.4623
17945TIP3    H175250   5.454   1.112  12.010 -1.1253 -0.4797  1.8199
17945TIP3    H275251   5.329   1.197  11.999 -0.3022  0.5223 -0.4563
17946TIP3   OH275252   1.652   0.123   2.436  0.4369 -0.4266  0.4721
17946TIP3    H175253   1.650   0.216   2.462 -1.1941  0.1527 -1.4892
17946TIP3    H275254   1.569   0.088   2.469  0.4822 -0.8675  0.1150
17947TIP3   OH275255   5.593   4.686   0.844 -0.5700 -0.5036 -0.5088
17947TIP3    H175256   5.542   4.734   0.779  1.6380 -1.3507 -3.0807
17947TIP3    H275257   5.537   4.682   0.921 -2.7457  1.9087 -1.8197
17948TIP3   OH275258   2.334   6.023   2.220  0.5572  0.1367  0.3134
17948TIP3    H175259   2.371   6.081   2.286 -1.0729 -0.0852  1.4876
17948TIP3    H275260   2.245   6.005   2.251  1.1396 -3.4418  0.3566
17949TIP3   OH275261   6.131   1.082   1.162 -0.1858  0.3735 -0.3528
17949TIP3    H175262   6.148   1.111   1.252  0.4388 -0.2663 -0.2492
17949TIP3    H275263   6.140   1.161   1.109  0.6555  0.5326  0.0142
17950TIP3   OH275264   3.620   0.167  14.095 -0.2499 -0.1203 -0.0977
17950TIP3    H175265   3.553   0.193  14.031 -0.8223  1.6219  1.1014
17950TIP3    H275266   3.570   0.127  14.166 -0.4208  3.1033  1.7828
17951TIP3   OH275267   5.716   5.741  13.313  0.1761  0.1151  0.0403
17951TIP3    H175268   5.696   5.827  13.349  0.1182  0.5614 -1.0449
17951TIP3    H275269   5.635   5.713  13.270  0.2765 -0.3731  0.1582
17952TIP3   OH275270   3.138   0.427   7.025 -0.1276 -0.2261  0.6218
17952TIP3    H175271   3.105   0.348   7.068  0.5233 -0.9704 -0.2382
17952TIP3    H275272   3.233   0.425   7.039 -0.2384  1.3052  2.0664
17953TIP3   OH275273   5.434   6.268  14.014  0.4033  0.3310 -0.1855
17953TIP3    H175274   5.352   6.236  13.977  0.4706  2.3775 -2.4051
17953TIP3    H275275   5.492   6.192  14.014 -0.8593 -0.6620 -0.5615
17954TIP3   OH275276   0.512   4.424   4.728 -0.2354  0.3559 -0.1940
17954TIP3    H175277   0.512   4.369   4.650 -1.4607  1.2025 -0.8117
17954TIP3    H275278   0.603   4.424   4.758 -0.0510 -1.3165 -0.6502
17955TIP3   OH275279   5.904   4.508   3.723 -0.0756  0.3793  0.0296
17955TIP3    H175280   5.923   4.584   3.778 -0.7664  1.3223 -0.9970
17955TIP3    H275281   5.854   4.543   3.649  0.9242 -0.8309 -1.2837
17956TIP3   OH275282   6.389   2.683  12.597 -0.5870  1.0105  0.0817
17956TIP3    H175283   6.423   2.769  12.572 -0.5971  0.6398 -1.3231
17956TIP3    H275284   6.327   2.701  12.667 -1.1266  2.2401 -0.6699
17957TIP3   OH275285   2.736   4.455   5.220  0.2060 -0.2718 -0.1375
17957TIP3    H175286   2.796   4.489   5.287  0.5540 -1.2255  0.0433
17957TIP3    H275287   2.778   4.479   5.137 -0.5345  1.4649 -0.0502
17958TIP3   OH275288   1.041   1.537  16.645  0.4537 -0.3957 -0.2172
17958TIP3    H175289   1.033   1.569  16.555 -0.2573  0.2829  0.0774
17958TIP3    H275290   1.025   1.443  16.638 -1.1128 -0.1189 -0.6056
17959TIP3   OH275291   3.415   5.413  16.819  0.4225 -0.4793 -0.0876
17959TIP3    H175292   3.462   5.363  16.886 -0.4779 -1.8442 -0.4406
17959TIP3    H275293   3.368   5.347  16.768 -2.9120  0.8192  1.0005
17960TIP3   OH275294   4.425   0.152  11.603  0.4855  0.6048  0.4201
17960TIP3    H175295   4.379   0.231  11.576  0.9472  0.7422  0.0246
17960TIP3    H275296   4.356   0.088  11.618  0.0527  1.2619  1.3696
17961TIP3   OH275297   3.243   1.301  14.366 -0.4915 -0.1858  0.0309
17961TIP3    H175298   3.236   1.368  14.298 -2.2604 -0.6447 -0.2735
17961TIP3    H275299   3.254   1.219  14.318  2.4786 -0.1330  0.4071
17962TIP3   OH275300   3.622   0.084   0.812 -0.1259 -0.9023  0.5826
17962TIP3    H175301   3.683   0.131   0.870 -0.4770 -1.0293  1.0626
17962TIP3    H275302   3.668   0.004   0.789 -0.4622 -1.4355  1.6911
17963TIP3   OH275303   0.933   2.434   2.414  0.1344 -0.3379  0.2878
17963TIP3    H175304   1.003   2.370   2.399  0.2617  0.0981 -1.2301
17963TIP3    H275305   0.856   2.396   2.371  0.2948  0.6375 -0.9265
17964TIP3   OH275306   2.570   0.930   2.069  0.3732  0.7638  0.4206
17964TIP3    H175307   2.543   0.875   1.996  0.6169 -0.3193  1.1210
17964TIP3    H275308   2.488   0.958   2.109  0.2436  1.1297 -0.0934
17965TIP3   OH275309   4.237   6.398  12.296 -0.1333  0.2347  0.3600
17965TIP3    H175310   4.179   6.474  12.301  0.1790  0.4229  1.3924
17965TIP3    H275311   4.196   6.341  12.231 -1.7585  0.1244  1.4305
17966TIP3   OH275312   1.664   0.220  12.192  0.7424  0.3262 -0.6843
17966TIP3    H175313   1.581   0.184  12.222 -0.9693  2.2442 -2.6965
17966TIP3    H275314   1.720   0.144  12.176 -1.3593 -1.1898 -1.1761
17967TIP3   OH275315   6.235   1.710   1.837  0.1071  0.2482  0.3870
17967TIP3    H175316   6.163   1.730   1.777 -0.4077  0.0404  0.9241
17967TIP3    H275317   6.192   1.696   1.921  0.7025 -0.6542  0.5462
17968TIP3   OH275318   1.451   2.141  15.054  0.0703 -0.4261  0.1191
17968TIP3    H175319   1.507   2.172  14.983 -1.2902 -0.2828 -0.9400
17968TIP3    H275320   1.418   2.221  15.096 -0.0403 -0.4966  0.1672
17969TIP3   OH275321   2.672   2.031   4.562  0.0538  0.0436  0.1378
17969TIP3    H175322   2.578   2.032   4.577 -0.1936  1.7558 -1.1912
17969TIP3    H275323   2.710   2.061   4.645 -0.4401 -1.7507  1.0665
17970TIP3   OH275324   0.827   3.873  14.917 -0.5682  0.3002  0.7032
17970TIP3    H175325   0.906   3.911  14.878  0.3786 -1.4164  0.8569
17970TIP3    H275326   0.765   3.946  14.921  0.2849  1.2002 -1.3321
17971TIP3   OH275327   3.679   3.983  17.222  0.7498 -0.5577 -0.4010
17971TIP3    H175328   3.675   3.995  17.127  2.3213  0.2746 -0.3946
17971TIP3    H275329   3.646   3.894  17.236 -1.2624 -0.0583 -1.5172
17972TIP3   OH275330   3.945   4.220   3.644  1.0498 -0.3152 -0.9145
17972TIP3    H175331   3.994   4.191   3.721  0.0878 -4.1532 -1.4828
17972TIP3    H275332   3.861   4.251   3.680  1.5575  0.3799 -0.3030
17973TIP3   OH275333   6.453   2.255  16.575  0.4800 -0.0102  0.3758
17973TIP3    H175334   6.449   2.350  16.590 -1.8692 -0.1603  1.0822
17973TIP3    H275335   6.475   2.246  16.482  0.8296  1.2148  0.3214
17974TIP3   OH275336   1.440   0.243   2.205  0.4704 -0.2756 -0.2046
17974TIP3    H175337   1.401   0.158   2.188  1.1101 -0.8703  1.1443
17974TIP3    H275338   1.444   0.249   2.300  0.5549  1.2133 -0.2789
17975TIP3   OH275339   3.686   5.244  15.498  0.4824  0.1806  0.3821
17975TIP3    H175340   3.620   5.284  15.555 -0.5967  0.4412 -0.9989
17975TIP3    H275341   3.724   5.317  15.450  0.5049 -0.1550 -0.1167
17976TIP3   OH275342   3.301   6.122   2.277 -0.0319  0.2209  0.5049
17976TIP3    H175343   3.251   6.158   2.350 -2.4520 -0.3983 -0.7119
17976TIP3    H275344   3.291   6.186   2.207  0.9156  0.0795  0.2328
17977TIP3   OH275345   3.229   2.782   0.811 -0.3159  0.3338  0.2932
17977TIP3    H175346   3.299   2.843   0.835 -1.8116  2.2710 -0.0319
17977TIP3    H275347   3.178   2.771   0.891 -0.6766  0.3884  0.0746
17978TIP3   OH275348   6.369   1.191   0.101 -0.0059  0.4925  0.3037
17978TIP3    H175349   6.341   1.119   0.156  0.8754 -0.2599 -0.2092
17978TIP3    H275350   6.365   1.157   0.011  1.0287  0.8464  0.0965
17979TIP3   OH275351   3.862   2.638   5.324  0.0010 -0.1177  0.5841
17979TIP3    H175352   3.793   2.695   5.358  1.0780  2.0868 -0.6779
17979TIP3    H275353   3.934   2.648   5.385  0.1302 -0.2737  0.4579
17980TIP3   OH275354   1.123   3.447   4.884  0.4172  0.1524 -0.0854
17980TIP3    H175355   1.041   3.487   4.912  0.8529  0.4179  0.8523
17980TIP3    H275356   1.126   3.462   4.790 -0.7400 -0.1186 -0.1831
17981TIP3   OH275357   2.846   3.592   4.025  0.3524  0.3164  0.0458
17981TIP3    H175358   2.812   3.590   3.936  0.4973 -1.1121  0.0028
17981TIP3    H275359   2.937   3.564   4.018  0.3735  0.2142  0.6389
17982TIP3   OH275360   0.310   3.982  14.034 -0.0547 -0.8355  0.3805
17982TIP3    H175361   0.251   3.907  14.024  1.2301 -1.8290 -0.1120
17982TIP3    H275362   0.270   4.052  13.983 -0.9583 -1.3863  0.3207
17983TIP3   OH275363   2.431   5.634   3.427  0.0630  0.3128 -0.0808
17983TIP3    H175364   2.381   5.716   3.427 -0.7423 -0.1647 -0.3902
17983TIP3    H275365   2.375   5.573   3.475 -0.0182 -0.4517 -1.1270
17984TIP3   OH275366   3.197   4.496   4.532  0.1751  0.0811  0.6608
17984TIP3    H175367   3.258   4.515   4.460  0.1838 -1.7498  0.1247
17984TIP3    H275368   3.117   4.466   4.489  0.2907 -1.3708  1.3643
17985TIP3   OH275369   0.474   6.650   5.877  0.3342  0.3229 -0.3442
17985TIP3    H175370   0.477   6.672   5.784  2.3393  0.0857 -0.3804
17985TIP3    H275371   0.562   6.669   5.909  0.3226 -1.6633  1.0271
17986TIP3   OH275372   1.992   4.812   2.150 -0.3074 -0.7339  0.6905
17986TIP3    H175373   1.952   4.758   2.082 -1.1865 -0.6661  1.1370
17986TIP3    H275374   2.003   4.752   2.224  0.5603 -0.7860  0.5293
17987TIP3   OH275375   2.888   4.542  14.924  0.3702 -0.0419  0.4335
17987TIP3    H175376   2.875   4.483  14.850  0.4082  0.5540 -0.0602
17987TIP3    H275377   2.956   4.500  14.977 -1.0736 -1.4685  1.2195
17988TIP3   OH275378   4.362   1.900  13.267 -0.6409  0.3031  0.3123
17988TIP3    H175379   4.323   1.829  13.216  0.8786 -1.5008  1.5116
17988TIP3    H275380   4.456   1.893  13.249 -0.2971  0.9230  1.7683
17989TIP3   OH275381   4.818   3.162   4.306 -0.3534 -0.2805 -0.1000
17989TIP3    H175382   4.810   3.202   4.220 -1.1471  0.3074  0.2250
17989TIP3    H275383   4.727   3.153   4.336 -0.3126 -3.0957 -0.4784
17990TIP3   OH275384   5.406   4.187  13.650 -0.1258 -0.3354  0.7415
17990TIP3    H175385   5.338   4.251  13.671  0.6182  0.6702  0.1676
17990TIP3    H275386   5.436   4.155  13.735 -0.0254  0.5924  1.0578
17991TIP3   OH275387   0.169   1.604   2.208  0.3016  0.8893 -0.3843
17991TIP3    H175388   0.193   1.618   2.116  2.0685 -0.8798 -0.2368
17991TIP3    H275389   0.137   1.514   2.211 -0.9375  1.3368  0.5380
17992TIP3   OH275390   5.260   0.696   2.399  0.1809  0.1905  0.4995
17992TIP3    H175391   5.186   0.639   2.377 -0.0762  0.9015 -0.5730
17992TIP3    H275392   5.272   0.750   2.321  1.2899  0.6734  0.9886
17993TIP3   OH275393   5.184   1.474  16.541 -0.0422  0.3790  0.4311
17993TIP3    H175394   5.274   1.497  16.515 -0.2136 -0.2746 -0.8454
17993TIP3    H275395   5.131   1.547  16.507  0.0998  1.4095  2.2881
17994TIP3   OH275396   5.996   3.320   1.133 -0.8891  0.1020 -0.6362
17994TIP3    H175397   5.910   3.359   1.149  0.2448  2.7385 -0.4593
17994TIP3    H275398   6.055   3.395   1.123  1.3792 -1.6097 -0.9170
17995TIP3   OH275399   6.365   5.992  14.078 -0.4500  0.2743 -0.4198
17995TIP3    H175400   6.319   5.907  14.079 -1.2570  0.6962 -0.7533
17995TIP3    H275401   6.370   6.014  13.985  2.3731 -0.7682 -0.6111
17996TIP3   OH275402   0.319   3.174  14.848  0.0903  0.1287  0.2069
17996TIP3    H175403   0.242   3.230  14.850 -0.1768 -0.2197 -0.1457
17996TIP3    H275404   0.289   3.093  14.808  0.7649  0.1839 -0.4432
17997TIP3   OH275405   1.966   3.395  14.722 -1.0369  0.1195 -0.0189
17997TIP3    H175406   1.932   3.311  14.691 -0.5042 -0.8477  1.8861
17997TIP3    H275407   2.003   3.376  14.808  0.6509  1.9590 -0.2603
17998TIP3   OH275408   5.912   3.150   6.132  0.1904 -0.1626 -0.1866
17998TIP3    H175409   5.929   3.231   6.180  0.7079 -0.8682  0.8573
17998TIP3    H275410   5.948   3.167   6.044  2.2552  0.0137  0.6342
17999TIP3   OH275411   5.299   0.418   3.591 -0.1265  0.2045 -0.0191
17999TIP3    H175412   5.366   0.449   3.530 -0.4134 -0.8939 -0.9289
17999TIP3    H275413   5.343   0.347   3.639 -0.7526 -0.8490 -0.9575
18000TIP3   OH275414   2.014   1.042  16.520  0.3457  0.5739  0.4764
18000TIP3    H175415   1.987   0.976  16.584  2.1262 -1.4197 -0.6891
18000TIP3    H275416   1.956   1.028  16.445  1.3035 -0.3731 -0.1249
18001TIP3   OH275417   3.163   4.670   2.414 -0.7476 -0.4869  0.2457
18001TIP3    H175418   3.186   4.763   2.410 -3.0066  0.1209 -0.6305
18001TIP3    H275419   3.237   4.628   2.457  1.2650  1.3887 -1.2044
18002TIP3   OH275420   2.187   4.890   3.242  1.1951  0.0005 -0.6513
18002TIP3    H175421   2.150   4.911   3.328 -0.9428 -1.6413 -1.0800
18002TIP3    H275422   2.117   4.911   3.180  1.8715 -0.9260 -1.7762
18003TIP3   OH275423   0.741   6.350   1.526 -0.3815 -0.2323 -0.2076
18003TIP3    H175424   0.752   6.372   1.433 -1.0063  0.7617 -0.0585
18003TIP3    H275425   0.827   6.368   1.565 -0.2309 -0.2741 -0.5149
18004TIP3   OH275426   2.125   3.332  12.046 -0.0441 -0.3308 -0.6901
18004TIP3    H175427   2.153   3.315  11.957  1.6502  0.9783 -0.4541
18004TIP3    H275428   2.159   3.259  12.097 -1.9406 -1.6497 -1.2275
18005TIP3   OH275429   0.182   2.218   5.075 -0.0061  0.6001  0.4410
18005TIP3    H175430   0.249   2.271   5.031 -0.4023  1.4437  0.8216
18005TIP3    H275431   0.231   2.146   5.114  0.4994  0.4609 -0.4184
18006TIP3   OH275432   0.975   3.273   5.405 -0.4364  0.0940 -0.2702
18006TIP3    H175433   0.929   3.334   5.347 -0.7958  0.6076  0.5351
18006TIP3    H275434   1.068   3.290   5.388 -0.5263 -0.6413 -1.5862
18007TIP3   OH275435   6.426   2.189   3.587  0.2470  0.6105  0.1390
18007TIP3    H175436   6.422   2.147   3.673  0.2330 -0.2419 -0.2677
18007TIP3    H275437   6.392   2.277   3.602  0.5729  0.5923  1.0778
18008TIP3   OH275438   2.653   3.646  14.301 -0.3253 -0.3381  0.0146
18008TIP3    H175439   2.731   3.648  14.356 -0.4699 -2.2758  0.3575
18008TIP3    H275440   2.647   3.555  14.271 -1.1160  0.3123 -1.9574
18009TIP3   OH275441   1.138   1.932   2.680  0.5460  0.8980 -0.1726
18009TIP3    H175442   1.127   1.847   2.723  0.6082  0.0979 -1.6881
18009TIP3    H275443   1.233   1.941   2.670  0.5782  1.4592  0.5602
18010TIP3   OH275444   3.755   4.062   0.479  0.0566 -0.3373 -0.3199
18010TIP3    H175445   3.686   4.046   0.544 -0.3449 -2.3452 -1.1767
18010TIP3    H275446   3.836   4.043   0.526 -0.1066 -0.1543  0.0472
18011TIP3   OH275447   3.199   0.570   3.108  0.6291 -0.3682 -0.2657
18011TIP3    H175448   3.269   0.622   3.069  0.8908 -1.5611 -1.4824
18011TIP3    H275449   3.244   0.507   3.164  0.4560 -0.3919 -0.1524
18012TIP3   OH275450   3.702   5.486   4.444 -0.0141 -0.1777  0.0022
18012TIP3    H175451   3.613   5.469   4.476 -0.3595  2.7793  0.9530
18012TIP3    H275452   3.703   5.451   4.355 -2.0016 -0.5905  0.0986
18013TIP3   OH275453   6.132   3.687   3.516 -0.1888  0.2055 -0.2439
18013TIP3    H175454   6.050   3.737   3.512  0.0390  0.6378  0.4245
18013TIP3    H275455   6.144   3.655   3.426 -0.9937  0.2914 -0.3913
18014TIP3   OH275456   0.309   5.829  13.455 -0.1200  0.2845 -0.3878
18014TIP3    H175457   0.337   5.760  13.394  1.2825  0.9295 -0.5044
18014TIP3    H275458   0.389   5.853  13.502 -0.9585  0.5831  0.9240
18015TIP3   OH275459   1.298   0.680  12.696 -0.5798  0.3607 -0.7168
18015TIP3    H175460   1.231   0.651  12.759 -0.3879 -1.0900 -1.1327
18015TIP3    H275461   1.275   0.634  12.615  1.0332 -0.3563 -0.8084
18016TIP3   OH275462   5.825   3.818   5.151 -0.0932  0.2038  0.2651
18016TIP3    H175463   5.807   3.756   5.221 -0.4908 -3.1577 -2.5216
18016TIP3    H275464   5.742   3.862   5.135 -0.9827 -1.6300 -0.3694
18017TIP3   OH275465   6.126   4.695   4.692  0.5513 -0.1474  0.3955
18017TIP3    H175466   6.126   4.599   4.683 -0.0251 -0.0556 -0.7284
18017TIP3    H275467   6.180   4.711   4.769 -0.4546 -1.4498  1.4282
18018TIP3   OH275468   3.528   5.832   3.620 -0.5433 -0.1579 -0.0890
18018TIP3    H175469   3.530   5.740   3.593 -1.2639  0.3357 -1.9189
18018TIP3    H275470   3.567   5.831   3.708  1.8073 -1.8684 -1.0303
18019TIP3   OH275471   3.951   0.036   6.334  0.1510  0.2118 -0.4181
18019TIP3    H175472   3.855   0.042   6.334  0.1629  0.4971  0.2284
18019TIP3    H275473   3.969  -0.052   6.366  0.0979 -0.1470 -1.3533
18020TIP3   OH275474   2.584   1.767  13.671 -0.1341  0.2394  0.4895
18020TIP3    H175475   2.499   1.809  13.676  0.7407  2.3255 -0.8389
18020TIP3    H275476   2.637   1.811  13.738  0.5698  0.7235 -0.3658
18021TIP3   OH275477   4.493   2.935  12.487 -0.5323 -0.2379 -0.3356
18021TIP3    H175478   4.461   2.845  12.478  0.9920 -0.7554 -0.7913
18021TIP3    H275479   4.513   2.961  12.397 -0.3545  0.3276 -0.1316
18022TIP3   OH275480   6.369   5.713  12.998 -0.1685  0.0119 -0.5242
18022TIP3    H175481   6.302   5.749  13.056  1.1443  0.9985  0.4424
18022TIP3    H275482   6.431   5.785  12.986  1.4914 -1.2960 -0.1539
18023TIP3   OH275483   3.364   6.081   4.130 -0.6719  0.1191  0.3074
18023TIP3    H175484   3.320   6.010   4.178  1.4062 -1.2168  0.3591
18023TIP3    H275485   3.300   6.108   4.064 -1.5924 -1.7408  0.3620
18024TIP3   OH275486   2.100   3.191  12.345  0.0305 -0.1386  0.2479
18024TIP3    H175487   2.021   3.176  12.294 -0.0992  0.6770  0.1867
18024TIP3    H275488   2.070   3.195  12.436 -0.0630  0.5462  0.1918
18025TIP3   OH275489   1.399   3.170   0.091  0.1289  0.1705  0.0464
18025TIP3    H175490   1.407   3.128   0.176 -0.7053 -0.7032 -0.2899
18025TIP3    H275491   1.318   3.221   0.095 -0.8096 -1.1942 -0.7404
18026TIP3   OH275492   2.642   2.235  17.210  0.1489 -0.0196 -0.0194
18026TIP3    H175493   2.608   2.321  17.183  0.2211  0.2763  0.8001
18026TIP3    H275494   2.655   2.188  17.128  1.6071  1.3086 -0.5918
18027TIP3   OH275495   0.905   0.271   5.185 -0.2308 -0.2965  0.2152
18027TIP3    H175496   0.865   0.333   5.246 -1.7462  0.5684 -1.5326
18027TIP3    H275497   0.999   0.278   5.202 -0.5428  0.5816  1.7940
18028TIP3   OH275498   1.114   6.459   2.810 -0.2532  0.0862 -0.3671
18028TIP3    H175499   1.020   6.476   2.815 -0.2439 -0.0863  0.6431
18028TIP3    H275500   1.125   6.375   2.854  0.3693  0.0764 -0.5353
18029TIP3   OH275501   2.145   3.627   1.047 -0.3953 -0.0362 -0.5238
18029TIP3    H175502   2.071   3.655   1.102  0.6501  0.6785  0.5624
18029TIP3    H275503   2.175   3.708   1.006 -0.1391 -0.3051 -0.8654
18030TIP3   OH275504   1.050   4.145   0.642 -0.3862 -0.3509 -0.2379
18030TIP3    H175505   1.094   4.220   0.601  0.8446 -1.4401 -1.0249
18030TIP3    H275506   1.063   4.073   0.580  0.6260 -1.8215  1.5641
18031TIP3   OH275507   5.212   5.191   3.573 -0.1395 -0.3579 -0.1991
18031TIP3    H175508   5.167   5.190   3.488 -1.2724  2.4656  0.2485
18031TIP3    H275509   5.294   5.237   3.557  0.2057 -0.8922  0.0125
18032TIP3   OH275510   0.115   5.631   6.639  0.0842 -0.1036 -0.3360
18032TIP3    H175511   0.108   5.704   6.578  2.2349 -0.8550 -1.6222
18032TIP3    H275512   0.095   5.554   6.586 -0.1380 -0.6012  0.4593
18033TIP3   OH275513   2.244   5.335  17.235 -0.1381  0.2449 -0.1722
18033TIP3    H175514   2.248   5.299  17.323 -2.1897  0.9095  0.2411
18033TIP3    H275515   2.171   5.289  17.193 -0.0319  0.8706 -1.0869
18034TIP3   OH275516   5.665   5.693  15.498 -0.2886  0.8249  1.0844
18034TIP3    H175517   5.641   5.621  15.439 -0.2113  0.6617  1.2482
18034TIP3    H275518   5.707   5.649  15.572  2.1240  1.1803  0.0371
18035TIP3   OH275519   5.465   1.092   4.249 -0.9946  0.4250  0.2940
18035TIP3    H175520   5.450   1.004   4.284  0.0841  0.6353  1.3310
18035TIP3    H275521   5.404   1.148   4.299  0.8360  0.7927  2.2696
18036TIP3   OH275522   5.119   5.912  16.630  0.0364 -0.0162 -0.1190
18036TIP3    H175523   5.176   5.852  16.679 -1.6319 -1.1088  0.5710
18036TIP3    H275524   5.096   5.864  16.551 -0.4303  0.1499 -0.0881
18037TIP3   OH275525   1.405   5.827   5.566 -0.2593  0.5605  0.5762
18037TIP3    H175526   1.489   5.792   5.594 -0.8869 -2.2721 -0.6810
18037TIP3    H275527   1.419   5.853   5.474 -0.9632 -1.0629 -0.0361
18038TIP3   OH275528   0.707   1.991  15.075  0.0413 -0.2518 -0.5171
18038TIP3    H175529   0.790   1.977  15.029  0.6430  1.0109  0.1298
18038TIP3    H275530   0.661   2.057  15.023  0.1952  0.2861  0.0119
18039TIP3   OH275531   5.053   6.454   2.208 -0.7999 -0.0111  0.0440
18039TIP3    H175532   5.045   6.483   2.299 -1.8222 -1.0166  0.3058
18039TIP3    H275533   5.143   6.421   2.201 -0.5704  0.4936  0.5610
18040TIP3   OH275534   2.530   3.271   3.408  0.6319 -0.4344 -0.0665
18040TIP3    H175535   2.600   3.232   3.356 -0.3211 -1.3590 -0.6955
18040TIP3    H275536   2.471   3.198   3.426 -0.9836  0.6198 -0.9099
18041TIP3   OH275537   6.019   5.074  11.621  0.5835 -0.2173 -0.2350
18041TIP3    H175538   6.010   4.993  11.672 -0.1972  0.6109  0.9928
18041TIP3    H275539   5.967   5.058  11.542  0.1168 -0.7779  0.1740
18042TIP3   OH275540   0.521   4.039   5.997  0.7759  0.0874 -0.2473
18042TIP3    H175541   0.537   3.986   6.074 -0.2833 -0.4756 -0.3892
18042TIP3    H275542   0.425   4.044   5.991  0.8506  0.6634 -1.1487
18043TIP3   OH275543   5.043   0.748  15.196  0.8096  0.6665 -0.0265
18043TIP3    H175544   5.006   0.790  15.274 -1.3687  1.0315 -1.1974
18043TIP3    H275545   5.063   0.821  15.137  0.0084  0.2601 -0.8110
18044TIP3   OH275546   4.993   1.120  16.286 -0.3768 -0.0344  0.1854
18044TIP3    H175547   5.074   1.170  16.282 -0.1513 -0.3784  0.4709
18044TIP3    H275548   4.924   1.186  16.279 -0.0783  0.1855 -1.0413
18045TIP3   OH275549   0.978   0.114  16.800  0.7050 -0.1197  0.2281
18045TIP3    H175550   0.901   0.098  16.854 -0.2093  0.0299 -0.9784
18045TIP3    H275551   0.972   0.206  16.776  1.2546 -0.1104  0.1277
18046TIP3   OH275552   1.592   3.391   0.654  0.3295  0.5111  0.3711
18046TIP3    H175553   1.614   3.340   0.732  0.2972 -1.0573 -0.6069
18046TIP3    H275554   1.598   3.329   0.582 -1.7994  1.3596 -0.6383
18047TIP3   OH275555   2.201   6.411   1.308 -0.0681  0.4186 -1.2463
18047TIP3    H175556   2.271   6.347   1.322  0.6662  1.2210 -1.1790
18047TIP3    H275557   2.162   6.385   1.225  0.1510 -0.1810 -1.1700
18048TIP3   OH275558   4.141   0.869   0.546 -0.5103 -0.2294 -0.1101
18048TIP3    H175559   4.047   0.862   0.530 -0.6866  0.7585  0.3928
18048TIP3    H275560   4.182   0.828   0.470 -1.3513 -0.1402 -0.6219
18049TIP3   OH275561   5.172   1.276  13.861 -0.1395  0.5979  0.2080
18049TIP3    H175562   5.241   1.321  13.910 -0.6730  1.7074 -0.0220
18049TIP3    H275563   5.186   1.301  13.770 -1.7576  2.1665  0.3289
18050TIP3   OH275564   2.169   2.178  12.453 -0.3131 -0.2956 -0.1255
18050TIP3    H175565   2.114   2.196  12.377 -1.9300 -0.4465  0.9550
18050TIP3    H275566   2.152   2.252  12.512  0.0962 -0.7151  0.5276
18051TIP3   OH275567   0.826   1.408   5.390 -0.2933  0.4300 -0.3450
18051TIP3    H175568   0.751   1.463   5.367  0.5661  1.4901 -0.6927
18051TIP3    H275569   0.836   1.419   5.484 -0.8864 -0.1405 -0.2047
18052TIP3   OH275570   0.535   6.310   2.008  0.1628 -0.5974  0.0060
18052TIP3    H175571   0.608   6.306   2.070  1.1884  1.7652 -0.9594
18052TIP3    H275572   0.552   6.238   1.947  1.3591 -0.4673  0.1599
18053TIP3   OH275573   6.391   6.487  12.644 -0.2346 -0.0158  0.2108
18053TIP3    H175574   6.339   6.415  12.609 -0.6144 -0.1408  0.9955
18053TIP3    H275575   6.358   6.565  12.601 -1.7301  0.0236  1.3652
18054TIP3   OH275576   4.763   2.424  13.165 -0.0711 -0.0884  0.0203
18054TIP3    H175577   4.766   2.510  13.206 -1.3781  0.5727 -1.1768
18054TIP3    H275578   4.674   2.418  13.129 -0.6491 -2.6896  1.6105
18055TIP3   OH275579   2.560   4.762  16.050 -0.4502 -0.2495 -0.1368
18055TIP3    H175580   2.644   4.804  16.071 -0.6184 -0.6895  1.4843
18055TIP3    H275581   2.515   4.755  16.133 -1.7042 -0.9274 -0.8457
18056TIP3   OH275582   1.375   2.988  12.223  0.3486  0.5156 -0.5654
18056TIP3    H175583   1.284   2.969  12.201  0.6615  0.2346 -1.6504
18056TIP3    H275584   1.409   2.906  12.259 -0.0238  0.8342  0.5517
18057TIP3   OH275585   2.927   5.239   3.563  0.4188  0.0932 -0.0605
18057TIP3    H175586   2.945   5.325   3.524 -0.5467  0.1418 -0.4347
18057TIP3    H275587   2.932   5.178   3.490 -1.5892  0.2088 -0.3645
18058TIP3   OH275588   4.732   4.076   3.399 -1.0986 -0.6367  0.1232
18058TIP3    H175589   4.700   4.156   3.358 -1.8829 -0.8519  0.3108
18058TIP3    H275590   4.729   4.010   3.330  1.4543 -0.0840 -0.6296
18059TIP3   OH275591   5.125   4.608  14.851  0.2173 -0.2982 -0.0213
18059TIP3    H175592   5.207   4.594  14.803 -0.5042 -0.9215 -1.1228
18059TIP3    H275593   5.127   4.701  14.875  1.8389 -0.5860  1.1637
18060TIP3   OH275594   5.787   4.200  15.987 -0.3216 -0.2018  0.5134
18060TIP3    H175595   5.731   4.181  16.062 -0.5532 -1.8418 -0.0520
18060TIP3    H275596   5.862   4.246  16.026 -0.7882 -0.3381  1.6358
18061TIP3   OH275597   5.762   4.015  14.845 -0.2369 -0.5519 -0.0886
18061TIP3    H175598   5.725   3.999  14.758 -0.1433  1.1956 -0.4809
18061TIP3    H275599   5.853   4.039  14.829 -0.6065  1.2576  0.3276
18062TIP3   OH275600   2.233   6.633   5.080  0.1561 -0.1227 -0.2467
18062TIP3    H175601   2.227   6.554   5.027  0.1483 -1.2149  1.3011
18062TIP3    H275602   2.321   6.630   5.118 -0.4437 -0.3335  1.1918
18063TIP3   OH275603   6.044   6.156  15.356  0.4423  0.0755 -0.6888
18063TIP3    H175604   6.098   6.234  15.370 -0.2575  0.4948 -0.2229
18063TIP3    H275605   6.039   6.147  15.261 -0.7331  1.5338 -0.8064
18064TIP3   OH275606   0.657   0.527   4.202  0.2371 -0.7799 -0.3542
18064TIP3    H175607   0.700   0.610   4.184  0.3312 -1.1429 -1.9456
18064TIP3    H275608   0.573   0.551   4.242 -0.1182  0.1240 -1.6056
18065TIP3   OH275609   3.531   3.411  14.413  0.3130 -0.1668 -0.5529
18065TIP3    H175610   3.516   3.467  14.337 -1.6739 -1.5787 -1.2748
18065TIP3    H275611   3.587   3.340  14.380 -0.6252 -0.8294 -0.7350
18066TIP3   OH275612   2.642   0.332  16.779  0.4617 -0.4266 -0.2739
18066TIP3    H175613   2.597   0.255  16.815  0.7147 -0.4204  0.0541
18066TIP3    H275614   2.694   0.365  16.851  0.4475 -0.0138 -0.4514
18067TIP3   OH275615   4.554   0.034   1.202 -0.3605 -0.4217  0.8040
18067TIP3    H175616   4.515   0.096   1.141  0.6868  0.2381  0.7862
18067TIP3    H275617   4.553   0.079   1.287  0.0171 -0.5478  0.8780
18068TIP3   OH275618   4.198   2.376  17.244  0.1148 -0.0147 -0.2010
18068TIP3    H175619   4.149   2.333  17.315  1.8115 -2.0376 -0.1654
18068TIP3    H275620   4.175   2.326  17.166 -0.4607  1.1839 -0.8317
18069TIP3   OH275621   0.402   3.431  15.432  0.3931 -0.4857 -0.2875
18069TIP3    H175622   0.434   3.480  15.356 -1.4909  1.8759  0.3103
18069TIP3    H275623   0.319   3.394  15.402 -0.7111  1.0426  0.7355
18070TIP3   OH275624   0.638   5.168  12.995  0.6800 -0.3590  0.0143
18070TIP3    H175625   0.712   5.119  12.958  1.5112  0.9020 -0.0605
18070TIP3    H275626   0.676   5.215  13.070 -0.4238 -0.9302  0.9671
18071TIP3   OH275627   0.036   5.639   2.091 -0.2152  0.0054 -0.4639
18071TIP3    H175628  -0.009   5.722   2.107  3.2036  1.9284 -0.0027
18071TIP3    H275629   0.125   5.664   2.066  0.0451 -3.4560 -3.8742
18072TIP3   OH275630   5.238   6.692  16.356 -0.3622  0.0663  0.0257
18072TIP3    H175631   5.221   6.597  16.354 -1.5274  0.2701 -1.8539
18072TIP3    H275632   5.155   6.732  16.332 -0.1247  1.6548  1.6171
18073TIP3   OH275633   1.394   4.540  11.793  0.0126  0.3715 -0.1422
18073TIP3    H175634   1.460   4.608  11.786  1.1367 -0.4951  1.5284
18073TIP3    H275635   1.353   4.538  11.706  3.8223 -0.7247 -2.1358
18074TIP3   OH275636   3.587   1.185  16.163 -0.2130 -0.2030  0.5829
18074TIP3    H175637   3.523   1.233  16.214 -0.1511 -0.4290  0.8750
18074TIP3    H275638   3.655   1.161  16.226 -0.3136 -0.7948  0.4717
18075TIP3   OH275639   1.620   4.230  12.375  0.5038 -0.0611 -0.2476
18075TIP3    H175640   1.539   4.275  12.400  0.4825  0.0248 -0.4640
18075TIP3    H275641   1.622   4.237  12.280  2.1499  2.3634 -0.1058
18076TIP3   OH275642   4.127   4.077   1.729  0.9797  0.6870  0.3692
18076TIP3    H175643   4.033   4.061   1.733  1.1029  0.1146  2.3300
18076TIP3    H275644   4.160   4.013   1.666  0.1463  0.4389  0.1708
18077TIP3   OH275645   5.399   0.029   0.577  0.2088  0.0047  0.3132
18077TIP3    H175646   5.322   0.055   0.526  0.7100 -0.4197 -0.6813
18077TIP3    H275647   5.473   0.064   0.528  0.6708  0.0562  1.0449
18078TIP3   OH275648   0.917   3.307  16.692  0.3224 -0.1928 -0.3671
18078TIP3    H175649   1.008   3.296  16.665  0.3475  1.9091 -1.3039
18078TIP3    H275650   0.911   3.259  16.775  2.3030 -0.3164 -0.2450
18079TIP3   OH275651   3.892   3.313   2.159 -0.6798  0.1942  0.3519
18079TIP3    H175652   3.964   3.351   2.209  0.4257 -1.2136 -0.0976
18079TIP3    H275653   3.909   3.339   2.068 -0.2362 -0.8467  0.1223
18080TIP3   OH275654   0.296   4.232  14.474  0.6582 -0.0733 -0.2239
18080TIP3    H175655   0.361   4.170  14.440 -0.2343 -0.4373 -1.3120
18080TIP3    H275656   0.254   4.267  14.396 -0.3130  0.3160  0.4655
18081TIP3   OH275657   3.656   1.840   5.733 -0.1511  0.0779  0.2694
18081TIP3    H175658   3.585   1.902   5.750 -1.1178 -1.1256  0.7961
18081TIP3    H275659   3.717   1.854   5.805  0.0291  0.9488 -0.0454
18082TIP3   OH275660   1.442   1.680  15.874  0.2467 -0.4900 -0.6729
18082TIP3    H175661   1.475   1.769  15.861  1.4317 -0.9147 -0.6719
18082TIP3    H275662   1.348   1.687  15.859  0.2967  0.7988 -0.4959
18083TIP3   OH275663   3.100   0.222   1.174  0.8043  0.7980 -0.2205
18083TIP3    H175664   3.171   0.159   1.167  0.0617  0.0965 -1.7854
18083TIP3    H275665   3.021   0.168   1.183  0.2942  1.5301 -0.2309
18084TIP3   OH275666   3.447   3.101  13.352  0.2534  0.0086  0.6849
18084TIP3    H175667   3.422   3.191  13.375  0.1847  0.0444  0.4763
18084TIP3    H275668   3.401   3.084  13.270  2.3838  0.7619 -0.7506
18085TIP3   OH275669   2.442   3.227  14.477  0.1216  0.3124  0.2294
18085TIP3    H175670   2.394   3.224  14.394 -0.2588  1.9030  0.3537
18085TIP3    H275671   2.374   3.246  14.542  0.6130  0.4173  0.7132
18086TIP3   OH275672   1.556   5.502  14.593 -0.3071  0.5913  0.2939
18086TIP3    H175673   1.625   5.494  14.660  1.1474  0.3140 -1.1811
18086TIP3    H275674   1.475   5.491  14.642  0.7511 -1.2890  1.7940
18087TIP3   OH275675   0.412   2.377  16.028  0.4335 -0.7456 -0.0195
18087TIP3    H175676   0.458   2.294  16.015  0.7063 -0.2607 -2.7402
18087TIP3    H275677   0.459   2.419  16.100  0.8217 -2.5416  0.8443
18088TIP3   OH275678   2.593   1.611  16.844  0.3737 -0.8643 -0.0084
18088TIP3    H175679   2.652   1.618  16.919  0.1863  0.2372  0.0445
18088TIP3    H275680   2.513   1.656  16.872  0.6037  0.3248 -1.1574
18089TIP3   OH275681   5.434   3.038  16.086  0.0666 -0.0699  0.0822
18089TIP3    H175682   5.484   3.116  16.062  0.9611 -0.9873 -1.2383
18089TIP3    H275683   5.497   2.966  16.073 -1.2751 -1.1646 -0.5741
18090TIP3   OH275684   3.508   4.240   0.691 -0.1168 -0.2668 -0.3075
18090TIP3    H175685   3.572   4.180   0.729  0.1289 -1.0566 -1.8562
18090TIP3    H275686   3.424   4.214   0.729  0.3392  0.2015  1.0677
18091TIP3   OH275687   6.362   1.774   5.237  0.1207 -0.8667  0.1737
18091TIP3    H175688   6.441   1.805   5.192 -0.3250 -1.6766 -1.2609
18091TIP3    H275689   6.350   1.684   5.204  0.0132 -1.6826  2.3095
18092TIP3   OH275690   2.838   0.700  12.626  0.1382 -1.0383 -0.2608
18092TIP3    H175691   2.749   0.665  12.621  0.3202 -1.7449  1.0822
18092TIP3    H275692   2.888   0.632  12.671  1.1124 -0.1802 -0.0049
18093TIP3   OH275693   6.588   2.260   5.610 -0.0768  0.9122  0.2838
18093TIP3    H175694   6.675   2.298   5.599  0.6183 -0.7665 -0.3198
18093TIP3    H275695   6.572   2.213   5.528 -0.8968 -0.0760  0.9895
18094TIP3   OH275696   2.977   4.394   3.323 -0.2052 -1.0625 -0.5163
18094TIP3    H175697   2.895   4.434   3.294  0.1888 -0.4498 -0.7949
18094TIP3    H275698   2.951   4.336   3.395 -0.7873 -0.3406 -0.1370
18095TIP3   OH275699   4.520   2.399   4.676 -0.2046  0.0205 -0.7339
18095TIP3    H175700   4.465   2.473   4.651 -1.4861  0.3382  2.4654
18095TIP3    H275701   4.606   2.438   4.695 -0.0454  0.1930 -1.7587
18096TIP3   OH275702   2.792   5.978  14.113  0.5667  0.8511 -0.0444
18096TIP3    H175703   2.728   6.039  14.077 -0.1534 -0.7395 -1.6041
18096TIP3    H275704   2.868   5.985  14.054  0.1695 -0.2932 -0.7264
18097TIP3   OH275705   5.985   0.888   0.257 -0.4958 -0.5770  0.3758
18097TIP3    H175706   5.890   0.904   0.258 -0.8193 -2.3034  0.2532
18097TIP3    H275707   6.019   0.951   0.193 -1.5822 -0.0898  0.2483
18098TIP3   OH275708   5.577   4.650  15.049 -0.0817  0.5655  0.2802
18098TIP3    H175709   5.604   4.740  15.028 -0.6641  1.0368  1.4336
18098TIP3    H275710   5.617   4.633  15.134 -1.6769  0.5148  1.0488
18099TIP3   OH275711   0.204   6.727   3.751 -0.7364  0.3326  0.2492
18099TIP3    H175712   0.136   6.795   3.753 -2.3691 -1.2327  0.8602
18099TIP3    H275713   0.188   6.679   3.670  1.7903  1.8899 -1.3324
18100TIP3   OH275714   6.267   5.691   4.369  0.0387  0.2999 -0.0189
18100TIP3    H175715   6.349   5.713   4.414 -0.0880 -1.5952  1.2825
18100TIP3    H275716   6.198   5.726   4.426 -0.0829 -0.1064  0.0889
18101TIP3   OH275717   0.805   3.030   4.305 -0.0937  0.5462 -0.5468
18101TIP3    H175718   0.776   3.065   4.221 -0.2972 -0.5299 -0.9409
18101TIP3    H275719   0.900   3.037   4.303 -0.1010  0.5342 -0.8495
18102TIP3   OH275720   3.785   6.426  15.027  0.2671 -0.4176 -0.2223
18102TIP3    H175721   3.825   6.386  15.104 -0.4326  0.5007  0.6232
18102TIP3    H275722   3.745   6.352  14.980 -0.4317 -0.8065  0.9643
18103TIP3   OH275723   0.452   6.588   5.202 -0.1001 -0.2215 -0.4839
18103TIP3    H175724   0.477   6.513   5.256  1.6363  0.9294  0.4205
18103TIP3    H275725   0.420   6.652   5.265 -0.8159  0.0941 -1.1610
18104TIP3   OH275726   3.445   4.552  15.499  0.3478 -0.2733 -0.0339
18104TIP3    H175727   3.471   4.494  15.428  1.3606 -0.5703  0.5659
18104TIP3    H275728   3.434   4.638  15.458  1.9602 -0.2057 -0.3756
18105TIP3   OH275729   1.544   3.795   3.312  0.8480  0.2330 -0.7215
18105TIP3    H175730   1.630   3.826   3.342  0.2888  1.7372 -0.6036
18105TIP3    H275731   1.526   3.847   3.234 -0.2034  0.3044 -0.4383
18106TIP3   OH275732   5.487   6.060  17.248 -0.0300  0.3809 -0.4342
18106TIP3    H175733   5.518   5.974  17.277 -4.6525 -1.6953 -0.7529
18106TIP3    H275734   5.515   6.066  17.157 -0.4464 -1.2729 -0.7011
18107TIP3   OH275735   6.372   3.727  12.553 -0.1622  0.6267  0.0358
18107TIP3    H175736   6.284   3.762  12.567 -0.0796  0.6742  0.4444
18107TIP3    H275737   6.408   3.718  12.641 -0.7666 -1.9756  0.1003
18108TIP3   OH275738   4.888   3.868  14.778  0.2251  0.2893  0.3453
18108TIP3    H175739   4.971   3.880  14.825  0.7726  0.8680 -0.7386
18108TIP3    H275740   4.905   3.796  14.717  0.0346  0.6437 -0.1275
18109TIP3   OH275741   4.420   4.195  11.757  0.1860 -0.1061 -0.0887
18109TIP3    H175742   4.376   4.190  11.841  0.6123 -1.1141  0.0911
18109TIP3    H275743   4.507   4.230  11.778  1.2307 -2.7401  0.3106
18110TIP3   OH275744   5.547   1.737  11.713 -0.0122 -0.1656 -0.1888
18110TIP3    H175745   5.630   1.784  11.718  0.2983 -0.8421  1.5231
18110TIP3    H275746   5.571   1.647  11.692 -0.4282 -0.1264 -0.8982
18111TIP3   OH275747   4.030   6.020   5.000 -0.6945 -0.1584  0.5658
18111TIP3    H175748   4.092   6.064   5.057 -0.5009 -1.2994  1.2594
18111TIP3    H275749   4.019   6.079   4.925  0.2278  0.6365  1.0552
18112TIP3   OH275750   4.932   0.357  12.110  0.0248  0.2205 -0.5667
18112TIP3    H175751   4.959   0.378  12.199 -0.5078 -0.4998 -0.2322
18112TIP3    H275752   4.915   0.442  12.069  0.8964  0.5915 -0.1951
18113TIP3   OH275753   3.681   3.044   3.349  0.1545 -0.2116 -0.2778
18113TIP3    H175754   3.744   2.977   3.374 -1.7106 -1.4949  1.2895
18113TIP3    H275755   3.686   3.108   3.420 -0.8878 -0.7767  0.3291
18114TIP3   OH275756   3.842   4.848   4.216  0.2125 -0.1369  0.0590
18114TIP3    H175757   3.861   4.765   4.172  3.5670  0.1777  0.6834
18114TIP3    H275758   3.829   4.911   4.145 -1.3904 -0.9188 -0.4041
18115TIP3   OH275759   6.735   2.194   4.830 -0.4773 -0.5058 -0.2270
18115TIP3    H175760   6.779   2.170   4.911 -0.7558  1.4294  0.5487
18115TIP3    H275761   6.803   2.190   4.763 -0.2912 -2.3055  0.0293
18116TIP3   OH275762   3.853   6.617  17.357  0.0709  0.4161 -0.7494
18116TIP3    H175763   3.943   6.591  17.337  0.6677  0.9725  1.0331
18116TIP3    H275764   3.861   6.683  17.425 -1.6817  0.9145 -0.9585
18117TIP3   OH275765   0.609   4.096  14.336 -0.1834 -0.0613 -0.4790
18117TIP3    H175766   0.549   4.052  14.397 -0.5443  2.0209  0.7996
18117TIP3    H275767   0.694   4.094  14.380  0.0945 -0.6256 -1.0295
18118TIP3   OH275768   2.773   6.198  15.153  0.1550  0.3850  0.0561
18118TIP3    H175769   2.817   6.254  15.218  0.2221  0.6519 -0.2160
18118TIP3    H275770   2.688   6.239  15.140 -0.1122 -0.0368  0.4552
18119TIP3   OH275771   3.396   3.909   5.633 -0.2024  0.4674  0.2296
18119TIP3    H175772   3.350   3.845   5.688  0.1376 -0.5362 -0.6315
18119TIP3    H275773   3.431   3.972   5.696 -0.5979 -0.1429  1.0971
18120TIP3   OH275774   4.982   0.672  14.082 -0.5668  0.1571  0.0926
18120TIP3    H175775   4.926   0.629  14.018  2.0121 -0.0440 -2.2063
18120TIP3    H275776   4.994   0.607  14.151 -1.2134 -0.6867 -0.5635
18121TIP3   OH275777   1.990   2.321  13.041 -0.1412  0.1873  0.3493
18121TIP3    H175778   2.056   2.383  13.071  0.4800 -0.6154  0.6661
18121TIP3    H275779   2.015   2.237  13.080  0.0537 -0.6508 -1.4604
18122TIP3   OH275780   1.291   5.456  12.314 -0.6703  0.2265 -0.7719
18122TIP3    H175781   1.220   5.498  12.266 -1.3607  0.4077  0.3708
18122TIP3    H275782   1.271   5.474  12.406 -0.3397 -1.5984 -0.3193
18123TIP3   OH275783   2.823   2.372  16.735 -0.0837  0.0072 -0.6093
18123TIP3    H175784   2.750   2.320  16.702 -0.1030  0.3059 -1.0472
18123TIP3    H275785   2.802   2.387  16.827  0.6794 -2.0735 -0.0525
18124TIP3   OH275786   0.981   3.689  16.765  0.3892  0.0754  0.5169
18124TIP3    H175787   0.953   3.669  16.675  0.3361  0.9558  0.3225
18124TIP3    H275788   1.066   3.645  16.774  0.3646 -0.0775  0.0587
18125TIP3   OH275789   0.802   1.864  13.567 -0.5985  0.1588  0.0816
18125TIP3    H175790   0.836   1.853  13.656 -1.3849  0.5100  0.4242
18125TIP3    H275791   0.851   1.799  13.516 -1.4585 -1.3537  1.1118
18126TIP3   OH275792   2.030   4.494   1.472 -0.0009  0.0238 -0.7391
18126TIP3    H175793   2.051   4.514   1.563  0.2659 -1.0834 -0.5455
18126TIP3    H275794   1.989   4.574   1.439 -0.5166  0.2823  0.4775
18127TIP3   OH275795   5.038   5.437  11.718  0.3495  0.0373 -0.0326
18127TIP3    H175796   4.990   5.520  11.721  2.9059  1.7425 -2.0929
18127TIP3    H275797   4.971   5.371  11.701 -1.5858  1.8506  0.1679
18128TIP3   OH275798   4.006   0.726   1.876 -0.1011 -0.1360  0.2025
18128TIP3    H175799   4.010   0.663   1.948 -0.4342 -0.0109  0.3313
18128TIP3    H275800   4.026   0.674   1.798  0.0775 -0.3087  0.3606
18129TIP3   OH275801   2.195   1.791   5.874 -0.4666 -0.5768  0.0816
18129TIP3    H175802   2.204   1.880   5.908  1.9155 -0.1181 -1.4531
18129TIP3    H275803   2.138   1.801   5.798  0.3204 -0.1916 -0.4796
18130TIP3   OH275804   1.918   1.328   5.862 -0.1323  0.1821 -0.3072
18130TIP3    H175805   1.993   1.378   5.895  1.3629 -0.0750 -3.0780
18130TIP3    H275806   1.950   1.284   5.784 -2.6539 -1.5811 -0.4829
18131TIP3   OH275807   4.726   1.650  13.384 -0.0204  0.0019  0.0487
18131TIP3    H175808   4.657   1.673  13.446  0.4684  1.4918  0.0774
18131TIP3    H275809   4.807   1.679  13.426  0.3834  0.4020 -0.9755
18132TIP3   OH275810   1.631   0.130   6.053 -0.0098  0.1802 -0.1964
18132TIP3    H175811   1.707   0.177   6.019 -0.2073  0.2176 -0.5849
18132TIP3    H275812   1.587   0.193   6.110  1.1027 -0.3146  1.2987
18133TIP3   OH275813   3.427   1.350  16.628 -0.3470 -0.1733 -0.1242
18133TIP3    H175814   3.344   1.379  16.591  0.6866  1.6347 -1.1841
18133TIP3    H275815   3.421   1.373  16.721 -0.4109  1.5396 -0.5240
18134TIP3   OH275816   0.381   5.474  14.307  0.0850 -0.0754 -0.0411
18134TIP3    H175817   0.430   5.410  14.360 -0.5711  0.4897  1.3103
18134TIP3    H275818   0.421   5.559  14.329 -0.9791  0.3076  0.5147
18135TIP3   OH275819   3.646   5.920  14.751 -0.2589 -0.6228 -0.5273
18135TIP3    H175820   3.697   5.952  14.677  0.1960  0.4177  0.2128
18135TIP3    H275821   3.709   5.912  14.823 -0.7401 -1.3693 -0.1693
18136TIP3   OH275822   0.369   2.156  15.421  0.0501 -0.4716 -0.1124
18136TIP3    H175823   0.445   2.215  15.419  0.6380 -1.2104 -2.4742
18136TIP3    H275824   0.403   2.072  15.390 -1.6326 -0.9449 -0.7724
18137TIP3   OH275825   2.188   1.095  16.319 -0.2873  0.1621 -0.5148
18137TIP3    H175826   2.155   1.072  16.406 -1.1403  1.8265 -0.3594
18137TIP3    H275827   2.265   1.150  16.337  0.2372 -0.4548 -0.8376
18138TIP3   OH275828   1.968   1.758   5.651  0.0845  0.2506  0.4988
18138TIP3    H175829   1.941   1.748   5.559  0.4098 -2.0439  0.5865
18138TIP3    H275830   1.893   1.727   5.701  1.0821 -1.7695  0.8611
18139TIP3   OH275831   2.865   5.622   6.332  0.0819  0.6039  0.1785
18139TIP3    H175832   2.890   5.587   6.247  1.0423 -1.7467  1.3154
18139TIP3    H275833   2.941   5.673   6.360  0.9028 -0.8343  0.6976
18140TIP3   OH275834   0.762   6.084   5.112 -0.1385 -0.1664  0.3317
18140TIP3    H175835   0.825   6.029   5.158 -0.3320 -2.4422 -1.8586
18140TIP3    H275836   0.799   6.095   5.025 -0.9433  1.8179  0.1996
18141TIP3   OH275837   1.839   5.419   3.055  0.0146 -0.1624  0.1528
18141TIP3    H175838   1.909   5.478   3.027 -1.2559  0.6170 -1.6288
18141TIP3    H275839   1.867   5.332   3.024  0.9795 -0.1770  1.0254
18142TIP3   OH275840   3.794   4.975   5.223  0.1696 -0.1181  0.0315
18142TIP3    H175841   3.848   5.040   5.267 -0.0097  0.3793 -0.4770
18142TIP3    H275842   3.739   4.938   5.293  0.2399  0.3106  0.3139
18143TIP3   OH275843   6.011   1.963   4.922  0.1331 -0.4946 -0.5390
18143TIP3    H175844   6.053   1.915   4.992 -1.2704  1.6445  1.9808
18143TIP3    H275845   6.077   2.027   4.893  0.8747 -1.6909 -1.5667
18144TIP3   OH275846   0.464   2.732   1.766 -0.2439  0.6168 -0.3392
18144TIP3    H175847   0.438   2.640   1.777  1.2527  0.1827 -0.2056
18144TIP3    H275848   0.531   2.729   1.697 -1.0296  1.7732 -1.1803
18145TIP3   OH275849   5.277   4.909  14.795 -0.0434  0.2058  0.0118
18145TIP3    H175850   5.211   4.924  14.862 -0.9329  0.0647 -0.8055
18145TIP3    H275851   5.296   4.996  14.760  1.0095  0.3814  0.9594
18146TIP3   OH275852   1.728   0.753   5.995  0.0440  0.8109  0.4450
18146TIP3    H175853   1.672   0.686   6.035  0.0334  0.9688  0.6979
18146TIP3    H275854   1.812   0.744   6.039  0.0415  0.9666  0.4802
18147TIP3   OH275855   2.733   5.492   1.883  0.4794 -0.1759 -0.1141
18147TIP3    H175856   2.656   5.444   1.853  0.4517  0.4864 -1.1741
18147TIP3    H275857   2.702   5.582   1.895  0.8015 -0.1674  0.6743
18148TIP3   OH275858   1.103   2.595   3.842  0.4383  0.5231  0.0169
18148TIP3    H175859   1.173   2.537   3.812  0.4083  0.9110 -0.8380
18148TIP3    H275860   1.024   2.541   3.837  0.8942 -0.6341  3.0777
18149TIP3   OH275861   1.461   1.826   3.281 -0.1745  0.3567  0.8195
18149TIP3    H175862   1.479   1.809   3.188 -1.0944  0.9992  0.5197
18149TIP3    H275863   1.511   1.906   3.301 -1.0156  0.9696  0.5223
18150TIP3   OH275864   4.313   5.769   2.888  0.3999 -0.2923 -0.1015
18150TIP3    H175865   4.298   5.804   2.976  1.3536 -1.4136  0.5349
18150TIP3    H275866   4.382   5.704   2.899 -0.6666 -1.7322 -1.3782
18151TIP3   OH275867   2.035   1.978  14.431  0.2478 -0.0936 -0.0271
18151TIP3    H175868   1.940   1.975  14.440  0.1898 -0.8554 -0.7769
18151TIP3    H275869   2.051   2.048  14.368  0.2185  0.3714  0.4791
18152TIP3   OH275870   0.215   0.858   3.914  0.3341 -0.3761  0.2436
18152TIP3    H175871   0.211   0.764   3.892  0.3647 -0.2738 -0.2100
18152TIP3    H275872   0.192   0.861   4.006 -2.7874 -0.5744 -0.3926
18153TIP3   OH275873   1.469   4.611  17.112 -0.0146 -0.1942  0.1792
18153TIP3    H175874   1.405   4.664  17.160  0.2738  0.6385 -0.3195
18153TIP3    H275875   1.476   4.530  17.161 -1.0951 -0.0974  0.5031
18154TIP3   OH275876   0.208   1.044   5.003 -0.5548 -0.2362 -0.2086
18154TIP3    H175877   0.247   1.109   5.061 -1.0395  0.3852 -0.5708
18154TIP3    H275878   0.192   1.091   4.921  0.7217 -1.2580 -1.0864
18155TIP3   OH275879   0.669   0.548   6.469  0.0489 -0.6737  0.0851
18155TIP3    H175880   0.643   0.638   6.453 -0.6741 -0.5870  1.5716
18155TIP3    H275881   0.587   0.500   6.479  0.4098 -1.6064 -1.1282
18156TIP3   OH275882   0.497   1.269   4.179  0.0941  0.0437 -0.2784
18156TIP3    H175883   0.546   1.248   4.099  0.2250 -0.6390 -0.0313
18156TIP3    H275884   0.538   1.214   4.246  1.4345  2.2007  0.7596
18157TIP3   OH275885   4.400   3.168   3.296 -0.3894  0.5556 -0.0256
18157TIP3    H175886   4.387   3.256   3.260 -0.0844  1.6484  2.3418
18157TIP3    H275887   4.431   3.183   3.385  3.2071 -1.9223 -0.6210
18158TIP3   OH275888   5.477   4.648  14.461  0.1304  0.0836 -0.1755
18158TIP3    H175889   5.447   4.696  14.384 -0.5641 -0.3772 -0.2054
18158TIP3    H275890   5.499   4.716  14.525 -1.8525  0.4507  0.1655
18159TIP3   OH275891   0.555   0.402  17.299 -1.1520  0.3687  0.6382
18159TIP3    H175892   0.490   0.450  17.249 -2.5771 -2.2049 -0.1708
18159TIP3    H275893   0.637   0.414  17.250 -1.6598  1.2087 -0.0148
18160TIP3   OH275894   1.792   5.648   3.256  0.0900  0.0681 -0.3034
18160TIP3    H175895   1.794   5.574   3.195 -1.6870 -0.9327  0.7845
18160TIP3    H275896   1.837   5.719   3.209  2.8172 -1.9331 -0.9853
18161TIP3   OH275897   0.205   2.725   5.163 -0.6180 -0.2197  0.2520
18161TIP3    H175898   0.170   2.771   5.087 -0.9748  1.6832  1.5201
18161TIP3    H275899   0.143   2.742   5.233 -0.2074 -1.7972  1.0569
18162TIP3   OH275900   3.972   1.281   5.179 -0.0052  0.1653  0.2592
18162TIP3    H175901   3.965   1.192   5.212 -0.4806  0.8832  2.3032
18162TIP3    H275902   4.066   1.299   5.178  0.0320  0.0450  1.0652
18163TIP3   OH275903   1.411   1.507   3.994  0.2543 -0.1675  0.1705
18163TIP3    H175904   1.445   1.594   3.971  1.2477 -0.6080 -0.0716
18163TIP3    H275905   1.385   1.469   3.910 -1.2051  0.2893  0.3821
18164TIP3   OH275906   6.042   3.068  14.684 -0.5971 -0.4339 -0.0714
18164TIP3    H175907   5.950   3.064  14.656 -0.5001  0.9084 -0.7082
18164TIP3    H275908   6.071   3.155  14.655  0.6438 -0.5219  0.8424
18165TIP3   OH275909   1.029   0.407   2.405 -0.5051  0.7799 -0.3700
18165TIP3    H175910   1.040   0.385   2.313 -1.2697  0.8610 -0.4806
18165TIP3    H275911   1.005   0.324   2.447  1.9756  0.2407  0.1519
18166TIP3   OH275912   2.923   3.009   1.596  0.3088 -0.1645  0.3362
18166TIP3    H175913   2.843   3.035   1.641 -0.8939  0.2215 -1.9206
18166TIP3    H275914   2.914   2.914   1.584 -0.9571  0.1716 -1.8949
18167TIP3   OH275915   5.856   0.874   0.576  0.0535 -0.2543  0.1688
18167TIP3    H175916   5.854   0.960   0.618  2.8465 -1.3135  2.8496
18167TIP3    H275917   5.913   0.886   0.500 -1.9101  0.8064 -1.2297
18168TIP3   OH275918   5.440   1.091   0.961  0.7039 -0.3599  0.1530
18168TIP3    H175919   5.484   1.168   0.924 -2.0940  0.9078 -0.7802
18168TIP3    H275920   5.453   1.100   1.055 -0.6040  2.0278  0.1837
18169TIP3   OH275921   3.345   0.505  13.346  0.1041 -0.1737 -0.2408
18169TIP3    H175922   3.309   0.572  13.288 -0.4710 -0.9399 -0.7924
18169TIP3    H275923   3.290   0.428  13.330  1.0668 -0.9254  0.0089
18170TIP3   OH275924   1.184   0.565  15.565 -0.7729  0.1196  0.4360
18170TIP3    H175925   1.127   0.614  15.505  0.4664  3.2908  1.6431
18170TIP3    H275926   1.130   0.554  15.643 -0.2829  1.8855  1.0692
18171TIP3   OH275927   0.702   6.473   3.229  0.0877  0.0071  0.1528
18171TIP3    H175928   0.686   6.500   3.138  1.3041 -0.6126 -0.2685
18171TIP3    H275929   0.629   6.415   3.250 -0.4379  0.5030 -0.2733
18172TIP3   OH275930   3.595   3.750  10.429  0.1508  0.2398 -0.5494
18172TIP3    H175931   3.636   3.664  10.441  1.5986  0.7606 -1.5039
18172TIP3    H275932   3.502   3.733  10.439  0.4934 -1.1950  0.6268
18173TIP3   OH275933   4.756   3.636   1.706 -0.5857  0.1453  0.5717
18173TIP3    H175934   4.780   3.628   1.614 -1.4365 -0.6373  0.4028
18173TIP3    H275935   4.723   3.550   1.730  2.1264 -0.5388  2.3866
18174TIP3   OH275936   5.285   5.754  16.784  0.1999 -0.1796  0.5748
18174TIP3    H175937   5.275   5.696  16.859  0.8099 -1.1982 -0.1212
18174TIP3    H275938   5.379   5.768  16.776  0.7538 -4.0353 -2.8522
18175TIP3   OH275939   5.451   0.467   2.114 -0.0864 -0.0773 -0.2567
18175TIP3    H175940   5.370   0.518   2.109 -0.1301 -0.0344  0.7424
18175TIP3    H275941   5.423   0.379   2.139  0.1075 -0.2826 -0.7370
18176TIP3   OH275942   4.060   1.418   0.860  0.0510 -0.0855  0.6395
18176TIP3    H175943   4.002   1.342   0.868 -1.0562  0.6745  0.0839
18176TIP3    H275944   4.001   1.492   0.848  1.1468  0.6855 -0.2191
18177TIP3   OH275945   6.138   2.983  14.950 -0.6989 -0.3559  0.4156
18177TIP3    H175946   6.120   2.998  14.858  0.3147 -0.5877  0.1720
18177TIP3    H275947   6.204   3.048  14.973  0.8695 -1.8641  0.3384
18178TIP3   OH275948   1.734   2.824  14.363 -0.3084 -0.1524 -0.0480
18178TIP3    H175949   1.759   2.761  14.431 -2.0421 -1.2125 -0.3561
18178TIP3    H275950   1.689   2.894  14.411  1.8848  1.1058  0.3359
18179TIP3   OH275951   5.485   2.458  11.629 -0.3594 -0.0940  0.2183
18179TIP3    H175952   5.446   2.511  11.699  0.2196 -0.8630  1.1466
18179TIP3    H275953   5.491   2.370  11.666  0.0678 -0.4918 -0.7632
18180TIP3   OH275954   4.540   1.676  12.156  0.8795 -0.1464 -0.2551
18180TIP3    H175955   4.553   1.712  12.068  0.0274 -2.3265 -1.3432
18180TIP3    H275956   4.603   1.604  12.162  1.6261  0.5888  1.3546
18181TIP3   OH275957   1.308   4.923   2.377 -0.5254  0.1218  0.3457
18181TIP3    H175958   1.310   4.901   2.470  0.9656 -0.3849  0.2257
18181TIP3    H275959   1.309   4.838   2.333  1.9876  0.3333 -0.1174
18182TIP3   OH275960   1.549   1.670  13.048  0.7332  0.4759 -0.2101
18182TIP3    H175961   1.482   1.737  13.063  1.2061  1.2867 -1.5007
18182TIP3    H275962   1.503   1.587  13.058 -0.0334  0.9922  0.7296
18183TIP3   OH275963   6.129   2.129  13.173  0.0219 -0.0566  0.0970
18183TIP3    H175964   6.154   2.189  13.103  2.9514 -1.1839  0.0494
18183TIP3    H275965   6.062   2.073  13.133  1.0840 -0.1846 -1.5893
18184TIP3   OH275966   0.459   1.047  13.172 -0.2841  0.3652 -0.4545
18184TIP3    H175967   0.498   1.134  13.178  0.2384  0.2667 -2.0987
18184TIP3    H275968   0.407   1.048  13.092 -0.4005 -0.7736 -0.4206
18185TIP3   OH275969   4.293   0.176   5.755  0.0067 -0.1498 -0.4782
18185TIP3    H175970   4.387   0.187   5.744  0.0920 -0.1195  0.2476
18185TIP3    H275971   4.254   0.251   5.710  0.4096  0.9199  0.8928
18186TIP3   OH275972   1.639   4.943  13.373 -0.1890 -0.0716 -0.1069
18186TIP3    H175973   1.682   5.003  13.312  1.8191 -0.2030  1.0904
18186TIP3    H275974   1.602   4.875  13.317  1.2895 -0.0086 -1.2210
18187TIP3   OH275975   1.237   0.400   1.640  0.1898 -0.5166 -0.0692
18187TIP3    H175976   1.315   0.356   1.608 -0.8092 -1.5039 -1.2424
18187TIP3    H275977   1.165   0.360   1.592 -0.8132  2.4622 -1.3327
18188TIP3   OH275978   3.750   2.376   6.306  0.4250  0.1341  0.0524
18188TIP3    H175979   3.681   2.442   6.307  0.3388  0.0406  0.7507
18188TIP3    H275980   3.831   2.426   6.298  0.2565  0.2106 -1.4948
18189TIP3   OH275981   2.679   0.702  14.573  0.3057  0.2308 -0.1641
18189TIP3    H175982   2.721   0.709  14.488 -0.6240 -2.8170 -1.0022
18189TIP3    H275983   2.587   0.718  14.556  0.2271  0.4256  0.4294
18190TIP3   OH275984   4.833   1.050  13.895 -0.0231  0.6115 -0.6442
18190TIP3    H175985   4.899   1.004  13.843 -2.2942 -2.8476 -0.8275
18190TIP3    H275986   4.853   1.025  13.985 -0.9473 -0.4454 -0.7001
18191TIP3   OH275987   6.113   2.000  16.960 -0.0203 -0.3954 -0.2778
18191TIP3    H175988   6.125   1.913  16.921 -0.4208 -0.2519 -0.7445
18191TIP3    H275989   6.185   2.052  16.924  1.1896 -0.9280  1.2700
18192TIP3   OH275990   2.020   3.504   0.834 -0.8961 -0.0243  0.1941
18192TIP3    H175991   2.092   3.508   0.771 -0.8649 -0.4285  0.2004
18192TIP3    H275992   2.061   3.524   0.918 -0.7584 -0.4119  0.2216
18193TIP3   OH275993   3.655   0.999  16.392  0.4855  0.0806  0.0328
18193TIP3    H175994   3.727   0.996  16.328 -0.6097 -0.6087 -1.2043
18193TIP3    H275995   3.589   0.940  16.357 -1.1156  1.4229  0.6371
18194TIP3   OH275996   2.285   1.037  13.419  0.1554  0.3441 -0.5348
18194TIP3    H175997   2.228   0.962  13.439  0.9953 -0.4635 -1.0865
18194TIP3    H275998   2.300   1.031  13.325  1.2165  0.4930 -0.3884
18195TIP3   OH275999   4.661   0.928  13.359 -0.5344 -0.0938  0.1009
18195TIP3    H176000   4.679   1.004  13.413  3.9783 -0.8984  0.1215
18195TIP3    H276001   4.687   0.853  13.413 -1.9034 -1.4562 -1.0165
18196TIP3   OH276002   2.117   3.958   3.283 -0.0511  0.0129  0.0894
18196TIP3    H176003   2.163   3.912   3.353 -1.3358 -1.3813  0.1004
18196TIP3    H276004   2.076   4.033   3.326  1.1029  0.5310  0.3234
18197TIP3   OH276005   3.747   6.483   0.447  0.3309  0.6327  0.0634
18197TIP3    H176006   3.709   6.396   0.459 -1.8717  1.4942 -0.3561
18197TIP3    H276007   3.747   6.497   0.352 -3.1340  2.6018  0.2153
18198TIP3   OH276008   1.211   2.536   4.321  0.2107 -0.2740 -0.5436
18198TIP3    H176009   1.209   2.456   4.269  0.6311 -0.7390  0.1475
18198TIP3    H276010   1.136   2.587   4.289 -0.2750 -1.0913 -0.7436
18199TIP3   OH276011   5.614   6.322   3.903 -0.0989 -0.0044 -0.2951
18199TIP3    H176012   5.652   6.388   3.961  0.9149 -0.4318 -0.4706
18199TIP3    H276013   5.679   6.309   3.835 -1.0747  0.1271 -1.2723
18200TIP3   OH276014   6.392   0.005   1.252  0.1974  0.0287 -0.4611
18200TIP3    H176015   6.404   0.043   1.165 -0.9267  0.4725 -0.4402
18200TIP3    H276016   6.305  -0.034   1.249  0.2659 -0.2018  0.3768
18201TIP3   OH276017   1.358   4.229  14.585 -0.3014  0.5210  0.5680
18201TIP3    H176018   1.441   4.213  14.541 -0.1226  0.6782  0.8423
18201TIP3    H276019   1.358   4.323  14.603 -0.0164  0.3364  1.6028
18202TIP3   OH276020   2.420   4.676  11.663  0.9126 -0.1341  0.2276
18202TIP3    H176021   2.331   4.678  11.630  0.8582  0.5402  0.3853
18202TIP3    H276022   2.453   4.765  11.646  0.7411  0.3794  2.3260
18203TIP3   OH276023   0.602   5.202  10.955  0.6083  0.0888  0.2328
18203TIP3    H176024   0.600   5.289  10.913 -0.6556 -0.0793 -0.1000
18203TIP3    H276025   0.537   5.208  11.024 -0.2312 -0.9070 -0.4480
18204TIP3   OH276026   4.336   4.488   5.941 -0.2019  0.1645 -0.2914
18204TIP3    H176027   4.298   4.414   5.893 -0.5853 -0.8311  1.4858
18204TIP3    H276028   4.337   4.460   6.032  0.6134  1.9669  0.2954
18205TIP3   OH276029   1.405   0.916   2.545  0.3147  0.0252 -0.4143
18205TIP3    H176030   1.380   1.009   2.553  0.3794 -0.0924  2.1792
18205TIP3    H276031   1.335   0.877   2.494 -0.8339  1.1552  0.2188
18206TIP3   OH276032   6.579   0.514   3.489 -0.5588 -0.2666 -0.0293
18206TIP3    H176033   6.553   0.422   3.486  3.3840 -1.5852 -0.0072
18206TIP3    H276034   6.552   0.549   3.405 -1.1712 -1.7413 -0.4903
18207TIP3   OH276035   2.447   1.344   4.258 -0.3804 -0.0168 -0.0635
18207TIP3    H176036   2.530   1.326   4.301 -0.1494 -2.4401 -1.3202
18207TIP3    H276037   2.470   1.358   4.166 -1.2196  1.0584 -0.1327
18208TIP3   OH276038   0.575   1.874  12.114  0.0292  0.1649 -0.5998
18208TIP3    H176039   0.508   1.824  12.160 -0.4485 -0.0894 -1.5423
18208TIP3    H276040   0.649   1.876  12.174 -0.0733 -1.3391 -0.3801
18209TIP3   OH276041   0.582   6.561   1.090  0.0396 -0.1012  0.5244
18209TIP3    H176042   0.511   6.623   1.105 -1.2556 -1.5231  0.5002
18209TIP3    H276043   0.562   6.520   1.007  1.5527  0.2810 -0.0728
18210TIP3   OH276044   4.292   4.508  13.564 -0.3088 -0.4927 -0.1423
18210TIP3    H176045   4.274   4.512  13.470 -1.6558  2.1253  0.1272
18210TIP3    H276046   4.387   4.502  13.570 -0.2548 -1.8608 -1.6345
18211TIP3   OH276047   1.300   3.965   0.198  0.3399  0.3723 -0.2928
18211TIP3    H176048   1.305   3.975   0.103  0.8961 -0.2541 -0.3338
18211TIP3    H276049   1.268   3.876   0.212  0.8576  0.2426  0.1049
18212TIP3   OH276050   2.085   4.997  14.068 -0.0797 -0.2540  0.1819
18212TIP3    H176051   2.061   5.018  14.158  0.9488  3.6837 -0.2352
18212TIP3    H276052   2.096   4.902  14.066 -0.5542 -0.5266  4.0581
18213TIP3   OH276053   2.768   2.192  12.876  0.4724 -0.1131  0.4825
18213TIP3    H176054   2.729   2.106  12.891  0.0870 -0.0347 -0.0114
18213TIP3    H276055   2.726   2.249  12.941  1.1791 -0.4140  1.2159
18214TIP3   OH276056   2.034   4.544  12.833  0.0037  0.1828  0.2796
18214TIP3    H176057   2.058   4.545  12.925  1.3767 -0.6741 -0.0405
18214TIP3    H276058   2.014   4.452  12.814 -0.5920  0.4014 -0.2078
18215TIP3   OH276059   1.719   5.126  10.842  0.0943 -0.2631 -0.1429
18215TIP3    H176060   1.710   5.206  10.894 -2.2807 -0.1506 -0.6294
18215TIP3    H276061   1.771   5.153  10.767  0.1258  0.5956  0.1718
18216TIP3   OH276062   2.062   4.668   5.086 -0.6207 -0.2192  0.4007
18216TIP3    H176063   2.155   4.691   5.096 -0.7015 -0.7189  2.9946
18216TIP3    H276064   2.061   4.607   5.013  1.4799 -1.9287  1.6498
18217TIP3   OH276065   4.267   2.196  16.733  0.2614  0.1058  0.3131
18217TIP3    H176066   4.278   2.267  16.797 -1.4682 -0.1676  0.9579
18217TIP3    H276067   4.237   2.240  16.654  1.2498  0.3151  0.0473
18218TIP3   OH276068   2.146   3.154  12.996 -0.0564 -0.0036  0.2251
18218TIP3    H176069   2.214   3.211  12.961  1.4173 -2.7177 -1.6612
18218TIP3    H276070   2.066   3.183  12.952  1.1363 -1.0038 -2.8070
18219TIP3   OH276071   0.570   1.674   2.371  0.0765  0.0755  0.1013
18219TIP3    H176072   0.488   1.644   2.412 -0.0920  1.3190  0.7404
18219TIP3    H276073   0.576   1.624   2.290 -1.2185 -0.1902  0.1398
18220TIP3   OH276074   4.363   4.745  14.399  0.0121 -0.4467  0.2987
18220TIP3    H176075   4.397   4.835  14.396 -1.5130  0.2096  1.3506
18220TIP3    H276076   4.393   4.706  14.317  0.4825  1.1141 -0.3170
18221TIP3   OH276077   2.854   6.599   1.679 -0.4618 -0.0334 -0.6342
18221TIP3    H176078   2.788   6.614   1.612  0.4514 -0.2859 -1.6242
18221TIP3    H276079   2.937   6.597   1.631  0.3237  0.7826  0.6301
18222TIP3   OH276080   5.020   3.293  15.339 -0.1720  0.2105 -0.8851
18222TIP3    H176081   5.015   3.384  15.368  0.2216 -0.0208 -0.0671
18222TIP3    H276082   5.111   3.281  15.312 -0.1467 -0.0210 -0.7016
18223TIP3   OH276083   4.858   5.797  14.459  0.3876  0.4129 -0.3391
18223TIP3    H176084   4.770   5.774  14.487  0.3960 -1.2132 -1.5406
18223TIP3    H276085   4.901   5.830  14.538 -0.7415 -0.4694  0.6677
18224TIP3   OH276086   4.700   2.124  13.331 -0.2804 -0.0133  0.0541
18224TIP3    H176087   4.715   2.171  13.249 -1.6999 -1.5307 -1.1474
18224TIP3    H276088   4.713   2.190  13.399  0.3005  1.4542 -1.4086
18225TIP3   OH276089   2.880   2.089   0.513  0.3915 -0.7420 -0.3479
18225TIP3    H176090   2.868   1.997   0.537  0.5168 -0.4464  0.9290
18225TIP3    H276091   2.937   2.087   0.436 -1.1236 -1.8042 -1.5061
18226TIP3   OH276092   0.527   2.110   5.619 -0.2808 -0.5534 -0.1412
18226TIP3    H176093   0.537   2.085   5.527 -2.4360  0.7152 -0.7710
18226TIP3    H276094   0.443   2.072   5.645 -0.5016  0.5416  0.7879
18227TIP3   OH276095   1.444   2.532   4.068 -0.0958 -0.0265 -0.4732
18227TIP3    H176096   1.357   2.568   4.085 -0.5268 -1.0231 -0.4799
18227TIP3    H276097   1.433   2.437   4.079  1.5191 -0.0338  1.8346
18228TIP3   OH276098   0.487   4.949  11.652  0.2472  0.2121  0.3382
18228TIP3    H176099   0.568   4.952  11.703  1.4483 -2.3063 -1.1723
18228TIP3    H276100   0.468   5.040  11.631  2.2194  0.9493  1.4554
18229TIP3   OH276101   6.313   6.329   4.728  0.3001 -0.3625 -0.0817
18229TIP3    H176102   6.334   6.237   4.743  0.2276 -0.4804 -0.6493
18229TIP3    H276103   6.265   6.329   4.645  3.7908  0.5770 -2.3402
18230TIP3   OH276104   0.030   2.091  15.071 -0.1845 -0.2722  0.2716
18230TIP3    H176105   0.032   2.082  15.166  1.1580 -2.5019  0.0953
18230TIP3    H276106   0.098   2.032  15.040 -0.7183  0.2641 -2.1061
18231TIP3   OH276107   3.554   4.467   5.376 -0.0414  0.4359 -0.6086
18231TIP3    H176108   3.558   4.488   5.283  0.7881 -3.3387 -1.5918
18231TIP3    H276109   3.630   4.511   5.414  0.1017  1.3380 -1.8865
18232TIP3   OH276110   1.294   0.917  13.907 -0.3770 -0.2158 -0.1085
18232TIP3    H176111   1.223   0.905  13.844  0.8262 -0.4430 -1.4446
18232TIP3    H276112   1.352   0.982  13.867  1.0070 -1.2126  0.2040
18233TIP3   OH276113   4.505   1.318   3.702 -0.0251  0.4305 -0.1670
18233TIP3    H176114   4.447   1.312   3.625  0.4999 -2.0791 -0.4524
18233TIP3    H276115   4.462   1.381   3.760 -1.4559  0.8988 -1.6597
18234TIP3   OH276116   0.020   3.611  15.364  0.0944 -0.1943  0.5859
18234TIP3    H176117  -0.056   3.563  15.397 -1.2225 -0.2125 -2.1948
18234TIP3    H276118   0.039   3.675  15.432 -2.2081 -0.4255  1.5429
18235TIP3   OH276119   4.152   3.682   3.255 -0.2592 -0.1896 -0.4569
18235TIP3    H176120   4.180   3.773   3.246 -0.8524  0.0305 -0.1088
18235TIP3    H276121   4.104   3.680   3.338 -2.2948 -0.3097 -1.5927
18236TIP3   OH276122   5.017   3.071  13.710  0.1078 -0.5005  0.2725
18236TIP3    H176123   5.097   3.067  13.658  0.7168 -1.7437  1.2392
18236TIP3    H276124   5.041   3.028  13.793 -1.7251 -1.4419  0.3532
18237TIP3   OH276125   2.723   3.922  16.274  0.2575 -0.3891 -0.1380
18237TIP3    H176126   2.681   3.860  16.333  2.9554 -2.1921  0.0654
18237TIP3    H276127   2.761   3.988  16.333 -0.5177  0.1080 -0.1822
18238TIP3   OH276128   4.043   5.949   3.994  0.3521 -0.0278 -0.4936
18238TIP3    H176129   3.969   6.005   3.973  0.3420  0.5353  0.9932
18238TIP3    H276130   4.078   5.923   3.908 -1.4938 -0.2539 -1.2156
18239TIP3   OH276131   3.238   6.294  16.410  0.3896 -0.1019 -0.0998
18239TIP3    H176132   3.155   6.341  16.398  1.2048  1.7956  1.1414
18239TIP3    H276133   3.225   6.243  16.489  0.2670 -0.1271 -0.1365
18240TIP3   OH276134   6.534   3.448   4.889  0.9252 -0.6471  0.1927
18240TIP3    H176135   6.549   3.439   4.984  0.4968  0.5138  0.3822
18240TIP3    H276136   6.445   3.416   4.877  0.1558  1.2307  0.5517
18241TIP3   OH276137   1.122   3.884   0.802 -0.2311  0.3400  0.1774
18241TIP3    H176138   1.086   3.971   0.814  1.5957  1.2485 -0.4836
18241TIP3    H276139   1.217   3.897   0.797  0.0251 -1.5064 -1.2095
18242TIP3   OH276140   1.562   2.350   2.280 -0.3544 -0.1350  0.3300
18242TIP3    H176141   1.483   2.295   2.277 -1.3466  1.2816 -1.0059
18242TIP3    H276142   1.548   2.416   2.212  2.0273  0.1425  0.0316
18243TIP3   OH276143   2.147   1.475   2.199 -0.3226 -0.1990 -0.7226
18243TIP3    H176144   2.096   1.552   2.225  0.5623  0.6092 -1.2829
18243TIP3    H276145   2.082   1.408   2.180 -1.1268  0.4913 -0.4828
18244TIP3   OH276146   3.865   5.871   5.488  0.0298 -0.0915 -0.1287
18244TIP3    H176147   3.835   5.891   5.399  0.5990  2.0173  0.1072
18244TIP3    H276148   3.960   5.863   5.479  0.1105  0.3736  0.3360
18245TIP3   OH276149   4.413   1.867   5.687  0.3674 -0.1318  0.3101
18245TIP3    H176150   4.332   1.852   5.736  0.7351  0.8881  1.2564
18245TIP3    H276151   4.482   1.840   5.747  0.7263 -3.0407 -1.2344
18246TIP3   OH276152   3.205   3.291  15.705 -0.1314 -0.0924 -0.0451
18246TIP3    H176153   3.156   3.370  15.725  1.4425  0.6564  1.1231
18246TIP3    H276154   3.236   3.259  15.790  2.1356  0.0283 -0.7364
18247TIP3   OH276155   1.007   4.853  17.123 -0.0801 -0.2011 -0.5554
18247TIP3    H176156   0.990   4.947  17.131 -1.1178 -0.4203  0.0642
18247TIP3    H276157   0.944   4.813  17.183  0.6481 -1.2722 -0.4871
18248TIP3   OH276158   5.051   6.625  13.522  0.4476 -0.1386  0.1832
18248TIP3    H176159   5.029   6.695  13.460 -0.1334  0.0636  0.6160
18248TIP3    H276160   5.070   6.671  13.604  0.9566 -0.4258  0.2272
18249TIP3   OH276161   3.399   4.292   3.630  0.3333  0.1136 -0.7396
18249TIP3    H176162   3.452   4.327   3.703  0.0711 -0.6915 -0.1455
18249TIP3    H276163   3.425   4.200   3.624 -1.2935 -0.4255 -0.1459
18250TIP3   OH276164   4.896   2.715  15.653  0.3342 -0.0026  0.4871
18250TIP3    H176165   4.878   2.807  15.635  1.5176  0.2626  0.5661
18250TIP3    H276166   4.810   2.676  15.665 -0.2117  0.9875 -0.0344
18251TIP3   OH276167   1.248   4.313  12.085  0.3902 -0.6827 -0.0442
18251TIP3    H176168   1.235   4.402  12.119  0.5776 -0.3887 -0.7108
18251TIP3    H276169   1.166   4.292  12.042  1.1730  0.2124 -2.1352
18252TIP3   OH276170   6.625   0.927   0.363  0.0950  0.1136  0.0904
18252TIP3    H176171   6.637   0.964   0.276 -1.9019 -0.0874 -0.3223
18252TIP3    H276172   6.665   0.991   0.422 -1.6734  2.1054 -0.7313
18253TIP3   OH276173   2.998   0.667  12.386 -0.7607  0.0402 -0.9646
18253TIP3    H176174   3.008   0.760  12.403 -1.1434 -0.1190  0.2077
18253TIP3    H276175   2.927   0.639  12.444  2.2117 -1.8713  2.1264
18254TIP3   OH276176   2.397   4.921  15.845 -0.3079 -0.5236 -0.4828
18254TIP3    H176177   2.433   4.848  15.895  0.6034 -0.3071 -0.7936
18254TIP3    H276178   2.426   4.906  15.755 -1.5266 -0.6580 -0.8771
18255TIP3   OH276179   0.122   0.835  15.233  0.1640  0.2686 -0.7381
18255TIP3    H176180   0.207   0.848  15.190 -0.0255 -0.7942 -1.4852
18255TIP3    H276181   0.059   0.846  15.162 -0.0833 -3.0947 -1.2063
18256TIP3   OH276182   3.292   1.787  14.994 -0.1669  0.5830  0.4789
18256TIP3    H176183   3.295   1.782  15.089 -0.1971  2.9102  0.6504
18256TIP3    H276184   3.263   1.876  14.975  0.8661  0.5214 -1.7183
18257TIP3   OH276185   1.854   3.015  15.728  0.1731 -0.3004 -0.0457
18257TIP3    H176186   1.839   3.110  15.732  1.0066 -0.1930  0.7572
18257TIP3    H276187   1.946   3.006  15.705 -0.5464 -0.9582 -3.1954
18258TIP3   OH276188   0.446   3.753   2.571  0.1664 -0.6315  0.4582
18258TIP3    H176189   0.361   3.711   2.577 -0.4957  0.1966 -2.0955
18258TIP3    H276190   0.454   3.801   2.654 -1.9706 -0.4857  0.6354
18259TIP3   OH276191   1.146   5.776   2.580 -0.0812 -0.1628 -0.5330
18259TIP3    H176192   1.085   5.722   2.528 -0.6957  0.7854 -0.8395
18259TIP3    H276193   1.165   5.723   2.657 -2.1837 -0.0684  0.1184
18260TIP3   OH276194   1.917   2.743   3.624 -0.4388 -0.3335 -0.1829
18260TIP3    H176195   1.970   2.816   3.659 -1.8346  0.9942 -0.7321
18260TIP3    H276196   1.947   2.667   3.673  1.3185  0.5379  0.1811
18261TIP3   OH276197   1.869   1.904  11.943  0.1768  0.2234  0.0393
18261TIP3    H176198   1.870   1.993  11.908 -1.5056  0.0308 -0.6159
18261TIP3    H276199   1.901   1.849  11.871 -0.7986  0.1073 -0.3312
18262TIP3   OH276200   5.135   6.255  11.538 -0.3373  0.2155 -0.2128
18262TIP3    H176201   5.147   6.168  11.576  0.2904  0.4905  0.2354
18262TIP3    H276202   5.040   6.268  11.537 -0.3753  0.3851  1.7237
18263TIP3   OH276203   5.306   1.990  12.081 -0.7468  0.1268  0.6066
18263TIP3    H176204   5.389   1.953  12.052 -0.7733 -0.1457  0.8756
18263TIP3    H276205   5.330   2.070  12.127 -0.6546  0.1957  0.4399
18264TIP3   OH276206   5.327   1.035   3.449 -0.0399  0.2064 -0.1672
18264TIP3    H176207   5.283   1.117   3.474 -0.4283  0.1023 -0.4986
18264TIP3    H276208   5.272   0.999   3.380  0.3190 -0.1657 -0.2589
18265TIP3   OH276209   6.627   5.324   4.083 -0.0371  0.0485  0.5770
18265TIP3    H176210   6.596   5.388   4.146 -1.1912  0.1246 -0.0362
18265TIP3    H276211   6.635   5.373   4.001 -0.5264 -0.4721  0.2007
18266TIP3   OH276212   5.762   4.549   4.446  0.4932  0.1842 -0.0565
18266TIP3    H176213   5.811   4.627   4.420  2.2954 -0.9547 -0.2655
18266TIP3    H276214   5.825   4.477   4.439 -0.4782 -1.0046  2.1653
18267TIP3   OH276215   1.583   3.377   0.039 -0.3279  0.0812 -0.3967
18267TIP3    H176216   1.547   3.421  -0.038  0.3164 -0.4808 -1.0309
18267TIP3    H276217   1.512   3.320   0.069 -1.0691  1.3060  0.2661
18268TIP3   OH276218   1.215   3.106  13.619  0.3363  0.4744  0.4356
18268TIP3    H176219   1.288   3.152  13.579  0.6545  0.3699  0.8926
18268TIP3    H276220   1.154   3.175  13.646  0.3339  0.5684  0.1869
18269TIP3   OH276221   5.560   3.895   4.810 -0.2441 -0.1491  0.4171
18269TIP3    H176222   5.644   3.892   4.857 -0.2225 -0.7927  0.3362
18269TIP3    H276223   5.574   3.840   4.733 -0.9722 -0.8444  0.7757
18270TIP3   OH276224   3.774   5.357  13.963  0.3334 -0.5634 -0.0044
18270TIP3    H176225   3.716   5.384  14.034  2.3721 -0.1830  1.6201
18270TIP3    H276226   3.742   5.404  13.886 -1.1109  0.0951  0.9495
18271TIP3   OH276227   4.708   1.901  13.700  0.3167 -0.5890  0.0972
18271TIP3    H176228   4.648   1.959  13.654  1.4149 -0.2619 -0.9854
18271TIP3    H276229   4.767   1.960  13.748  0.8484 -0.8357 -0.2478
18272TIP3   OH276230   1.519   6.303  14.299  0.6325 -0.9563 -0.7186
18272TIP3    H176231   1.609   6.322  14.272  0.4253 -0.7054 -1.2674
18272TIP3    H276232   1.474   6.285  14.216  0.6328 -3.1007 -0.2950
18273TIP3   OH276233   5.697   4.316  11.864 -0.0635  0.0019 -0.0166
18273TIP3    H176234   5.739   4.263  11.797 -1.5372  0.6354 -1.5323
18273TIP3    H276235   5.732   4.284  11.947  2.3317 -0.3504 -1.1047
18274TIP3   OH276236   5.918   6.699   4.879  0.6032 -0.1737  0.5559
18274TIP3    H176237   5.825   6.690   4.899  0.2353  0.3722 -0.7977
18274TIP3    H276238   5.957   6.733   4.960 -0.5712  0.6607  0.7951
18275TIP3   OH276239   5.920   0.654  15.247  0.4649  0.2491  0.0673
18275TIP3    H176240   5.962   0.703  15.318  5.3632 -2.7756 -0.2593
18275TIP3    H276241   5.887   0.575  15.289  2.3243 -0.9955 -0.6606
18276TIP3   OH276242   5.252   0.565   0.445 -0.3974 -0.5045 -0.1623
18276TIP3    H176243   5.175   0.521   0.479 -0.0130 -1.8240 -0.9148
18276TIP3    H276244   5.217   0.630   0.384 -0.9426 -0.3343  0.3218
18277TIP3   OH276245   3.945   5.000   3.283 -0.1099  0.1782 -0.3811
18277TIP3    H176246   3.891   5.043   3.349  0.4626  0.6387 -0.1979
18277TIP3    H276247   4.009   5.067   3.257  0.2758 -0.3032 -0.6968
18278TIP3   OH276248   3.443   0.062  15.776  0.0427 -0.5607 -0.7371
18278TIP3    H176249   3.352   0.078  15.800 -0.4800 -1.1038 -2.2161
18278TIP3    H276250   3.481   0.149  15.768  0.4238 -0.3294  2.4194
18279TIP3   OH276251   1.094   3.158  11.328  0.2705  0.0597  0.2496
18279TIP3    H176252   1.036   3.179  11.401 -1.1694 -0.5072 -0.6920
18279TIP3    H276253   1.178   3.139  11.369 -0.8802 -1.7627  1.9536
18280TIP3   OH276254   4.424   4.396  10.750 -0.2978 -0.6445 -0.2507
18280TIP3    H176255   4.352   4.459  10.762 -0.6486 -1.1678  0.4527
18280TIP3    H276256   4.502   4.451  10.738 -0.6855 -0.0765 -0.2076
18281TIP3   OH276257   4.664   4.973  17.283  0.4281  0.3671  0.4648
18281TIP3    H176258   4.675   4.901  17.221 -1.9405  0.7488 -0.5062
18281TIP3    H276259   4.720   4.950  17.358  1.6530 -1.1883 -0.8741
18282TIP3   OH276260   1.025   2.073   6.170  0.3571 -0.1583  0.2866
18282TIP3    H176261   1.013   1.995   6.224 -1.4601 -0.6893 -0.7944
18282TIP3    H276262   0.950   2.129   6.191  1.3582  1.1026  0.6622
18283TIP3   OH276263   2.585   6.372   3.314  0.4546 -0.7138  0.0213
18283TIP3    H176264   2.581   6.307   3.244  1.6307 -0.4636 -0.2868
18283TIP3    H276265   2.532   6.445   3.282 -0.6021 -1.3639  0.2293
18284TIP3   OH276266   3.391   1.977   4.064  0.1978 -0.2132  0.1952
18284TIP3    H176267   3.409   1.888   4.036  0.5442 -0.4123  1.0126
18284TIP3    H276268   3.464   1.999   4.122  1.6992  1.6475 -2.2279
18285TIP3   OH276269   5.392   4.435   5.060  0.3538 -0.4993 -0.3759
18285TIP3    H176270   5.371   4.525   5.036  2.3328  0.2770  0.6175
18285TIP3    H276271   5.315   4.405   5.109 -0.0132  0.9415 -0.0166
18286TIP3   OH276272   5.824   0.200   1.610 -0.2722  0.2292 -0.1996
18286TIP3    H176273   5.738   0.195   1.569 -0.3467  1.7256 -0.2805
18286TIP3    H276274   5.858   0.286   1.585 -0.0026  0.9289  2.2252
18287TIP3   OH276275   4.817   2.866  12.050  0.4384 -0.5607 -0.1622
18287TIP3    H176276   4.842   2.847  11.959  1.3425 -1.6503  0.2933
18287TIP3    H276277   4.794   2.959  12.049  2.8595  0.1133 -1.0207
18288TIP3   OH276278   5.591   3.370  14.251 -0.1093  0.1083 -0.5094
18288TIP3    H176279   5.615   3.282  14.224  0.3168  0.8358 -2.7456
18288TIP3    H276280   5.495   3.368  14.255 -0.1178 -0.3838 -0.8649
18289TIP3   OH276281   0.931   0.638  15.543 -0.1293 -0.0051  0.2333
18289TIP3    H176282   0.902   0.689  15.467 -2.0717 -1.0354  0.2296
18289TIP3    H276283   0.865   0.657  15.611  1.1027  0.2324  1.4060
18290TIP3   OH276284   2.012   1.806  13.317 -0.0085  0.1167 -0.1531
18290TIP3    H176285   1.959   1.785  13.240 -0.0427 -0.4195  0.0132
18290TIP3    H276286   2.020   1.723  13.364 -0.4982  0.5590  0.7375
18291TIP3   OH276287   0.442   1.554  14.099 -0.3285  0.1391 -0.0089
18291TIP3    H176288   0.527   1.511  14.104 -1.3022 -1.7217  1.7958
18291TIP3    H276289   0.396   1.507  14.029 -0.3583  0.2315 -0.0512
18292TIP3   OH276290   5.954   3.970  12.317  0.6541  0.4063 -0.3389
18292TIP3    H176291   5.884   3.914  12.283  0.4586 -0.4501  1.3528
18292TIP3    H276292   6.001   4.000  12.240  0.6318 -1.9472 -1.3433
18293TIP3   OH276293   0.398   0.411   2.906 -0.0106  1.1803  0.2366
18293TIP3    H176294   0.305   0.412   2.880  0.3382  0.1647 -1.1278
18293TIP3    H276295   0.423   0.319   2.903  0.9996  1.4273  0.8031
18294TIP3   OH276296   2.449   0.483   3.007 -0.3524 -0.1936 -0.1417
18294TIP3    H176297   2.443   0.578   3.010 -0.3796 -0.2295  1.4571
18294TIP3    H276298   2.539   0.466   2.979  0.3782  0.3288  1.7523
18295TIP3   OH276299   5.162   3.815  16.280 -0.2926 -0.0363 -0.4731
18295TIP3    H176300   5.233   3.794  16.340  0.6492 -0.2219 -1.6145
18295TIP3    H276301   5.106   3.875  16.329  1.2376  1.0074  0.0775
18296TIP3   OH276302   0.332   1.924   1.228 -0.7723 -0.6975 -0.1646
18296TIP3    H176303   0.279   1.862   1.279 -1.8081 -0.8736 -1.4108
18296TIP3    H276304   0.421   1.910   1.259 -1.0855 -2.3117  0.0904
18297TIP3   OH276305   1.795   6.180  16.945  0.0896  0.1177 -0.3395
18297TIP3    H176306   1.794   6.187  17.041  1.8129 -0.7952 -0.2224
18297TIP3    H276307   1.725   6.117  16.926  0.5147 -0.6218  0.4350
18298TIP3   OH276308   4.007   0.763  13.527 -0.3685  0.5781  0.0441
18298TIP3    H176309   3.970   0.738  13.442  0.1311  0.6589 -0.1960
18298TIP3    H276310   4.054   0.685  13.557 -0.2051  0.6814  0.0587
18299TIP3   OH276311   3.305   2.421  16.050  0.7484 -0.1424  0.2604
18299TIP3    H176312   3.252   2.352  16.010  1.6228 -0.6477 -0.0395
18299TIP3    H276313   3.241   2.480  16.090 -0.0441 -0.6933 -0.1734
18300TIP3   OH276314   2.275   2.277   5.514  0.0273  0.4864  0.0419
18300TIP3    H176315   2.264   2.313   5.426  0.0967 -0.5599 -0.4005
18300TIP3    H276316   2.349   2.327   5.550 -1.1111  2.1461  0.1872
18301TIP3   OH276317   0.633   4.769  14.179 -0.0053 -0.0987 -0.0673
18301TIP3    H176318   0.681   4.702  14.131  1.4562  0.4095  0.6176
18301TIP3    H276319   0.701   4.825  14.218 -1.1547  0.7957  0.7579
18302TIP3   OH276320   2.121   6.331   0.141  0.2059  0.4017 -0.0831
18302TIP3    H176321   2.097   6.343   0.049 -0.6810  1.9905  0.3134
18302TIP3    H276322   2.209   6.368   0.149 -0.3253  1.7349 -0.0212
18303TIP3   OH276323   6.401   6.099  14.832 -0.0703 -0.6524 -0.1297
18303TIP3    H176324   6.367   6.124  14.746  0.7999 -0.8376 -0.5422
18303TIP3    H276325   6.446   6.177  14.864  0.7954 -0.9935 -0.4694
18304TIP3   OH276326   3.390   0.160  11.972  0.4361  0.2024  0.0746
18304TIP3    H176327   3.362   0.070  11.955  1.4081  0.0450 -0.8264
18304TIP3    H276328   3.351   0.182  12.056 -3.1347  0.3620 -1.4788
18305TIP3   OH276329   4.124   2.942  15.823  0.1146 -0.3556  0.3646
18305TIP3    H176330   4.177   3.005  15.773 -0.6930 -0.4088 -0.5803
18305TIP3    H276331   4.137   2.859  15.778 -0.7794 -0.3645  0.0980
18306TIP3   OH276332   3.117   5.417   4.338 -0.5270  0.4113 -0.0965
18306TIP3    H176333   3.106   5.401   4.244 -1.5119  0.1359  0.0538
18306TIP3    H276334   3.071   5.500   4.353 -0.6135  0.3087  0.1983
18307TIP3   OH276335   1.942   5.727  14.531 -0.3267  0.2366  0.3052
18307TIP3    H176336   2.009   5.796  14.530 -0.9671  0.8764  0.4689
18307TIP3    H276337   1.935   5.700  14.440  0.5387 -0.2346  0.3588
18308TIP3   OH276338   5.385   4.312   0.583 -0.3534 -0.3619 -0.0795
18308TIP3    H176339   5.337   4.236   0.549  0.7724 -0.8182 -0.7403
18308TIP3    H276340   5.341   4.334   0.665 -0.2451 -2.2429  0.5457
18309TIP3   OH276341   5.508   2.811  15.618  1.1829 -0.3736 -0.1780
18309TIP3    H176342   5.535   2.763  15.540  1.8035  1.7335 -1.3104
18309TIP3    H276343   5.590   2.843  15.657  0.7052  2.1352 -1.0623
18310TIP3   OH276344   0.178   0.536   1.951 -0.0763 -0.4052  0.1544
18310TIP3    H176345   0.186   0.444   1.929 -0.4311 -0.3120 -0.3853
18310TIP3    H276346   0.229   0.546   2.031  0.9918 -0.8181 -0.4486
18311TIP3   OH276347   5.343   2.154   3.092 -0.5954 -0.1847  0.2416
18311TIP3    H176348   5.434   2.169   3.121 -0.4157 -1.0012  0.1029
18311TIP3    H276349   5.315   2.239   3.058  0.8933 -0.4524 -1.8487
18312TIP3   OH276350   5.488   6.156   2.690 -0.4185 -0.0312  0.2371
18312TIP3    H176351   5.528   6.197   2.766 -0.8376 -0.4517  0.6866
18312TIP3    H276352   5.435   6.085   2.725  0.2777 -0.9627 -0.5256
18313TIP3   OH276353   2.872   0.922  10.745 -0.3106  0.1223 -0.7855
18313TIP3    H176354   2.944   0.921  10.808 -1.5879 -0.8008  0.7632
18313TIP3    H276355   2.909   0.887  10.664  0.8786 -0.7078  0.0774
18314TIP3   OH276356   4.330   6.380   4.192  0.0740 -0.1728 -0.2625
18314TIP3    H176357   4.308   6.344   4.277 -1.3397 -1.2630 -1.0493
18314TIP3    H276358   4.405   6.328   4.162  0.7131  0.3546  0.3705
18315TIP3   OH276359   6.289   0.919   3.629  0.6051  0.4507  0.9038
18315TIP3    H176360   6.328   0.832   3.638 -0.6977 -0.1734  0.8118
18315TIP3    H276361   6.249   0.919   3.542  2.2192  1.8521  0.1098
18316TIP3   OH276362   1.639   6.332  14.656 -0.7325 -0.7859  0.3126
18316TIP3    H176363   1.650   6.346  14.750  1.3659  0.5031 -0.0528
18316TIP3    H276364   1.695   6.398  14.616 -0.3865 -2.2942 -1.8375
18317TIP3   OH276365   0.632   2.614   5.848  0.0947  0.0426 -0.6141
18317TIP3    H176366   0.713   2.584   5.808 -0.1670 -1.6937  0.0959
18317TIP3    H276367   0.638   2.710   5.844  1.3454 -0.0609 -2.1819
18318TIP3   OH276368   0.691   2.140   5.101 -0.0836  0.1790  0.2099
18318TIP3    H176369   0.715   2.233   5.099  1.8382 -0.2767 -1.7635
18318TIP3    H276370   0.764   2.097   5.144 -0.3098 -0.5794 -0.1467
18319TIP3   OH276371   2.933   2.458   0.213  0.6064 -0.4187  0.2828
18319TIP3    H176372   2.972   2.466   0.300  0.3370 -2.4574  0.6334
18319TIP3    H276373   2.962   2.373   0.181 -0.5014 -0.3477 -1.0043
18320TIP3   OH276374   4.995   1.479  15.477  0.1902  0.2240  0.0096
18320TIP3    H176375   4.901   1.468  15.485  0.1478 -0.6919 -1.4884
18320TIP3    H276376   5.012   1.482  15.383  1.6718  0.2263  0.2423
18321TIP3   OH276377   3.296   4.882   2.541  0.0788 -0.3068 -0.2947
18321TIP3    H176378   3.283   4.973   2.514  1.5091 -0.2253 -0.8297
18321TIP3    H276379   3.238   4.870   2.615 -0.6907  0.8195 -0.6929
18322TIP3   OH276380   4.682   2.925  11.466 -0.0469 -0.2285  0.4808
18322TIP3    H176381   4.667   2.909  11.559  0.0453 -0.4642  0.4558
18322TIP3    H276382   4.710   2.840  11.431  0.8874  0.0828  0.4361
18323TIP3   OH276383   5.074   5.296   2.236  0.4172  0.3708 -0.2718
18323TIP3    H176384   5.043   5.290   2.146  1.4741 -0.0788 -0.6243
18323TIP3    H276385   5.139   5.366   2.234 -0.8749  1.6340  0.5573
18324TIP3   OH276386   5.137   6.304  14.232 -0.4346 -0.1543  0.0851
18324TIP3    H176387   5.086   6.309  14.312 -1.8050 -1.2856 -0.6873
18324TIP3    H276388   5.149   6.396  14.206 -1.0627  0.1710  0.9018
18325TIP3   OH276389   0.571   3.969   0.445  0.2577  0.0322  0.1264
18325TIP3    H176390   0.633   3.997   0.512  0.6953  1.7224 -0.9366
18325TIP3    H276391   0.625   3.931   0.376  0.0613  0.7360 -0.4269
18326TIP3   OH276392   6.086   4.262   3.748  0.0505 -0.0755  0.4078
18326TIP3    H176393   6.159   4.313   3.713  0.6676 -0.7311  0.6950
18326TIP3    H276394   6.010   4.318   3.737  0.5122  0.4316 -0.3637
18327TIP3   OH276395   0.269   5.574   3.609  0.2681  0.1945 -0.0300
18327TIP3    H176396   0.198   5.639   3.610 -0.4071 -0.4668 -1.8619
18327TIP3    H276397   0.337   5.613   3.664 -0.6746  1.7959  0.0790
18328TIP3   OH276398   4.373   0.122   0.467  0.7171 -0.5673 -0.1803
18328TIP3    H176399   4.464   0.101   0.443  1.0022  0.9406 -0.5001
18328TIP3    H276400   4.381   0.197   0.526 -0.3250 -0.5916 -0.0027
18329TIP3   OH276401   1.669   1.797   4.988  0.0429  0.6846 -0.2163
18329TIP3    H176402   1.658   1.744   5.067 -1.6243  2.7360  1.0070
18329TIP3    H276403   1.581   1.814   4.957  0.5559  2.1422 -0.9815
18330TIP3   OH276404   1.499   6.386   5.608  0.4332  0.1174  0.4415
18330TIP3    H176405   1.477   6.395   5.515  0.7728  1.4096  0.4671
18330TIP3    H276406   1.429   6.331   5.644  0.6047 -0.8828 -0.6817
18331TIP3   OH276407   6.202   2.851   1.960  0.4129  1.0810  0.3954
18331TIP3    H176408   6.159   2.904   2.027 -0.6434  1.1585 -0.3240
18331TIP3    H276409   6.294   2.878   1.964  0.1571  1.8960  1.0444
18332TIP3   OH276410   6.703   1.583   3.561 -0.2754 -0.2858 -0.4639
18332TIP3    H176411   6.702   1.671   3.599 -1.7776 -0.6117  0.3574
18332TIP3    H276412   6.690   1.597   3.468 -0.6729  0.3611 -0.3177
18333TIP3   OH276413   3.550   2.645   1.452 -0.6721 -0.1278  0.0538
18333TIP3    H176414   3.520   2.651   1.542 -2.5133  0.5703 -0.5604
18333TIP3    H276415   3.482   2.596   1.406  0.6781 -1.2879 -0.7956
18334TIP3   OH276416   5.277   5.082   4.017  0.0142 -0.6249  0.2705
18334TIP3    H176417   5.342   5.018   4.046 -0.2988 -1.2033 -0.2660
18334TIP3    H276418   5.229   5.105   4.097  0.3829 -0.7695  0.5370
18335TIP3   OH276419   2.452   4.734  16.498 -0.3275  0.3728 -0.0453
18335TIP3    H176420   2.462   4.829  16.503 -0.0167  0.3222  0.3939
18335TIP3    H276421   2.361   4.718  16.523 -0.7979  0.6482 -1.4817
18336TIP3   OH276422   2.198   0.394  13.223  0.0378 -0.3632  0.8400
18336TIP3    H176423   2.194   0.306  13.185 -1.6638  0.4572 -1.0794
18336TIP3    H276424   2.187   0.380  13.317 -0.1308 -2.1921  0.5902
18337TIP3   OH276425   5.650   0.621   6.417 -0.6724  0.5798  0.0457
18337TIP3    H176426   5.711   0.647   6.486 -0.5823 -1.3497  0.7509
18337TIP3    H276427   5.565   0.652   6.448 -0.3880  1.2595  0.1640
18338TIP3   OH276428   3.707   3.256   3.540 -0.4072  0.6914  0.8441
18338TIP3    H176429   3.648   3.240   3.613  0.0180  2.2883  1.5726
18338TIP3    H276430   3.794   3.234   3.573 -0.4554 -0.8892  0.0251
18339TIP3   OH276431   2.993   6.230   4.844  0.2153 -0.0174  0.1782
18339TIP3    H176432   2.972   6.166   4.911 -0.6819 -0.6177 -0.6436
18339TIP3    H276433   3.074   6.198   4.804  0.1213 -0.2852  0.2031
18340TIP3   OH276434   0.036   0.973   2.314 -0.1065 -0.0752  0.1694
18340TIP3    H176435  -0.002   0.915   2.380 -0.6765  0.3993  0.2778
18340TIP3    H276436  -0.023   0.966   2.239  0.4026 -0.4258 -0.2047
18341TIP3   OH276437   4.409   5.947   1.355  0.0029 -0.0097 -0.2430
18341TIP3    H176438   4.349   5.992   1.415 -0.1415  1.7330 -1.6402
18341TIP3    H276439   4.354   5.921   1.281  0.6843  0.2472 -0.8453
18342TIP3   OH276440   2.223   0.616  12.436  0.0108  0.0451 -0.0145
18342TIP3    H176441   2.247   0.658  12.519 -2.1891  0.7784  0.3152
18342TIP3    H276442   2.233   0.522  12.453 -2.6116 -0.0013  1.9573
18343TIP3   OH276443   3.270   0.117  14.317  0.0214 -0.4374  0.1259
18343TIP3    H176444   3.241   0.054  14.382  2.4042 -0.1291  1.5838
18343TIP3    H276445   3.227   0.199  14.342  2.3489  0.1770  2.6628
18344TIP3   OH276446   3.796   1.685  13.136 -0.1824 -0.0486  0.1675
18344TIP3    H176447   3.878   1.637  13.128  0.1098  0.6937 -1.7170
18344TIP3    H276448   3.738   1.625  13.184  0.6288 -1.6651 -0.7842
18345TIP3   OH276449   5.426   2.383   1.444  0.1683  0.3562 -0.8871
18345TIP3    H176450   5.511   2.368   1.485 -0.8691 -1.0360  0.8572
18345TIP3    H276451   5.380   2.441   1.505 -1.4437 -1.8309  0.0638
18346TIP3   OH276452   5.895   3.239   2.313 -0.5502 -0.7580 -0.1074
18346TIP3    H176453   5.801   3.221   2.317 -0.6309 -0.0699  1.5590
18346TIP3    H276454   5.901   3.332   2.293 -0.2645 -0.4159  1.4693
18347TIP3   OH276455   0.064   3.005   5.540 -0.2394 -0.4156 -0.4402
18347TIP3    H176456   0.021   3.089   5.525  0.5964 -0.0469 -0.8463
18347TIP3    H276457   0.119   3.019   5.617  2.0019  0.2875 -2.0470
18348TIP3   OH276458   2.945   4.391  12.021 -0.3451 -0.2556 -0.6070
18348TIP3    H176459   2.962   4.484  12.034  0.3846 -0.2975 -1.2237
18348TIP3    H276460   2.856   4.387  11.988 -0.5722  0.1785 -0.0692
18349TIP3   OH276461   1.241   2.404   2.187  0.0943 -0.1087 -0.0332
18349TIP3    H176462   1.251   2.372   2.097  0.9244 -0.6022  0.2266
18349TIP3    H276463   1.167   2.465   2.182 -0.2277 -0.5497 -0.9359
18350TIP3   OH276464   6.302   3.873  11.704 -0.2655 -0.2137 -0.8614
18350TIP3    H176465   6.274   3.954  11.748 -2.1342  0.0220 -2.3455
18350TIP3    H276466   6.360   3.904  11.634 -1.2413 -0.0578 -1.6405
18351TIP3   OH276467   4.149   0.224   3.629 -0.4250 -0.2078 -0.4482
18351TIP3    H176468   4.204   0.302   3.638 -1.3707  0.2564  2.0359
18351TIP3    H276469   4.068   0.256   3.590 -0.7020  0.0405  0.3033
18352TIP3   OH276470   4.251   1.815   1.932  0.4021 -0.1488  0.4603
18352TIP3    H176471   4.285   1.800   1.844 -2.3574  0.3795 -0.8022
18352TIP3    H276472   4.196   1.739   1.950  1.3163 -0.4995  2.0011
18353TIP3   OH276473   4.058   5.020  16.313 -0.1748  0.1345 -0.0759
18353TIP3    H176474   4.137   4.978  16.277 -0.5809 -2.0965  1.5058
18353TIP3    H276475   3.989   4.997  16.252  0.0795  0.8733 -0.6723
18354TIP3   OH276476   0.880   2.290  14.800  0.2898  0.1597 -0.0917
18354TIP3    H176477   0.818   2.362  14.797  2.2783  2.0095  0.4659
18354TIP3    H276478   0.832   2.215  14.766 -2.5882  1.1590  1.4729
18355TIP3   OH276479   5.989   4.425   4.207 -0.1127  0.2106  0.0584
18355TIP3    H176480   6.010   4.365   4.136 -1.1111  2.8015 -2.6191
18355TIP3    H276481   5.945   4.370   4.272 -0.8211 -1.9909 -2.1306
18356TIP3   OH276482   5.201   2.393  11.849  0.1801 -0.2797  0.0194
18356TIP3    H176483   5.198   2.347  11.933 -1.3403 -0.0631  0.1097
18356TIP3    H276484   5.186   2.485  11.872  2.0560  0.1346 -0.2773
18357TIP3   OH276485   3.579   6.136   5.753  0.0247  0.4248  0.1949
18357TIP3    H176486   3.624   6.211   5.715 -1.1562  1.4596  0.7589
18357TIP3    H276487   3.645   6.067   5.755  0.6014  0.8322 -2.1166
18358TIP3   OH276488   6.446   1.226  15.738 -0.6333  0.4841  0.0516
18358TIP3    H176489   6.366   1.207  15.689 -1.4579 -0.8202  1.7949
18358TIP3    H276490   6.482   1.140  15.759  0.7969  1.0490  0.0022
18359TIP3   OH276491   4.904   6.059  15.724 -0.2823  0.2947 -0.0996
18359TIP3    H176492   4.812   6.084  15.727 -0.2474  1.0599 -2.8225
18359TIP3    H276493   4.903   5.968  15.695 -0.1834 -0.0088  0.8254
18360TIP3   OH276494   6.224   2.612  13.224 -0.2472 -0.1661 -0.4997
18360TIP3    H176495   6.310   2.617  13.182  0.2709  1.2038  0.6732
18360TIP3    H276496   6.199   2.703  13.239 -0.7243 -0.5978  1.5052
18361TIP3   OH276497   0.995   5.229  12.482  0.7692 -0.4198 -0.2277
18361TIP3    H176498   0.958   5.146  12.513 -1.2063 -0.2308 -1.8412
18361TIP3    H276499   1.062   5.204  12.419  0.2327 -0.8257 -0.6500
18362TIP3   OH276500   2.630   2.236   1.689  0.2103  0.4760  0.7023
18362TIP3    H176501   2.552   2.182   1.702  1.0094 -0.6430  1.0174
18362TIP3    H276502   2.651   2.270   1.776  0.8421 -0.3615  0.9035
18363TIP3   OH276503   4.327   5.680   5.466  0.1623 -0.1576  0.2225
18363TIP3    H176504   4.304   5.616   5.399 -0.5019  0.5556 -0.2548
18363TIP3    H276505   4.420   5.698   5.452 -0.1534  0.5868 -1.0473
18364TIP3   OH276506   1.575   2.171  16.065 -0.5598  1.0280 -0.3742
18364TIP3    H176507   1.551   2.244  16.123 -0.7532  0.1027  0.7643
18364TIP3    H276508   1.564   2.093  16.120  1.4402  0.2614 -0.9489
18365TIP3   OH276509   1.031   4.744   2.490  0.3553  0.0173  0.2339
18365TIP3    H176510   0.942   4.757   2.524  0.7701 -1.8182  2.2577
18365TIP3    H276511   1.021   4.749   2.395 -1.6740  1.0678  0.4460
18366TIP3   OH276512   0.665   6.231  16.511  0.0870  0.3673  0.2005
18366TIP3    H176513   0.687   6.172  16.438 -0.3382 -0.6904  0.9019
18366TIP3    H276514   0.729   6.302  16.504 -0.3528  0.6455 -1.5898
18367TIP3   OH276515   2.366   6.631   6.545 -0.2337  0.1487  0.1307
18367TIP3    H176516   2.316   6.560   6.587 -1.7150  1.1332  0.1161
18367TIP3    H276517   2.406   6.679   6.618  0.0661 -0.1932  0.1927
18368TIP3   OH276518   5.574   1.112  11.332 -0.1092  0.0663  0.1824
18368TIP3    H176519   5.646   1.076  11.384  1.2037  0.9037 -0.9571
18368TIP3    H276520   5.502   1.051  11.344  1.4338 -1.9265 -0.2017
18369TIP3   OH276521   5.942   3.116  11.237  0.6217 -0.1048 -0.2357
18369TIP3    H176522   5.909   3.182  11.176 -0.5523 -1.5357 -1.2118
18369TIP3    H276523   6.036   3.131  11.240  0.5312  0.8171 -1.3950
18370TIP3   OH276524   0.403   4.833   0.778  0.0915 -0.0747  0.2796
18370TIP3    H176525   0.416   4.772   0.705  0.8471 -1.2460  1.3412
18370TIP3    H276526   0.485   4.883   0.782  0.0490 -0.0091  0.3271
18371TIP3   OH276527   0.694   2.573   0.485 -0.4831  0.2648 -0.5296
18371TIP3    H176528   0.656   2.617   0.562  0.3759  2.6658 -1.3693
18371TIP3    H276529   0.754   2.508   0.522 -2.4682 -0.8984  0.7924
18372TIP3   OH276530   5.064   0.658   4.763 -0.4539 -0.1367  0.3574
18372TIP3    H176531   5.048   0.722   4.693 -1.1242  1.5296  1.9422
18372TIP3    H276532   5.020   0.696   4.840  1.2423 -1.3026  1.9806
18373TIP3   OH276533   5.356   3.073   3.084 -0.2968  0.4256 -0.1757
18373TIP3    H176534   5.306   3.106   3.010  0.1215  0.6897 -0.3484
18373TIP3    H276535   5.348   3.140   3.151 -1.5191 -0.2773  0.4046
18374TIP3   OH276536   1.598   0.412   3.031 -0.3487 -0.8104  0.4098
18374TIP3    H176537   1.585   0.452   2.945  1.0539 -2.3036 -0.5590
18374TIP3    H276538   1.564   0.324   3.022  2.4145 -1.9755  0.3938
18375TIP3   OH276539   3.052   0.425  12.250 -0.8576 -0.4254 -0.3685
18375TIP3    H176540   3.013   0.368  12.317 -0.4236 -0.8081 -0.4363
18375TIP3    H276541   3.044   0.513  12.286  0.4204 -0.7254  0.7316
18376TIP3   OH276542   5.021   6.633  14.864  0.9297  0.5405  0.0917
18376TIP3    H176543   4.944   6.657  14.916  1.1298  0.9081  0.2223
18376TIP3    H276544   5.086   6.606  14.928 -0.4355 -4.0975 -0.0937
18377TIP3   OH276545   4.759   5.108   4.474  0.3741  0.2868 -0.6219
18377TIP3    H176546   4.809   5.150   4.543 -1.5412 -0.3257  1.2557
18377TIP3    H276547   4.711   5.179   4.432  0.6839  0.5231 -0.5776
18378TIP3   OH276548   3.591   0.724  13.728  0.0163 -0.3447 -0.1773
18378TIP3    H176549   3.558   0.777  13.801  2.2341  3.0777 -1.4234
18378TIP3    H276550   3.537   0.750  13.653 -0.3182 -1.6174 -0.4020
18379TIP3   OH276551   6.634   6.353   0.939 -0.0856  0.4114 -0.6027
18379TIP3    H176552   6.546   6.380   0.912  0.2894  0.6062 -1.6742
18379TIP3    H276553   6.692   6.403   0.882  0.7855  1.5412  1.1791
18380TIP3   OH276554   3.277   0.507   5.069 -0.2201  0.5048  0.0667
18380TIP3    H176555   3.267   0.516   4.975  0.2600  0.9437  0.0490
18380TIP3    H276556   3.269   0.597   5.103 -2.1046  0.1631  0.6312
18381TIP3   OH276557   0.549   1.370   1.905 -0.8864  0.2339 -0.1655
18381TIP3    H176558   0.499   1.450   1.889 -1.6157 -0.0058  0.8028
18381TIP3    H276559   0.482   1.305   1.926 -0.1936 -0.1488  0.9181
18382TIP3   OH276560   4.040   1.572  12.895  0.3006  0.0084  0.2575
18382TIP3    H176561   4.087   1.494  12.924 -0.9434 -0.2493  1.6308
18382TIP3    H276562   3.950   1.543  12.881  0.3389  0.6640 -1.6463
18383TIP3   OH276563   1.624   1.233  15.921  1.0961 -0.0763 -0.2191
18383TIP3    H176564   1.696   1.275  15.874  0.6231  1.2464  0.1959
18383TIP3    H276565   1.546   1.284  15.896  0.4434 -0.9263  0.0346
18384TIP3   OH276566   0.671   0.025   3.864  0.1468  0.3565  0.4928
18384TIP3    H176567   0.592  -0.000   3.912  0.1076 -0.8671 -0.1788
18384TIP3    H276568   0.741   0.021   3.929 -0.1360  0.1681  0.7871
18385TIP3   OH276569   2.797   2.818   0.714 -0.1183 -0.2864 -0.0366
18385TIP3    H176570   2.840   2.737   0.741 -1.1972 -1.5266 -1.8167
18385TIP3    H276571   2.780   2.864   0.796  2.7275 -0.6360  0.8687
18386TIP3   OH276572   1.997   5.334  16.761 -0.1104 -0.2132 -0.5974
18386TIP3    H176573   2.009   5.398  16.830 -1.0642 -0.1974 -0.4355
18386TIP3    H276574   2.003   5.384  16.680 -2.4728  0.4049 -0.4506
18387TIP3   OH276575   6.079   0.674   3.812  0.3728 -0.4670  0.0236
18387TIP3    H176576   6.117   0.614   3.747  0.3127 -0.3528 -0.1182
18387TIP3    H276577   6.015   0.622   3.859 -1.3669  0.0618 -1.6263
18388TIP3   OH276578   3.195   5.927   4.266 -0.0876 -0.1605 -0.4106
18388TIP3    H176579   3.209   5.934   4.360  2.2393 -0.9982 -0.6406
18388TIP3    H276580   3.100   5.938   4.255 -0.8270 -2.5141  2.2792
18389TIP3   OH276581   4.944   0.579   2.496 -0.2069  0.1531 -0.0304
18389TIP3    H176582   4.969   0.600   2.586 -0.7618  1.4372 -0.1570
18389TIP3    H276583   4.850   0.597   2.492 -0.0985  0.5759 -0.9847
18390TIP3   OH276584   2.356   6.637  13.451  0.3487 -0.0385  0.1597
18390TIP3    H176585   2.451   6.637  13.442  0.5252 -1.0872  1.7156
18390TIP3    H276586   2.337   6.713  13.507  0.1827  0.5898 -0.7269
18391TIP3   OH276587   3.474   1.521  11.239 -0.7130 -0.0383  0.3939
18391TIP3    H176588   3.506   1.459  11.174 -0.7218 -0.1176  0.4638
18391TIP3    H276589   3.529   1.598  11.228 -0.2815 -0.2925  0.7293
18392TIP3   OH276590   5.801   2.334  14.271  0.2106 -0.2844  0.0167
18392TIP3    H176591   5.853   2.393  14.217  0.1701  0.3854  0.6914
18392TIP3    H276592   5.798   2.252  14.222 -0.4424  0.5206 -1.3374
18393TIP3   OH276593   5.164   5.740   5.698  0.4708  0.7103 -0.2936
18393TIP3    H176594   5.098   5.772   5.636 -0.7049 -0.9452  0.0406
18393TIP3    H276595   5.235   5.708   5.643  0.1892  0.8218 -0.7292
18394TIP3   OH276596   4.346   4.060  13.667  0.0468  0.2409 -0.4127
18394TIP3    H176597   4.430   4.105  13.666  1.1585 -1.4890  2.2296
18394TIP3    H276598   4.307   4.083  13.752 -0.6265 -1.4961 -0.2021
18395TIP3   OH276599   5.243   6.017   4.048  0.1813 -0.0043 -0.1209
18395TIP3    H176600   5.308   5.996   3.981 -0.9694  1.6466 -1.8670
18395TIP3    H276601   5.166   5.967   4.023  0.9064 -2.7281  2.4909
18396TIP3   OH276602   6.056   3.833   6.201  0.4754 -0.3753 -0.1628
18396TIP3    H176603   6.001   3.855   6.276  1.7269 -0.9016  0.9579
18396TIP3    H276604   6.022   3.887   6.129 -1.0263 -0.1794  0.6631
18397TIP3   OH276605   3.560   3.284   0.395  0.6151  0.9455  0.3812
18397TIP3    H176606   3.534   3.291   0.303 -2.0808 -0.0519  0.9837
18397TIP3    H276607   3.606   3.366   0.413 -1.2703  2.4271 -1.1303
18398TIP3   OH276608   2.199   0.748  14.355 -0.6187 -0.3932  0.3898
18398TIP3    H176609   2.205   0.668  14.407 -1.1839 -0.8068 -0.1769
18398TIP3    H276610   2.278   0.796  14.377 -0.3851 -0.9992  0.9115
18399TIP3   OH276611   6.158   4.640   0.001  0.4555  0.3043 -0.0661
18399TIP3    H176612   6.173   4.587  -0.078 -0.4788 -0.7979  0.4513
18399TIP3    H276613   6.244   4.651   0.040  0.9358  0.8964 -1.2540
18400TIP3   OH276614   0.416   3.621   4.312  0.4278  0.3344  0.4971
18400TIP3    H176615   0.350   3.660   4.369  0.6276 -0.7905  1.5606
18400TIP3    H276616   0.410   3.670   4.230 -0.8772  1.0444  0.9885
18401TIP3   OH276617   5.776   1.331  17.014 -0.0626  0.1166 -0.1121
18401TIP3    H176618   5.701   1.282  16.980 -1.3317  0.0352  2.5686
18401TIP3    H276619   5.744   1.421  17.022  0.6790  0.4195 -0.4859
18402TIP3   OH276620   0.296   4.890  17.318 -0.2561  0.0774  0.0900
18402TIP3    H176621   0.242   4.829  17.268 -0.5157  0.3614  0.0223
18402TIP3    H276622   0.386   4.865  17.297 -0.3606  0.2927 -0.6454
18403TIP3   OH276623   2.770   0.560   1.147 -0.3493 -0.0003 -0.0218
18403TIP3    H176624   2.709   0.576   1.076 -2.7641 -0.5559  1.7886
18403TIP3    H276625   2.733   0.485   1.195  0.8342  0.6935  2.1415
18404TIP3   OH276626   6.300   0.891  15.727  0.0336 -0.3206 -0.0703
18404TIP3    H176627   6.226   0.942  15.693 -0.4556  0.4691  2.0550
18404TIP3    H276628   6.314   0.823  15.661 -2.5840 -0.4781 -0.5729
18405TIP3   OH276629   3.904   4.590  14.170 -0.3640  0.4212  0.2602
18405TIP3    H176630   3.871   4.655  14.108  1.5427  0.1279 -1.1502
18405TIP3    H276631   3.999   4.597  14.163 -0.1045 -1.9778  0.6195
18406TIP3   OH276632   1.108   2.279  14.654  0.3425 -0.7042  0.1860
18406TIP3    H176633   1.180   2.304  14.712 -0.4974  1.6807  0.3397
18406TIP3    H276634   1.029   2.293  14.706 -0.3579  0.0259 -1.0248
18407TIP3   OH276635   1.906   0.081  13.251 -0.3733  0.4665 -0.2680
18407TIP3    H176636   1.974   0.090  13.319  0.7948  0.1595 -1.3605
18407TIP3    H276637   1.911  -0.010  13.223 -1.1936  0.4603 -0.4315
18408TIP3   OH276638   6.272   4.831  15.790 -1.0867  0.0806  0.2563
18408TIP3    H176639   6.335   4.813  15.860  0.1270 -1.2160 -1.1081
18408TIP3    H276640   6.210   4.758  15.795  0.2279 -1.1998 -1.3160
18409TIP3   OH276641   1.433   1.034  16.506 -0.5534 -0.1037  0.8141
18409TIP3    H176642   1.499   1.102  16.489 -1.0088  0.2979  0.6402
18409TIP3    H276643   1.353   1.083  16.527 -1.2779 -0.5660 -0.7259
18410TIP3   OH276644   2.104   0.814   2.800  0.0822  0.5275  0.0954
18410TIP3    H176645   2.156   0.781   2.727 -1.5003  0.6397 -1.1302
18410TIP3    H276646   2.136   0.765   2.876  0.1046 -1.3696 -1.0698
18411TIP3   OH276647   5.871   2.851   3.159 -0.5549 -0.2524  0.0766
18411TIP3    H176648   5.805   2.783   3.152  0.2553 -1.1200  0.6291
18411TIP3    H276649   5.852   2.912   3.087 -1.3558 -0.9988 -0.3475
18412TIP3   OH276650   3.816   0.361  13.894 -0.0288  0.3811  0.1633
18412TIP3    H176651   3.838   0.384  13.804  0.0302 -0.7777 -0.1308
18412TIP3    H276652   3.737   0.412  13.913 -1.0218 -0.6171 -1.1288
18413TIP3   OH276653   4.782   0.467   2.908  0.4753 -0.2304 -0.0374
18413TIP3    H176654   4.842   0.484   2.980 -0.3804  0.9775  0.4161
18413TIP3    H276655   4.808   0.381   2.875  0.9556 -0.7468  1.6274
18414TIP3   OH276656   5.121   5.375  15.085  0.0254  0.4201  0.0420
18414TIP3    H176657   5.040   5.335  15.052  1.1423 -2.2560  0.3089
18414TIP3    H276658   5.098   5.404  15.174 -0.5455 -0.7711  0.3127
18415TIP3   OH276659   6.321   4.104   4.139  0.6842 -0.4231 -0.7455
18415TIP3    H176660   6.230   4.097   4.166  1.1215  0.6457  1.1725
18415TIP3    H276661   6.361   4.164   4.202  2.6984 -0.7689 -1.5965
18416TIP3   OH276662   4.227   0.108  14.771  0.1300 -0.5813  0.4152
18416TIP3    H176663   4.179   0.068  14.699 -0.1904  0.3019  0.1316
18416TIP3    H276664   4.318   0.112  14.741  0.3835 -2.1072  0.8891
18417TIP3   OH276665   0.051   5.861  13.346  1.1823 -0.4466  0.0090
18417TIP3    H176666   0.043   5.957  13.344  0.2932 -0.5280 -1.3432
18417TIP3    H276667   0.140   5.846  13.376  1.5102  0.8326 -0.2381
18418TIP3   OH276668   0.434   3.313  11.615  0.0221 -0.1377  0.6438
18418TIP3    H176669   0.501   3.262  11.569  0.7573  0.8432  0.5787
18418TIP3    H276670   0.456   3.302  11.708 -0.2410 -0.4886  0.6676
18419TIP3   OH276671   2.474   5.971   6.429  0.2379 -0.2019 -0.0867
18419TIP3    H176672   2.415   6.034   6.388  0.3285  0.4699  0.7941
18419TIP3    H276673   2.431   5.946   6.511  1.7810  1.4271  1.3234
18420TIP3   OH276674   6.411   1.057  17.241  0.2147  0.0660 -0.3612
18420TIP3    H176675   6.430   1.046  17.148 -0.1497  0.2275 -0.4569
18420TIP3    H276676   6.423   0.970  17.279 -0.9901 -0.3118 -0.8005
18421TIP3   OH276677   2.027   1.027   3.486  0.2107 -0.3717 -0.0387
18421TIP3    H176678   2.009   0.936   3.510  1.5164 -0.8861 -0.9227
18421TIP3    H276679   2.100   1.053   3.543 -0.9184  0.5499  1.0599
18422TIP3   OH276680   2.533   0.368  15.133  1.3768  0.0499  0.4252
18422TIP3    H176681   2.437   0.369  15.137  1.4035  0.4435  1.1733
18422TIP3    H276682   2.556   0.276  15.143  1.0632 -0.1175 -0.3241
18423TIP3   OH276683   6.170   5.467  13.065  0.0803 -0.4313 -0.6397
18423TIP3    H176684   6.126   5.486  13.148  2.5590 -3.2318  1.5153
18423TIP3    H276685   6.211   5.550  13.040 -1.5833  0.7372  0.3233
18424TIP3   OH276686   2.691   5.118   1.841 -0.0908  0.3367  0.0078
18424TIP3    H176687   2.647   5.181   1.898  0.5425  0.5521  0.2703
18424TIP3    H276688   2.624   5.053   1.819 -0.5278  0.6543  0.4062
18425TIP3   OH276689   4.170   3.518   5.421  0.2320  0.7324 -0.1787
18425TIP3    H176690   4.143   3.573   5.348 -0.3888 -1.9344 -2.0769
18425TIP3    H276691   4.234   3.571   5.468 -0.0698  2.9229 -2.0687
18426TIP3   OH276692   5.723   3.290   4.569 -0.7286  0.4275 -0.1085
18426TIP3    H176693   5.728   3.368   4.624  0.5755  0.4427 -0.2198
18426TIP3    H276694   5.641   3.301   4.519 -0.7328  1.5562  0.1149
18427TIP3   OH276695   1.645   5.802   5.673 -0.3260 -0.3369  0.2996
18427TIP3    H176696   1.721   5.861   5.670 -1.0503  0.6664  0.9011
18427TIP3    H276697   1.677   5.720   5.636  1.1434 -0.0373  0.8238
18428TIP3   OH276698   4.447   1.885   3.539 -0.3188  0.1582 -0.1259
18428TIP3    H176699   4.524   1.942   3.535 -0.2559  0.0256 -1.0413
18428TIP3    H276700   4.413   1.884   3.450  0.8758 -2.8522 -0.6508
18429TIP3   OH276701   3.678   2.153  10.916 -0.3081 -0.2113 -0.2070
18429TIP3    H176702   3.630   2.092  10.973 -1.5827  0.1721 -0.8305
18429TIP3    H276703   3.637   2.238  10.933 -1.4114 -0.2337 -2.3598
18430TIP3   OH276704   0.368   6.737   6.199  0.4556  0.1297 -0.0434
18430TIP3    H176705   0.450   6.757   6.154 -0.1633 -0.7539 -1.6465
18430TIP3    H276706   0.304   6.796   6.160 -0.1787 -0.9258 -0.6348
18431TIP3   OH276707   4.865   0.869  16.705  0.1000  0.0465 -0.8419
18431TIP3    H176708   4.829   0.785  16.676  0.4155 -0.3415 -0.1635
18431TIP3    H276709   4.918   0.899  16.632  0.0406 -0.3878 -1.0675
18432TIP3   OH276710   5.569   6.730   4.498 -0.2414 -0.3582  0.3040
18432TIP3    H176711   5.516   6.723   4.577 -1.5707 -0.6510 -0.5892
18432TIP3    H276712   5.648   6.776   4.526 -2.7120  4.1076  0.9063
18433TIP3   OH276713   1.685   2.116  14.128 -0.7870 -0.1711  0.1892
18433TIP3    H176714   1.713   2.180  14.193 -1.5928 -1.5821  2.0202
18433TIP3    H276715   1.609   2.155  14.086 -0.1026  0.8665 -0.1092
18434TIP3   OH276716   1.532   2.077  10.613  0.6142 -0.4881  0.1496
18434TIP3    H176717   1.478   2.083  10.534  0.9396  0.3147 -0.0174
18434TIP3    H276718   1.606   2.135  10.596  0.7649 -0.4291  0.9822
18435TIP3   OH276719   2.417   6.151  10.635 -0.1538  0.1472  0.1523
18435TIP3    H176720   2.350   6.083  10.638 -2.6401  2.4543  1.2168
18435TIP3    H276721   2.492   6.113  10.680 -1.5035 -1.8336  0.8533
18436TIP3   OH276722   1.706   1.129  15.632 -0.3438 -0.2427  0.4468
18436TIP3    H176723   1.726   1.082  15.551 -0.4929 -1.7057  1.2176
18436TIP3    H276724   1.611   1.120  15.643 -0.8350  2.5266 -0.7094
18437TIP3   OH276725   3.976   4.722  14.820  0.3865 -1.2010 -0.5234
18437TIP3    H176726   3.936   4.636  14.835 -0.3047 -0.3649  3.4224
18437TIP3    H276727   3.911   4.785  14.851  1.4606  0.7197 -1.9209
18438TIP3   OH276728   2.972   4.549   0.244 -0.5242 -0.0324 -0.0870
18438TIP3    H176729   2.903   4.505   0.194 -1.1550 -1.3807  1.8349
18438TIP3    H276730   3.051   4.499   0.224  0.2002  2.0602 -2.9994
18439TIP3   OH276731   4.867   1.721  12.419  0.6040 -0.2189  0.4510
18439TIP3    H176732   4.786   1.766  12.441 -0.1601 -1.3386 -0.0222
18439TIP3    H276733   4.854   1.631  12.448  0.7491 -0.9858 -1.6556
18440TIP3   OH276734   4.221   5.092  12.199 -0.1799 -0.1711 -0.2576
18440TIP3    H176735   4.243   5.125  12.287  0.5047 -0.9012 -0.1355
18440TIP3    H276736   4.127   5.106  12.191 -0.2874 -0.2515  0.6749
18441TIP3   OH276737   2.416   5.863   5.256  0.7560  0.4555  0.0990
18441TIP3    H176738   2.360   5.925   5.305  1.1380  0.2835  0.7691
18441TIP3    H276739   2.473   5.919   5.204 -1.1052  0.6335 -1.8796
18442TIP3   OH276740   0.203   3.892  15.189 -0.1844  0.4557 -0.0793
18442TIP3    H176741   0.240   3.919  15.105  1.0823 -2.4266 -0.5852
18442TIP3    H276742   0.280   3.874  15.243 -0.9188 -1.0626  0.5012
18443TIP3   OH276743   6.037   1.163   3.938 -0.0057 -0.6649  0.5137
18443TIP3    H176744   5.947   1.194   3.931  0.1188 -0.4854 -0.4637
18443TIP3    H276745   6.080   1.196   3.859  0.9907 -0.5169  1.0922
18444TIP3   OH276746   6.370   2.368  16.960 -0.0936  0.0877 -0.1719
18444TIP3    H176747   6.279   2.396  16.955  0.7591  3.0902 -1.0759
18444TIP3    H276748   6.394   2.379  17.052 -0.6319 -0.8133  0.0879
18445TIP3   OH276749   6.127   4.280   5.291 -0.1536  0.3894 -0.2467
18445TIP3    H176750   6.154   4.289   5.199  0.1844  0.6721 -0.1211
18445TIP3    H276751   6.176   4.204   5.323  2.0569  2.0151  0.5258
18446TIP3   OH276752   4.080   4.272  14.424 -0.0158  0.6422 -0.3562
18446TIP3    H176753   4.017   4.289  14.353 -0.7256 -1.0703 -0.1906
18446TIP3    H276754   4.153   4.227  14.381 -1.0766 -1.7187  0.1172
18447TIP3   OH276755   5.748   3.607   2.478 -0.0011 -0.0221  0.2494
18447TIP3    H176756   5.673   3.553   2.500 -0.2230  0.5111  0.8501
18447TIP3    H276757   5.745   3.679   2.541  0.9114  0.1024  0.1677
18448TIP3   OH276758   4.223   5.336   2.612  0.3319 -0.3780  0.4001
18448TIP3    H176759   4.191   5.373   2.530 -0.5007 -0.1567  0.8081
18448TIP3    H276760   4.178   5.386   2.680 -0.8426 -2.1257  0.9812
18449TIP3   OH276761   5.862   3.939  13.677  0.3139  0.0604  0.0324
18449TIP3    H176762   5.860   3.948  13.582 -0.9543 -1.0199 -0.0695
18449TIP3    H276763   5.772   3.915  13.701  0.7368 -0.2115  1.4412
18450TIP3   OH276764   6.208   0.094  14.963 -0.2807  0.3996  0.2075
18450TIP3    H176765   6.128   0.142  14.942  0.0191  0.3947 -1.0045
18450TIP3    H276766   6.237   0.130  15.046  0.2956  2.8324 -0.9695
18451TIP3   OH276767   1.684   0.086  16.251  0.2573  0.3672  0.1714
18451TIP3    H176768   1.669   0.014  16.190 -0.2432  0.9208 -0.3764
18451TIP3    H276769   1.597   0.107  16.285  0.3173  1.0656 -0.0855
18452TIP3   OH276770   2.267   1.990  13.520 -0.5016  0.3656 -0.4113
18452TIP3    H176771   2.345   2.036  13.552 -0.1720 -0.4689  0.0164
18452TIP3    H276772   2.301   1.912  13.477 -1.0880  0.1973 -0.5777
18453TIP3   OH276773   3.078   1.837   5.295  0.6035  0.8621 -0.5091
18453TIP3    H176774   3.023   1.829   5.372  1.3693 -0.9885 -0.0815
18453TIP3    H276775   3.167   1.825   5.328  1.0848  1.7182 -1.4550
18454TIP3   OH276776   4.330   0.279  16.846 -0.4680 -0.6397 -0.6526
18454TIP3    H176777   4.396   0.303  16.781  1.3851 -0.8419  1.0320
18454TIP3    H276778   4.275   0.214  16.802  0.1387 -0.1072 -2.2768
18455TIP3   OH276779   0.738   3.092   1.351  0.4859 -0.5949  0.0541
18455TIP3    H176780   0.726   3.146   1.429  2.3110 -1.7574  1.2151
18455TIP3    H276781   0.712   3.004   1.378  2.4369 -1.2857 -0.1751
18456TIP3   OH276782   6.065   1.553  11.689  0.3676  0.0267 -0.0732
18456TIP3    H176783   6.081   1.546  11.783  1.6376 -0.4951 -0.3071
18456TIP3    H276784   6.151   1.575  11.651  0.1670 -1.0176 -1.2214
18457TIP3   OH276785   3.017   1.420  17.074 -0.0064 -0.4611  0.0103
18457TIP3    H176786   3.067   1.488  17.028 -0.8613  0.7514  0.8154
18457TIP3    H276787   2.940   1.406  17.019  0.1993 -0.8202 -0.1842
18458TIP3   OH276788   6.494   1.368  15.407 -0.0212 -0.5059 -0.0258
18458TIP3    H176789   6.450   1.309  15.346  0.1757  0.9779 -1.6773
18458TIP3    H276790   6.566   1.316  15.443 -1.0254 -1.8689  0.0832
18459TIP3   OH276791   4.579   2.787   0.716  0.0882 -0.6938  0.2940
18459TIP3    H176792   4.532   2.789   0.632  1.1099  3.3908 -0.3908
18459TIP3    H276793   4.518   2.828   0.777  1.2751  1.2497  0.2384
18460TIP3   OH276794   6.150   4.508  13.537  0.1020 -0.6751  0.6133
18460TIP3    H176795   6.190   4.590  13.508 -1.7716  0.0960  0.0782
18460TIP3    H276796   6.159   4.509  13.632  1.3884 -0.5707  0.5064
18461TIP3   OH276797   0.269   4.312   4.086  0.0293 -0.2132 -0.0896
18461TIP3    H176798   0.310   4.397   4.100 -0.3400 -0.0579  0.0687
18461TIP3    H276799   0.285   4.293   3.993  1.5593 -0.7515  0.2553
18462TIP3   OH276800   6.700   6.737  13.758 -0.4319  0.3010  0.4009
18462TIP3    H176801   6.693   6.669  13.691  0.7341  0.2998  0.2464
18462TIP3    H276802   6.764   6.703  13.820  1.3388  1.8407 -0.4797
18463TIP3   OH276803   4.675   0.248  14.218 -0.0437 -0.0676  0.2115
18463TIP3    H176804   4.748   0.235  14.158 -0.2469  0.9456 -0.2765
18463TIP3    H276805   4.602   0.202  14.177 -0.0988  0.3458 -0.1591
18464TIP3   OH276806   3.881   2.300  11.112 -0.1613  0.0311 -0.8171
18464TIP3    H176807   3.867   2.364  11.043  0.7248  0.1523 -0.8926
18464TIP3    H276808   3.796   2.258  11.124 -0.2702 -0.1586 -2.1432
18465TIP3   OH276809   5.670   4.584   3.422  0.2245  0.2093  0.1183
18465TIP3    H176810   5.636   4.544   3.341  2.4169 -1.1444 -0.2116
18465TIP3    H276811   5.592   4.615   3.467 -1.4000 -2.0142 -0.9290
18466TIP3   OH276812   2.211   4.285  17.073 -0.0488 -0.4830 -0.1940
18466TIP3    H176813   2.208   4.377  17.099 -0.4189 -1.0033  1.7882
18466TIP3    H276814   2.300   4.257  17.095 -0.3005 -0.8824  0.3343
18467TIP3   OH276815   6.060   4.106  16.294 -0.5560  0.2100 -0.4218
18467TIP3    H176816   5.967   4.083  16.292 -0.4882 -0.0689 -0.3565
18467TIP3    H276817   6.072   4.147  16.380 -0.9116  1.4932 -0.9577
18468TIP3   OH276818   5.557   1.851  15.564 -0.5030 -0.6153  0.0960
18468TIP3    H176819   5.510   1.888  15.639 -0.6832  1.6217 -1.0527
18468TIP3    H276820   5.514   1.767  15.549 -0.4504 -1.1396  2.4690
18469TIP3   OH276821   3.269   3.582   0.629 -0.5758  0.3000 -0.1797
18469TIP3    H176822   3.349   3.543   0.664 -0.1694  1.6071  0.4495
18469TIP3    H276823   3.219   3.509   0.595  1.9322 -0.3638 -2.8156
18470TIP3   OH276824   2.414   0.174  14.406  0.1353 -0.5297  0.0539
18470TIP3    H176825   2.319   0.187  14.414  0.3046 -0.4846  3.4456
18470TIP3    H276826   2.452   0.245  14.457  1.8704 -1.8285  0.6542
18471TIP3   OH276827   2.759   5.316  10.775 -0.3105  0.1227 -0.2060
18471TIP3    H176828   2.827   5.381  10.794 -0.6085  0.0755  1.1068
18471TIP3    H276829   2.715   5.302  10.859 -2.6706  0.9527 -1.1883
18472TIP3   OH276830   0.068   6.506   0.780 -0.1611  0.4324 -0.4770
18472TIP3    H176831   0.153   6.511   0.825 -0.0514  1.0270 -0.7333
18472TIP3    H276832   0.034   6.595   0.784 -1.8387 -0.2398  1.6098
18473TIP3   OH276833   2.959   5.544   2.420 -0.4006 -0.1814  0.0190
18473TIP3    H176834   2.964   5.501   2.335 -1.7641  0.4149 -0.3900
18473TIP3    H276835   2.874   5.518   2.456 -0.8305  1.3315  0.1928
18474TIP3   OH276836   0.540   0.888  14.622  0.5695 -0.0973  0.1009
18474TIP3    H176837   0.568   0.810  14.669 -0.1776 -0.6756 -0.4072
18474TIP3    H276838   0.613   0.949  14.632  0.6590 -0.4067  1.5227
18475TIP3   OH276839   3.246   0.987  15.827 -0.3449 -0.2632  0.7379
18475TIP3    H176840   3.153   1.005  15.836  0.3338  3.5867  2.2367
18475TIP3    H276841   3.284   1.017  15.910  2.4802  0.9338 -0.8477
18476TIP3   OH276842   1.221   2.141   6.820 -0.5174  0.3230  0.0207
18476TIP3    H176843   1.275   2.068   6.789 -0.6096  0.5715 -0.7449
18476TIP3    H276844   1.212   2.198   6.744  0.9572  2.0164  1.0073
18477TIP3   OH276845   1.337   1.266  16.407 -0.2576 -0.0984 -0.0861
18477TIP3    H176846   1.301   1.299  16.490  0.2225  0.9890 -0.2996
18477TIP3    H276847   1.425   1.303  16.403 -0.8447  1.2244 -1.8428
18478TIP3   OH276848   4.037   1.205  11.435 -0.0569  0.2306 -0.2223
18478TIP3    H176849   4.087   1.271  11.386 -0.7663  0.8106 -0.1878
18478TIP3    H276850   3.969   1.177  11.373  0.4560 -0.7501 -0.3652
18479TIP3   OH276851   6.554   3.080   0.222 -0.3341 -0.3616  0.4473
18479TIP3    H176852   6.606   3.154   0.191 -0.8716 -0.9480 -2.0422
18479TIP3    H276853   6.465   3.113   0.227 -0.1376  0.0109  2.5431
18480TIP3   OH276854   3.660   2.852   5.376 -0.1019 -0.1540 -0.4617
18480TIP3    H176855   3.594   2.836   5.309 -0.9640  0.2789  0.2729
18480TIP3    H276856   3.613   2.895   5.447  0.9137 -0.0853  0.1902
18481TIP3   OH276857   6.035   2.523  15.459 -0.2451 -0.6954  0.0525
18481TIP3    H176858   5.981   2.564  15.526 -0.4265 -0.1113 -0.4325
18481TIP3    H276859   6.077   2.597  15.414 -1.1772 -0.9723 -1.3429
18482TIP3   OH276860   5.369   4.316   3.027  0.3902 -0.0478 -0.1815
18482TIP3    H176861   5.394   4.388   3.085  0.2477  0.5987 -0.9074
18482TIP3    H276862   5.277   4.334   3.006  0.9500  0.8220 -2.1323
18483TIP3   OH276863   4.679   1.559   2.967 -0.3072 -0.0092 -0.3275
18483TIP3    H176864   4.722   1.481   3.003 -0.2629  0.4368  0.6052
18483TIP3    H276865   4.745   1.600   2.912  0.0855  0.0410  0.1766
18484TIP3   OH276866   3.627   5.514   5.628 -0.3694  0.4159  0.0699
18484TIP3    H176867   3.702   5.550   5.676  0.1631  0.0023 -0.4357
18484TIP3    H276868   3.628   5.561   5.545 -1.8105  1.7601  0.7567
18485TIP3   OH276869   0.251   5.652  12.399  0.1908  0.5287 -0.1107
18485TIP3    H176870   0.280   5.561  12.402 -1.5847 -0.0580  0.9448
18485TIP3    H276871   0.308   5.693  12.334  2.0434 -0.9382  0.4927
18486TIP3   OH276872   4.519   0.895   4.719  0.1552 -0.5029  0.0196
18486TIP3    H176873   4.553   0.941   4.795  0.7041  2.4763 -1.8838
18486TIP3    H276874   4.440   0.943   4.694  1.1671  0.0224 -2.5062
18487TIP3   OH276875   3.453   0.682  15.590 -0.2028 -0.0094  0.3651
18487TIP3    H176876   3.505   0.614  15.547  1.1031  2.2770 -1.9321
18487TIP3    H276877   3.390   0.709  15.524  0.0296  1.7398  0.8070
18488TIP3   OH276878   4.143   3.162  16.935 -0.4692  0.0076  0.1532
18488TIP3    H176879   4.210   3.106  16.973 -1.2053 -1.0564 -0.0753
18488TIP3    H276880   4.145   3.142  16.841  0.5984  1.8220 -0.2684
18489TIP3   OH276881   6.733   6.557   1.657  0.1318  0.7487  0.0180
18489TIP3    H176882   6.748   6.464   1.643 -0.0652  0.4475  1.5401
18489TIP3    H276883   6.670   6.582   1.590 -0.7127 -0.5059  0.3050
18490TIP3   OH276884   5.683   3.545  16.681 -0.6378  0.0231 -0.2595
18490TIP3    H176885   5.620   3.525  16.750 -1.0633  1.5180 -0.1623
18490TIP3    H276886   5.674   3.640  16.669  1.1239  0.1518 -0.7213
18491TIP3   OH276887   6.690   0.061   0.243  0.1346 -0.3700 -0.3230
18491TIP3    H176888   6.627   0.000   0.203  0.1314 -0.8810  0.4441
18491TIP3    H276889   6.772   0.012   0.246  0.5494  0.2402 -1.1763
18492TIP3   OH276890   4.913   4.919  16.163 -0.0892  0.2856 -0.0636
18492TIP3    H176891   4.899   4.974  16.240  0.6394 -0.8839  0.9520
18492TIP3    H276892   4.884   4.832  16.190  0.3293 -0.1877 -1.0611
18493TIP3   OH276893   4.184   3.725   1.334 -0.0563  0.0568 -0.0534
18493TIP3    H176894   4.091   3.716   1.356 -0.0966  0.5158 -0.0156
18493TIP3    H276895   4.221   3.637   1.346 -0.1684  0.1799  1.4026
18494TIP3   OH276896   0.828   0.080  13.891 -0.0062 -0.5761  0.5625
18494TIP3    H176897   0.905   0.083  13.834  0.2759  0.8466  0.9788
18494TIP3    H276898   0.828  -0.009  13.926  1.8389 -0.4280  1.0617
18495TIP3   OH276899   5.309   4.033   4.443  0.2513  0.0903 -0.2837
18495TIP3    H176900   5.323   3.943   4.413  4.1586  0.2532  0.4126
18495TIP3    H276901   5.349   4.035   4.530 -1.4831  2.0744  0.5355
18496TIP3   OH276902   1.329   5.163   5.443 -0.2302 -0.1024  0.0942
18496TIP3    H176903   1.243   5.204   5.430 -0.0311 -0.1911 -1.8553
18496TIP3    H276904   1.309   5.070   5.454 -0.4150 -0.0707  0.0322
18497TIP3   OH276905   3.204   1.968  12.972  0.6106 -0.2555 -0.8749
18497TIP3    H176906   3.280   2.019  13.001  1.0533 -1.1846 -0.3109
18497TIP3    H276907   3.150   1.959  13.051  0.3517 -0.3198 -1.0607
18498TIP3   OH276908   2.595   6.007   2.189  0.8223 -0.7400  0.0978
18498TIP3    H176909   2.507   5.973   2.204  0.4155  0.5801  0.9010
18498TIP3    H276910   2.589   6.100   2.210  2.0367 -0.2860 -1.3533
18499TIP3   OH276911   3.633   4.461   3.040 -0.3741 -0.1030  0.2812
18499TIP3    H176912   3.641   4.511   2.959  0.1720 -0.7188 -0.0598
18499TIP3    H276913   3.621   4.371   3.011  0.1488 -0.3727  0.8846
18500TIP3   OH276914   5.530   0.406  15.336 -0.0755 -0.4465 -0.6570
18500TIP3    H176915   5.502   0.357  15.258 -0.5978 -2.5451  0.7787
18500TIP3    H276916   5.448   0.435  15.376  0.0834 -0.9797  0.0780
18501TIP3   OH276917   4.000   3.607   0.809  0.0310  0.4363  0.3968
18501TIP3    H176918   4.072   3.668   0.790  0.5264 -0.2633 -0.0157
18501TIP3    H276919   4.027   3.562   0.889  1.0971 -1.3463 -0.8939
18502TIP3   OH276920   2.724   3.569  14.762 -0.6076  0.2362  0.1749
18502TIP3    H176921   2.683   3.516  14.830 -0.1896  0.1231  0.3383
18502TIP3    H276922   2.691   3.532  14.680 -2.1251  1.1728  0.3115
18503TIP3   OH276923   1.509   2.474  13.431 -0.1768  0.3298 -0.1314
18503TIP3    H176924   1.575   2.405  13.441 -0.6779 -0.0130  1.1919
18503TIP3    H276925   1.426   2.429  13.450 -0.5566  1.1900  0.3205
18504TIP3   OH276926   5.096   5.760  11.239  0.0227 -0.2947  0.2039
18504TIP3    H176927   5.133   5.675  11.265  0.5579  0.1245  0.8377
18504TIP3    H276928   5.132   5.822  11.303  0.7474  0.6385 -1.0643
18505TIP3   OH276929   6.753   1.048  11.353 -0.2184  0.3515  0.6535
18505TIP3    H176930   6.822   1.097  11.307 -0.6460 -0.6732 -1.2028
18505TIP3    H276931   6.712   1.112  11.410  1.8730  1.1361  1.3755
18506TIP3   OH276932   3.478   4.951   0.016 -0.2497  0.1244  0.1892
18506TIP3    H176933   3.540   4.878   0.020 -0.1975  0.1072 -0.7868
18506TIP3    H276934   3.531   5.026  -0.014 -0.4899  0.3498  0.3272
18507TIP3   OH276935   5.252   5.647  17.256  0.3491  0.7248  0.5605
18507TIP3    H176936   5.222   5.684  17.173  0.1422 -0.8211 -0.0805
18507TIP3    H276937   5.172   5.635  17.308  0.0983 -0.9766 -0.1531
18508TIP3   OH276938   5.204   4.059  15.191  0.6078  0.4070  0.3733
18508TIP3    H176939   5.271   4.002  15.230 -0.4769 -0.7484  0.5875
18508TIP3    H276940   5.154   4.092  15.266  0.3140  0.4717  0.1499
18509TIP3   OH276941   6.328   1.337   3.050 -0.0422  0.1219 -0.0832
18509TIP3    H176942   6.249   1.383   3.023  0.2654 -0.2688 -1.7597
18509TIP3    H276943   6.400   1.395   3.022  0.2962 -0.3124 -0.1163
18510TIP3   OH276944   1.883   3.310   6.217 -0.0741 -0.5202  0.7977
18510TIP3    H176945   1.796   3.348   6.207  0.2802  0.0347 -0.3322
18510TIP3    H276946   1.867   3.216   6.226 -0.8267 -0.3445  1.3893
18511TIP3   OH276947   0.642   6.186  14.640  0.4471  0.6265 -0.5697
18511TIP3    H176948   0.557   6.143  14.639  1.3439 -1.4350  1.8061
18511TIP3    H276949   0.668   6.191  14.547 -1.9736  0.8780 -1.2977
18512TIP3   OH276950   4.429   5.553  11.335 -0.0937  0.1383  0.3099
18512TIP3    H176951   4.488   5.537  11.409 -0.0400  0.3996  0.3226
18512TIP3    H276952   4.484   5.590  11.267  0.9548 -4.3620 -1.6881
18513TIP3   OH276953   2.920   4.435  12.922 -0.0381  0.4095  0.1727
18513TIP3    H176954   2.982   4.461  12.853  0.6826  0.0701  0.6731
18513TIP3    H276955   2.911   4.514  12.976 -0.4186  0.6038 -0.1711
18514TIP3   OH276956   0.022   2.471   5.684 -0.4225  0.3608  0.6185
18514TIP3    H176957  -0.034   2.476   5.761 -0.2729  1.8552  0.6528
18514TIP3    H276958   0.102   2.516   5.709  0.6134 -1.2293  0.3699
18515TIP3   OH276959   3.117   6.556  15.184 -0.2101 -0.3658 -0.2184
18515TIP3    H176960   3.052   6.502  15.229  0.5643 -1.2213 -0.1006
18515TIP3    H276961   3.198   6.544  15.234  0.4560 -0.6322 -1.3200
18516TIP3   OH276962   1.318   6.617   5.288  0.3201 -0.2636  0.0899
18516TIP3    H176963   1.356   6.663   5.213  1.2096  1.0937  1.3361
18516TIP3    H276964   1.366   6.534   5.292  1.0188  0.1187 -0.2012
18517TIP3   OH276965   0.775   3.539  12.174  0.5853  0.3439  0.2637
18517TIP3    H176966   0.857   3.498  12.147 -0.2001 -1.5065  0.5673
18517TIP3    H276967   0.778   3.536  12.270 -0.9504 -2.2327  0.3205
18518TIP3   OH276968   5.628   5.706   2.086 -0.1189 -0.0992  0.1807
18518TIP3    H176969   5.542   5.743   2.102  0.9612  3.0403 -0.6179
18518TIP3    H276970   5.662   5.684   2.173 -1.7516 -1.6693  0.4818
18519TIP3   OH276971   2.385   0.364   0.858  0.6016 -0.3897 -0.0403
18519TIP3    H176972   2.315   0.404   0.808  1.0877 -1.2384 -1.4448
18519TIP3    H276973   2.360   0.272   0.866  1.1720 -0.5356  0.1431
18520TIP3   OH276974   3.430   2.100  13.048  0.0185  0.2445 -0.4450
18520TIP3    H176975   3.428   2.112  13.143  1.0501  1.2547 -0.5325
18520TIP3    H276976   3.500   2.037  13.032 -0.3981 -0.2049 -0.5158
18521TIP3   OH276977   0.193   3.276  11.277  0.8935  1.3535 -0.5744
18521TIP3    H176978   0.272   3.232  11.245  1.1863  0.4559  1.2631
18521TIP3    H276979   0.121   3.222  11.246  1.1754  0.4412  0.3208
18522TIP3   OH276980   5.004   6.607   4.701 -0.4120 -0.1007 -0.4424
18522TIP3    H176981   4.962   6.641   4.623  1.9552  2.7103 -0.6580
18522TIP3    H276982   5.033   6.519   4.677 -1.3081  0.0184 -2.0721
18523TIP3   OH276983   1.577   4.906   4.414 -0.4471 -0.3314 -0.1465
18523TIP3    H176984   1.518   4.848   4.464 -0.3355 -0.8108 -0.5546
18523TIP3    H276985   1.632   4.947   4.480 -0.5783 -0.6406  0.1613
18524TIP3   OH276986   0.759   5.073  14.969 -0.0373  0.8330  0.3775
18524TIP3    H176987   0.721   5.113  14.891  1.6219  0.6593 -0.5686
18524TIP3    H276988   0.723   4.984  14.971 -1.0295  1.2247  0.5180
18525TIP3   OH276989   1.416   5.672  13.693  0.4887  0.5685  0.4693
18525TIP3    H176990   1.338   5.618  13.708  0.5921 -0.6644 -2.6947
18525TIP3    H276991   1.391   5.732  13.623  1.9023  1.2464  0.5133
18526TIP3   OH276992   0.262   3.351   2.483  0.7541  0.2373 -0.1221
18526TIP3    H176993   0.281   3.444   2.478 -0.1265  0.4809  0.9031
18526TIP3    H276994   0.183   3.345   2.537 -0.6289 -0.9102 -2.1222
18527TIP3   OH276995   4.788   4.999  12.484 -0.2414  0.5587  0.1743
18527TIP3    H176996   4.803   4.915  12.527 -0.5409 -0.5774 -1.7733
18527TIP3    H276997   4.716   4.981  12.423  1.4580  1.4312 -2.2508
18528TIP3   OH276998   0.775   3.994  15.919  0.0032  0.0234 -0.0189
18528TIP3    H176999   0.837   4.063  15.896  0.9436 -1.0954 -1.0303
18528TIP3    H277000   0.773   3.938  15.841 -0.5127 -1.2352  0.8763
18529TIP3   OH277001   3.589   6.396  10.539 -0.0990  0.5031 -0.3203
18529TIP3    H177002   3.672   6.375  10.582 -0.9145 -0.8424  0.6616
18529TIP3    H277003   3.564   6.316  10.493 -2.0025  0.0843  1.3352
18530TIP3   OH277004   2.596   4.721   0.442  0.5257  0.1200 -0.1587
18530TIP3    H177005   2.595   4.744   0.349 -0.7450  1.2282  0.1122
18530TIP3    H277006   2.688   4.734   0.468  0.8163  0.1737 -1.1564
18531TIP3   OH277007   6.674   2.925   3.678 -0.7548  0.5258 -0.4909
18531TIP3    H177008   6.653   2.891   3.766  0.2258 -1.5382 -0.9832
18531TIP3    H277009   6.605   2.889   3.622 -0.2205  0.1128 -0.8868
18532TIP3   OH277010   6.231   3.181   2.688 -0.4342 -0.3596 -0.4655
18532TIP3    H177011   6.227   3.272   2.717 -0.2995 -0.2997 -0.6321
18532TIP3    H277012   6.152   3.141   2.723 -0.0851 -0.3856  0.2975
18533TIP3   OH277013   0.757   4.065   2.349  0.2608  0.0044 -0.3047
18533TIP3    H177014   0.774   3.971   2.361 -0.5372  0.0184  1.1768
18533TIP3    H277015   0.808   4.089   2.272  1.4366 -1.3932 -0.0077
18534TIP3   OH277016   6.432   0.381  12.059 -0.1927  0.0817 -0.1400
18534TIP3    H177017   6.432   0.328  11.979 -0.4101 -1.1455  0.6509
18534TIP3    H277018   6.480   0.329  12.123 -1.8132  0.0863  1.1350
18535TIP3   OH277019   1.867   5.315   1.771  0.0921 -0.1649  0.1860
18535TIP3    H177020   1.865   5.261   1.691 -0.1330 -0.8447  0.6442
18535TIP3    H277021   1.961   5.327   1.789  0.1739 -1.7461  0.9572
18536TIP3   OH277022   2.505   0.956   3.586 -0.5539 -0.3775 -0.1094
18536TIP3    H177023   2.453   1.003   3.522 -1.3592 -1.1790 -0.0667
18536TIP3    H277024   2.576   0.917   3.535  0.2176  0.9758 -0.1193
18537TIP3   OH277025   4.973   2.658   3.509 -0.0955 -0.3150 -0.2209
18537TIP3    H177026   5.064   2.646   3.535  0.4937  3.3910 -0.1228
18537TIP3    H277027   4.976   2.680   3.416 -0.6368  1.7624  0.2156
18538TIP3   OH277028   2.658   5.967   0.011  0.6146  0.0018 -0.2992
18538TIP3    H177029   2.569   5.935  -0.002  1.1237 -2.2811  1.1755
18538TIP3    H277030   2.651   6.029   0.083  0.4037 -1.7167  1.2537
18539TIP3   OH277031   1.082   4.834   3.236  0.8124  0.3289  0.0603
18539TIP3    H177032   1.138   4.803   3.165  0.2587  0.3508 -0.3907
18539TIP3    H277033   1.109   4.783   3.312  2.7358  1.6232  0.3219
18540TIP3   OH277034   3.863   5.939   4.548  0.4421 -0.0499 -0.5234
18540TIP3    H177035   3.931   5.982   4.497 -0.2682 -1.1108 -2.4977
18540TIP3    H277036   3.788   5.934   4.488 -0.5960 -0.9770  0.7914
18541TIP3   OH277037   6.342   1.347   3.535 -0.0361  0.3460 -0.0897
18541TIP3    H177038   6.279   1.393   3.479 -0.3207  0.2683  0.1594
18541TIP3    H277039   6.398   1.299   3.475 -0.7499 -0.2563 -0.2872
18542TIP3   OH277040   4.838   4.090   2.600  0.4054 -0.8604  0.2774
18542TIP3    H177041   4.755   4.042   2.598  1.4818 -2.8302 -1.7535
18542TIP3    H277042   4.818   4.172   2.645 -2.4107 -1.6384  0.6014
18543TIP3   OH277043   6.146   2.705   4.548  0.5626 -0.1194 -0.3069
18543TIP3    H177044   6.235   2.725   4.575  0.7734 -1.6157  0.1823
18543TIP3    H277045   6.113   2.645   4.615 -0.3212 -0.6863 -1.2217
18544TIP3   OH277046   0.762   6.067   1.309 -0.5714 -0.3086  0.2652
18544TIP3    H177047   0.763   5.979   1.345  2.6489  1.0977  4.4151
18544TIP3    H277048   0.739   6.123   1.383 -1.4852  2.5224 -1.9398
18545TIP3   OH277049   6.519   2.350   2.023 -0.4507 -0.7264  0.1802
18545TIP3    H177050   6.600   2.391   1.991 -1.6987  1.9820  0.2230
18545TIP3    H277051   6.542   2.316   2.109  1.1831 -2.0456 -0.7124
18546TIP3   OH277052   2.442   5.655   4.861 -0.4498 -0.6490  0.1677
18546TIP3    H177053   2.348   5.663   4.877 -0.2047  0.0219  1.3494
18546TIP3    H277054   2.471   5.584   4.919 -0.0158 -0.0001  0.7636
18547TIP3   OH277055   2.649   5.242   6.528  0.1271 -0.5405 -1.1305
18547TIP3    H177056   2.645   5.337   6.514 -0.1470 -0.3625  0.0711
18547TIP3    H277057   2.743   5.223   6.534  0.2026 -0.4272 -1.7792
18548TIP3   OH277058   4.927   1.042   6.050  0.2310 -0.6293 -0.0526
18548TIP3    H177059   4.868   1.081   6.114  1.5944 -0.9120  1.4440
18548TIP3    H277060   4.981   1.115   6.019  0.0465 -0.6241 -0.3769
18549TIP3   OH277061   3.007   1.338   2.808  0.5292 -0.3603  0.0074
18549TIP3    H177062   2.940   1.347   2.741  0.5603 -1.3195 -0.1681
18549TIP3    H277063   2.966   1.370   2.888  1.4897  3.8805 -0.9511
18550TIP3   OH277064   4.075   0.295  11.751  0.4738  0.2571 -0.2276
18550TIP3    H177065   4.062   0.369  11.691 -1.0944  1.8295  1.9065
18550TIP3    H277066   4.147   0.322  11.807 -1.1467  0.9624  1.6031
18551TIP3   OH277067   6.338   2.669   0.593  0.4141  0.2356  0.2989
18551TIP3    H177068   6.337   2.585   0.547 -2.7993 -0.0118  0.5863
18551TIP3    H277069   6.350   2.646   0.685  0.2942  0.1275  0.2888
18552TIP3   OH277070   4.638   6.111   4.445 -0.3591 -0.5137  0.1013
18552TIP3    H177071   4.569   6.120   4.512 -0.8841 -0.4140 -0.4406
18552TIP3    H277072   4.614   6.175   4.378  0.9698  0.4358  0.4830
18553TIP3   OH277073   0.481   2.767   4.634 -0.0846  0.3121  0.0795
18553TIP3    H177074   0.469   2.687   4.582 -0.7507 -0.4145  1.2951
18553TIP3    H277075   0.569   2.797   4.611 -0.5830  0.3662 -1.8993
18554TIP3   OH277076   4.526   4.000  16.820 -0.2661 -0.2689  0.0202
18554TIP3    H177077   4.431   4.001  16.824 -0.3085 -0.4003 -0.8310
18554TIP3    H277078   4.554   4.028  16.907 -1.0722 -0.8431  0.4705
18555TIP3   OH277079   4.153   4.201   2.000 -0.4066 -0.1349  0.0336
18555TIP3    H177080   4.191   4.160   1.922  0.4067  0.7356 -0.0295
18555TIP3    H277081   4.068   4.233   1.971 -0.0620  0.2810 -0.5371
18556TIP3   OH277082   4.711   2.930   3.538  0.1952 -0.1707 -0.5694
18556TIP3    H177083   4.651   2.871   3.493 -0.8289 -0.3879  0.9872
18556TIP3    H277084   4.797   2.908   3.502 -0.2474 -2.1491 -0.5719
18557TIP3   OH277085   3.413   0.331  13.129  0.3067 -0.0146  0.6570
18557TIP3    H177086   3.363   0.262  13.086 -0.3683  2.0028 -2.0421
18557TIP3    H277087   3.465   0.371  13.059  0.5288  2.3311  2.0419
18558TIP3   OH277088   3.278   3.556   6.159 -0.1242  0.1324 -0.9226
18558TIP3    H177089   3.226   3.632   6.134  0.3887  0.5407 -0.7694
18558TIP3    H277090   3.348   3.591   6.213 -1.7974 -0.8121  2.1208
18559TIP3   OH277091   0.533   4.197  13.874  0.2499  0.1353  0.6426
18559TIP3    H177092   0.440   4.205  13.893  0.6622 -0.3579  3.3208
18559TIP3    H277093   0.539   4.120  13.816 -1.1000  1.4368 -1.3687
18560TIP3   OH277094   5.097   1.972   3.555 -0.1173  0.7458 -0.1649
18560TIP3    H177095   5.017   1.924   3.532  0.5496  0.6749 -2.6610
18560TIP3    H277096   5.157   1.905   3.586 -0.7746  0.7074  1.0915
18561TIP3   OH277097   4.532   6.151   0.247 -0.1830 -0.6361  0.3488
18561TIP3    H177098   4.564   6.075   0.295 -1.7581 -1.5751 -0.0273
18561TIP3    H277099   4.441   6.130   0.226 -0.1106  0.5580 -1.3647
18562TIP3   OH277100   0.183   2.762  15.699  0.0665 -0.0235 -0.4830
18562TIP3    H177101   0.240   2.832  15.666  0.2499 -0.3149 -0.7831
18562TIP3    H277102   0.128   2.806  15.765  0.8428  0.1994  0.0400
18563TIP3   OH277103   5.252   5.844   4.483  0.0814 -0.3893  0.5133
18563TIP3    H177104   5.165   5.851   4.521  0.0984 -2.1106  0.9231
18563TIP3    H277105   5.264   5.927   4.436 -1.6061  0.0266  0.7498
18564TIP3   OH277106   2.966   0.103   3.146 -0.6141 -0.1655 -0.4030
18564TIP3    H177107   3.017   0.166   3.095  2.7241 -1.6226  0.8127
18564TIP3    H277108   2.927   0.155   3.217  0.5526  0.8314 -0.4575
18565TIP3   OH277109   1.592   6.712  11.194 -0.2311  0.0121  0.2836
18565TIP3    H177110   1.618   6.750  11.110  1.1042 -1.1607  0.1273
18565TIP3    H277111   1.559   6.786  11.245 -1.3162  0.7165 -1.3374
18566TIP3   OH277112   5.469   3.781  15.530 -0.0336 -0.0504 -0.1533
18566TIP3    H177113   5.526   3.742  15.597  1.3304  1.2067 -0.5123
18566TIP3    H277114   5.380   3.759  15.557  0.4916  0.2607  1.9665
18567TIP3   OH277115   3.679   0.457   1.685 -0.0372 -0.3576 -0.5352
18567TIP3    H177116   3.710   0.530   1.739 -0.7893 -0.4692  0.0598
18567TIP3    H277117   3.679   0.381   1.743 -0.5485 -0.5486 -0.7714
18568TIP3   OH277118   4.260   5.055   5.788 -0.7901  0.0797 -0.2212
18568TIP3    H177119   4.235   5.143   5.758 -0.1767 -0.1451 -1.4609
18568TIP3    H277120   4.348   5.043   5.753 -0.9450 -1.1098 -0.2188
18569TIP3   OH277121   3.838   6.265   5.057 -0.1670  0.0554  0.2150
18569TIP3    H177122   3.783   6.306   5.123  0.1672  1.0113 -0.0811
18569TIP3    H277123   3.912   6.325   5.046 -1.1241  0.8782 -2.3388
18570TIP3   OH277124   2.636   3.952   5.517  0.0534 -0.2792  0.2709
18570TIP3    H177125   2.553   3.971   5.474  0.3129  1.1054  0.3258
18570TIP3    H277126   2.672   3.878   5.469 -0.6194 -0.0765 -0.5705
18571TIP3   OH277127   3.987   0.495  12.518  0.4456  0.4151 -0.3350
18571TIP3    H177128   3.900   0.484  12.555  0.4366 -0.7890 -0.6671
18571TIP3    H277129   3.976   0.483  12.424  1.0289 -0.2192 -0.3338
18572TIP3   OH277130   5.059   3.791   6.295 -0.2212 -0.3804 -0.3287
18572TIP3    H177131   5.050   3.882   6.320 -0.4919 -0.2675 -0.8155
18572TIP3    H277132   5.138   3.760   6.341 -0.1322  0.0919 -0.1631
18573TIP3   OH277133   3.502   1.248  14.133 -0.2417  0.1258 -0.0844
18573TIP3    H177134   3.535   1.276  14.047  0.8863 -1.0208 -0.0446
18573TIP3    H277135   3.462   1.327  14.169  0.2378  0.9131 -1.2005
18574TIP3   OH277136   4.878   3.027  15.573  0.4166  0.1044 -0.0873
18574TIP3    H177137   4.885   3.115  15.611  1.0583  0.1488 -0.3018
18574TIP3    H277138   4.805   3.034  15.512 -1.3491 -0.2539  1.8641
18575TIP3   OH277139   0.395   5.929   5.234  0.0042  0.0135 -0.3683
18575TIP3    H177140   0.421   5.893   5.149  1.2608  0.0850 -0.0389
18575TIP3    H277141   0.409   5.857   5.296 -0.2242  0.1756 -0.1243
18576TIP3   OH277142   4.868   5.762  15.045  0.1174 -0.0530 -0.2918
18576TIP3    H177143   4.809   5.687  15.038 -0.3253  0.2293  0.3436
18576TIP3    H277144   4.944   5.729  15.093 -0.0779 -0.0917 -0.0125
18577TIP3   OH277145   0.244   5.923  15.259 -0.2025  0.5384  0.5021
18577TIP3    H177146   0.321   5.893  15.210 -1.2036 -2.5668  0.6502
18577TIP3    H277147   0.273   5.925  15.350 -0.1373  0.0021  0.4928
18578TIP3   OH277148   4.026   5.286  14.694  0.1216 -0.3291  0.0238
18578TIP3    H177149   4.011   5.199  14.732 -0.0193 -0.5199 -0.4685
18578TIP3    H277150   3.940   5.316  14.668  0.0413  0.3395  0.9813
18579TIP3   OH277151   6.057   5.800   4.518 -0.9179 -0.1910 -0.5506
18579TIP3    H177152   6.015   5.779   4.601 -0.2738 -3.7483 -0.9657
18579TIP3    H277153   6.133   5.853   4.542 -1.8381  0.5447  0.8817
18580TIP3   OH277154   0.464   2.076   6.400 -0.0167 -0.1408  0.0916
18580TIP3    H177155   0.514   2.157   6.401 -0.4462  0.1918  2.9126
18580TIP3    H277156   0.387   2.096   6.347  1.8623 -0.1091 -2.7982
18581TIP3   OH277157   4.998   2.996  15.820 -0.3075 -0.5694 -0.5317
18581TIP3    H177158   5.093   2.999  15.827 -0.3580  1.2416 -0.0942
18581TIP3    H277159   4.981   2.956  15.735  0.8816  0.3384 -1.2322
18582TIP3   OH277160   5.279   2.646   1.419 -0.2095  0.4664 -0.1787
18582TIP3    H177161   5.184   2.634   1.417 -0.0986 -0.7553  0.5456
18582TIP3    H277162   5.303   2.624   1.509  0.6670  1.6451 -0.1060
18583TIP3   OH277163   4.288   2.683  16.434 -0.1422 -0.0291  0.1809
18583TIP3    H177164   4.242   2.630  16.368 -0.8012  0.5835  0.1355
18583TIP3    H277165   4.315   2.761  16.386  3.6938 -1.5969 -0.6284
18584TIP3   OH277166   3.097   0.329  14.474  0.4104 -0.2635  0.3225
18584TIP3    H177167   3.167   0.394  14.476  0.7025 -0.5789  0.9020
18584TIP3    H277168   3.063   0.328  14.564 -0.5260  0.0809 -0.0175
18585TIP3   OH277169   3.886   4.928  12.415 -0.1436 -0.6776  0.1889
18585TIP3    H177170   3.912   4.921  12.323 -2.9038  0.5499 -0.7943
18585TIP3    H277171   3.918   5.015  12.441 -1.6144  0.1148 -0.4996
18586TIP3   OH277172   2.448   1.885   0.980 -0.2006 -0.2125 -0.2450
18586TIP3    H177173   2.428   1.976   1.000 -0.5566 -0.7184  2.0740
18586TIP3    H277174   2.481   1.886   0.890 -1.3724  1.9990 -0.7129
18587TIP3   OH277175   3.109   0.300  11.838  0.2183  0.2477 -0.0896
18587TIP3    H177176   3.182   0.361  11.825 -0.3842  1.0076  0.0943
18587TIP3    H277177   3.144   0.216  11.809  0.6860  0.8761 -1.4344
18588TIP3   OH277178   6.111   1.645   3.493 -0.4083 -0.2996  0.5330
18588TIP3    H177179   6.120   1.731   3.451 -0.2921 -0.5755 -0.0181
18588TIP3    H277180   6.110   1.664   3.587 -1.5575  0.4245  0.4036
18589TIP3   OH277181   0.546   5.287   1.262 -0.5390 -0.3494  0.3267
18589TIP3    H177182   0.545   5.220   1.194  1.2760 -1.4546  1.3018
18589TIP3    H277183   0.612   5.350   1.233 -1.0756  0.1631  0.1970
18590TIP3   OH277184   4.877   3.138  15.147 -0.1888 -0.3259  0.1406
18590TIP3    H177185   4.916   3.192  15.216  1.4396 -0.9984 -0.2068
18590TIP3    H277186   4.885   3.048  15.180 -1.6684 -0.4899  0.1393
18591TIP3   OH277187   5.825   6.532  12.521 -0.1473  1.0066 -0.1461
18591TIP3    H177188   5.908   6.536  12.569 -0.2081  0.1705  0.0444
18591TIP3    H277189   5.766   6.484  12.579 -0.5822  1.0493 -0.5458
18592TIP3   OH277190   2.623   1.601   0.621 -0.4409 -0.1555 -0.6624
18592TIP3    H177191   2.534   1.636   0.611 -0.6039 -0.0288  0.9614
18592TIP3    H277192   2.623   1.520   0.570 -0.9649  0.6834 -2.0508
18593TIP3   OH277193   6.063   0.889   5.019 -0.2838 -0.2887 -0.1429
18593TIP3    H177194   6.125   0.923   4.955  0.2249 -1.1292 -0.1094
18593TIP3    H277195   5.998   0.842   4.967 -3.7704  4.4766 -0.7542
18594TIP3   OH277196   3.647   2.080  15.200  0.7903 -0.0060  0.4422
18594TIP3    H177197   3.704   2.027  15.256  0.5568 -0.9413 -0.1800
18594TIP3    H277198   3.618   2.019  15.132  0.0492  0.7845  0.0419
18595TIP3   OH277199   0.775   3.423  11.265  0.2832 -0.3221  0.5455
18595TIP3    H177200   0.785   3.329  11.281 -1.1454 -0.5316  0.3774
18595TIP3    H277201   0.698   3.430  11.208  0.4019  0.9441  0.5005
18596TIP3   OH277202   1.083   0.297   2.171 -0.0982  0.1102 -0.0418
18596TIP3    H177203   1.000   0.281   2.125  0.2601  0.8300 -0.9915
18596TIP3    H277204   1.132   0.215   2.163 -0.2011  0.1027 -0.6225
18597TIP3   OH277205   6.253   0.380  14.025  0.8681  0.4002 -0.4388
18597TIP3    H177206   6.168   0.360  14.065  1.1178 -0.0364 -0.1314
18597TIP3    H277207   6.317   0.338  14.081  1.2996  0.7968 -0.6297
18598TIP3   OH277208   5.479   4.589  16.594  0.1755 -0.0427  0.2134
18598TIP3    H177209   5.488   4.630  16.681 -0.0864 -0.3262  0.3788
18598TIP3    H277210   5.448   4.500  16.613 -0.3342  0.0402 -0.1884
18599TIP3   OH277211   5.159   0.515   3.304 -0.1655  0.1844  0.4332
18599TIP3    H177212   5.242   0.563   3.304 -0.1907  0.2598 -0.7614
18599TIP3    H277213   5.185   0.423   3.298 -0.1484  0.1283  1.2951
18600TIP3   OH277214   4.422   6.384  16.871 -0.0504  0.2719 -0.0496
18600TIP3    H177215   4.484   6.392  16.943 -1.1966 -1.1056  1.1592
18600TIP3    H277216   4.477   6.380  16.793  1.3805 -0.6994  0.9504
18601TIP3   OH277217   0.761   2.515  13.701  0.7114  0.1601 -0.6799
18601TIP3    H177218   0.761   2.419  13.695  0.3673  0.1338 -0.2712
18601TIP3    H277219   0.805   2.533  13.784 -0.0231  0.3211 -0.3142
18602TIP3   OH277220   0.029   5.320   5.258 -0.7185 -0.2016 -0.1302
18602TIP3    H177221   0.047   5.278   5.343 -0.6491  0.6811  0.3016
18602TIP3    H277222   0.092   5.392   5.254 -2.4817  1.4376  0.2908
18603TIP3   OH277223   5.594   0.580   3.867  0.4574 -0.1139 -0.1331
18603TIP3    H177224   5.648   0.523   3.812  1.0817 -1.2495  1.5577
18603TIP3    H277225   5.656   0.641   3.907  0.1533  0.0641  0.0752
18604TIP3   OH277226   1.799   0.336  13.488  0.3048 -0.2684 -0.4571
18604TIP3    H177227   1.858   0.344  13.563 -2.9389  0.6813  2.2260
18604TIP3    H277228   1.765   0.424  13.474  0.6668 -0.4443 -3.0354
18605TIP3   OH277229   0.089   0.819   3.216 -0.3099 -0.5571 -0.1962
18605TIP3    H177230   0.146   0.878   3.168  0.1574 -0.4053  0.5262
18605TIP3    H277231   0.001   0.853   3.202 -0.0664  0.1681  0.0079
18606TIP3   OH277232   1.959   4.394  13.420  0.3242  0.6696 -0.2852
18606TIP3    H177233   2.019   4.467  13.429 -0.1693  0.9209  1.2426
18606TIP3    H277234   1.872   4.432  13.429  0.0019  0.0820 -0.8078
18607TIP3   OH277235   1.575   0.805  12.620 -0.4538  0.1636  0.8396
18607TIP3    H177236   1.492   0.769  12.651 -1.3335  0.8439 -0.6144
18607TIP3    H277237   1.639   0.735  12.634 -1.9167 -1.6570 -0.9952
18608TIP3   OH277238   1.141   3.272   0.114 -0.1015 -0.0047  0.2969
18608TIP3    H177239   1.079   3.212   0.155 -1.2904  0.8337 -0.2169
18608TIP3    H277240   1.102   3.358   0.126 -0.1908  0.3375 -1.9923
18609TIP3   OH277241   4.749   1.317   4.635  0.3487 -0.2835 -0.6871
18609TIP3    H177242   4.743   1.382   4.565 -2.3769 -0.2926 -0.5632
18609TIP3    H277243   4.724   1.364   4.714  0.8584 -0.9045 -0.1369
18610TIP3   OH277244   3.027   1.181   0.456 -0.1910 -0.0464  0.1520
18610TIP3    H177245   2.986   1.263   0.428 -0.1742 -0.2574 -0.5065
18610TIP3    H277246   3.068   1.202   0.539  2.3419  1.4515 -1.3416
18611TIP3   OH277247   3.239   0.224  16.351 -0.1229  0.4188 -0.0562
18611TIP3    H177248   3.278   0.137  16.354  0.1864  0.5721  0.3678
18611TIP3    H277249   3.277   0.264  16.272 -1.6318 -0.4617 -1.2873
18612TIP3   OH277250   3.222   0.220   2.550 -0.0425  0.1378 -0.3230
18612TIP3    H177251   3.259   0.132   2.560  0.5178  0.6700  5.4289
18612TIP3    H277252   3.296   0.279   2.564 -1.1910  1.4276  0.4939
18613TIP3   OH277253   0.924   2.757   1.423 -0.5806 -0.1059  0.4837
18613TIP3    H177254   0.988   2.691   1.448  1.0234  1.0009 -0.4596
18613TIP3    H277255   0.929   2.761   1.327 -2.7463 -0.6087  0.3040
18614TIP3   OH277256   5.511   4.900  14.591  0.0337  0.0907  0.1126
18614TIP3    H177257   5.417   4.916  14.601  0.4197  1.6250  1.9023
18614TIP3    H277258   5.544   4.979  14.549  0.5923 -0.2709 -0.1344
18615TIP3   OH277259   4.603   1.996   0.788  0.4159  0.3791  0.7630
18615TIP3    H177260   4.535   1.994   0.720  0.7310 -1.5680  0.4314
18615TIP3    H277261   4.584   1.919   0.842 -0.0288  2.0505  3.1392
18616TIP3   OH277262   5.756   5.810   0.978  0.3467  0.0153 -0.1090
18616TIP3    H177263   5.699   5.796   1.053  0.3422  0.1743 -0.0829
18616TIP3    H277264   5.786   5.723   0.954  1.3394  0.0860  0.8446
18617TIP3   OH277265   5.406   3.279  11.380  0.0041  0.0298  0.1211
18617TIP3    H177266   5.419   3.200  11.431  3.1178  1.6146  2.1082
18617TIP3    H277267   5.462   3.268  11.303  1.5496  0.7844  1.0986
18618TIP3   OH277268   4.292   5.921  12.722 -0.4271 -0.1735  0.3530
18618TIP3    H177269   4.229   5.897  12.790 -1.0370 -0.1919 -0.2095
18618TIP3    H277270   4.243   5.976  12.661  0.1663  0.0178  0.0348
18619TIP3   OH277271   0.034   0.099   0.536 -0.2380 -0.0763 -0.3607
18619TIP3    H177272   0.043   0.030   0.470  0.7859  1.4085 -1.8641
18619TIP3    H277273  -0.060   0.111   0.545 -0.5217 -2.6399  1.0686
18620TIP3   OH277274   2.468   2.197   4.223  0.2846 -0.0274  0.5396
18620TIP3    H177275   2.503   2.254   4.292 -0.6412  1.3490 -0.0830
18620TIP3    H277276   2.533   2.202   4.152 -0.8162  2.1215 -0.4138
18621TIP3   OH277277   5.245   6.158  17.296 -0.1492 -0.3533 -0.8188
18621TIP3    H177278   5.261   6.203  17.379  0.6975  0.3916 -1.3646
18621TIP3    H277279   5.330   6.121  17.272 -0.1117  0.3700 -1.8824
18622TIP3   OH277280   4.462   2.388   1.747 -0.1514  0.0708 -0.3351
18622TIP3    H177281   4.448   2.295   1.735  0.4730 -1.0655  5.1018
18622TIP3    H277282   4.376   2.424   1.768  0.1156 -0.2499  1.5154
18623TIP3   OH277283   1.550   0.183  11.348 -0.2113  0.6464 -0.4532
18623TIP3    H177284   1.634   0.228  11.358 -1.1653  2.1308  1.8379
18623TIP3    H277285   1.519   0.170  11.438 -1.2796 -2.2373 -1.1186
18624TIP3   OH277286   5.412   2.063   5.696 -0.9302 -0.0025  0.2230
18624TIP3    H177287   5.482   2.065   5.630  0.3134  2.6963  1.4802
18624TIP3    H277288   5.375   2.152   5.695  0.3669  0.7797  4.3009
18625TIP3   OH277289   4.545   0.492  14.155 -0.0716 -0.3291 -0.2676
18625TIP3    H177290   4.547   0.486  14.060  1.5040 -0.5651 -0.2523
18625TIP3    H277291   4.595   0.415  14.185  1.2498  0.8316  0.6637
18626TIP3   OH277292   5.816   0.440  15.374  0.0237  0.1412  0.3011
18626TIP3    H177293   5.857   0.376  15.432  0.2872  0.9890  1.0842
18626TIP3    H277294   5.735   0.399  15.346  2.1364 -2.3681 -2.7620
18627TIP3   OH277295   6.587   6.173  14.619 -0.5163 -0.0631  0.3437
18627TIP3    H177296   6.627   6.188  14.534 -0.0712 -0.1068  0.5449
18627TIP3    H277297   6.496   6.201  14.608 -0.0007  1.7750  0.3962
18628TIP3   OH277298   0.231   6.389  11.487  0.1192 -0.2066 -0.5239
18628TIP3    H177299   0.266   6.473  11.519  1.5267 -0.0123 -2.4088
18628TIP3    H277300   0.157   6.371  11.545 -0.6179  2.6472 -0.4099
18629TIP3   OH277301   2.197   0.421   0.689  0.0383 -0.4064 -0.0350
18629TIP3    H177302   2.186   0.429   0.595 -1.1399 -1.3290 -0.0100
18629TIP3    H277303   2.108   0.426   0.724  0.4774  0.1739  1.0523
18630TIP3   OH277304   0.702   0.726   1.323 -0.1084  0.7537  0.0059
18630TIP3    H177305   0.759   0.675   1.265  1.1370  0.1884  1.6584
18630TIP3    H277306   0.762   0.777   1.376 -1.1071  0.0685  1.8745
18631TIP3   OH277307   2.248   6.336   4.237  0.5173 -0.2653 -0.3127
18631TIP3    H177308   2.339   6.330   4.268 -0.2386  0.0754  2.2316
18631TIP3    H277309   2.228   6.248   4.204  1.3725 -0.7449  0.3814
18632TIP3   OH277310   0.465   3.919  14.498 -0.3485 -0.3548  0.1615
18632TIP3    H177311   0.530   3.920  14.568 -0.3040 -0.0865  0.1180
18632TIP3    H277312   0.478   3.835  14.454  1.6544  0.6695 -1.3912
18633TIP3   OH277313   5.775   1.001  14.650 -0.4510  0.1498 -0.1440
18633TIP3    H177314   5.728   1.084  14.655 -1.6274 -0.5196  0.3069
18633TIP3    H277315   5.711   0.935  14.676  0.2526 -0.9847 -1.1592
18634TIP3   OH277316   3.883   4.780   3.103  0.6645  0.7498 -0.5746
18634TIP3    H177317   3.839   4.835   3.038  0.4264 -0.3014 -1.3391
18634TIP3    H277318   3.904   4.839   3.175 -2.0508  1.3079 -0.1386
18635TIP3   OH277319   5.818   3.859  15.505 -0.1151  0.5613 -0.3090
18635TIP3    H177320   5.735   3.882  15.463  0.2355  1.0327 -0.7541
18635TIP3    H277321   5.879   3.928  15.478  0.8655 -0.6712 -1.3873
18636TIP3   OH277322   2.553   1.579   4.114 -0.1369  0.6324 -0.1961
18636TIP3    H177323   2.515   1.562   4.200 -0.5599  0.2561 -0.4562
18636TIP3    H277324   2.629   1.634   4.132 -0.6379  1.1665  0.3569
18637TIP3   OH277325   2.319   3.035   2.952  0.3362  0.4126  0.2942
18637TIP3    H177326   2.324   3.099   3.023  1.0155 -2.1641  2.7664
18637TIP3    H277327   2.391   2.975   2.970  0.2734 -0.5961 -2.4235
18638TIP3   OH277328   5.714   3.466   3.491 -0.0706 -0.9185  0.1418
18638TIP3    H177329   5.686   3.552   3.523 -0.9889 -0.4871 -1.6729
18638TIP3    H277330   5.788   3.486   3.434 -0.2547 -1.3211 -0.2407
18639TIP3   OH277331   6.615   2.490   5.913 -0.6830  0.0023 -0.2858
18639TIP3    H177332   6.635   2.441   5.993 -1.9149  1.8693  1.2613
18639TIP3    H277333   6.531   2.454   5.884 -0.2743 -0.6232 -0.7026
18640TIP3   OH277334   6.348   2.827   5.627  0.1193 -0.7026 -0.1351
18640TIP3    H177335   6.273   2.867   5.582  0.3782 -0.3937 -0.3025
18640TIP3    H277336   6.363   2.745   5.580 -0.4590 -1.0375  0.2519
18641TIP3   OH277337   0.460   5.221  14.442 -0.2297  0.0516 -0.0986
18641TIP3    H177338   0.390   5.234  14.506  1.4413 -0.3571  1.9448
18641TIP3    H277339   0.472   5.126  14.439  0.1018  0.1056 -0.5843
18642TIP3   OH277340   3.188   2.793   6.579 -0.4354  0.0563 -0.8826
18642TIP3    H177341   3.175   2.863   6.515 -1.4905  0.4569 -0.2535
18642TIP3    H277342   3.109   2.794   6.633  0.5136 -0.1195  0.5753
18643TIP3   OH277343   6.065   6.515  11.614 -0.0460 -0.1201  0.3470
18643TIP3    H177344   6.036   6.525  11.523 -0.4176  0.8570  0.5495
18643TIP3    H277345   6.068   6.605  11.647  0.0079 -0.4710  1.3242
18644TIP3   OH277346   0.651   5.370   0.768 -0.0020 -0.0537 -0.1788
18644TIP3    H177347   0.576   5.422   0.740  0.8082  0.9539 -0.5498
18644TIP3    H277348   0.674   5.406   0.854  0.5655  0.2160 -0.4376
18645TIP3   OH277349   0.740   5.679  10.541 -0.0420 -0.3271  0.6693
18645TIP3    H177350   0.812   5.718  10.492  0.1194 -1.0780  0.2844
18645TIP3    H277351   0.732   5.732  10.620 -0.2692  0.8771 -0.1365
18646TIP3   OH277352   6.342   4.410  10.822  1.1470 -0.4501 -0.0867
18646TIP3    H177353   6.424   4.461  10.823  0.7650  0.1693  0.0061
18646TIP3    H277354   6.283   4.460  10.878  1.0715 -1.5249  0.8291
18647TIP3   OH277355   5.823   2.048  14.148 -0.0007 -0.2028  0.6231
18647TIP3    H177356   5.786   1.984  14.209  0.4317 -2.6246 -1.5015
18647TIP3    H277357   5.905   2.008  14.119  0.0019  1.0487 -1.2057
18648TIP3   OH277358   0.146   4.373  11.851  0.2949 -0.3667  0.5972
18648TIP3    H177359   0.219   4.316  11.829 -0.8988 -2.0963  0.8691
18648TIP3    H277360   0.068   4.318  11.837 -1.2005  2.2461 -2.4697
18649TIP3   OH277361   6.125   0.476  15.626  0.1332 -0.4620  0.0197
18649TIP3    H177362   6.156   0.414  15.692 -0.8419 -0.8274  0.1572
18649TIP3    H277363   6.183   0.462  15.551  0.1886 -1.2513  0.1966
18650TIP3   OH277364   1.852   1.489   0.869  0.3415 -0.4606 -0.0435
18650TIP3    H177365   1.796   1.450   0.936  0.9021  0.6339  1.1317
18650TIP3    H277366   1.806   1.568   0.841  1.5360  0.8558  1.4722
18651TIP3   OH277367   2.150   1.213  16.687  0.1897 -0.0813  0.0738
18651TIP3    H177368   2.233   1.167  16.699  0.1440 -0.1312  0.1953
18651TIP3    H277369   2.109   1.169  16.612  0.4494  0.1954 -0.2378
18652TIP3   OH277370   2.240   2.362   1.819 -0.0492 -0.3019 -0.0330
18652TIP3    H177371   2.326   2.395   1.848  0.3731 -0.9260 -0.5507
18652TIP3    H277372   2.197   2.334   1.900  0.4881 -0.5654  0.1711
18653TIP3   OH277373   3.896   2.976   0.852  0.5270  0.3437  0.6029
18653TIP3    H177374   3.830   3.045   0.840  0.0682 -0.3699 -1.4238
18653TIP3    H277375   3.903   2.935   0.766  1.4582 -1.5674  1.5319
18654TIP3   OH277376   6.704   0.569   1.584  0.0287 -0.3952  0.1679
18654TIP3    H177377   6.795   0.584   1.560  0.4884 -2.0744  0.7042
18654TIP3    H277378   6.708   0.529   1.671 -1.3671  1.5718  1.2259
18655TIP3   OH277379   3.371   1.442  13.892  0.2189 -0.7182  0.0872
18655TIP3    H177380   3.351   1.372  13.829  3.3682 -1.7625  0.0569
18655TIP3    H277381   3.462   1.467  13.872  0.0155  1.6609  1.7451
18656TIP3   OH277382   1.144   5.007   1.071  0.4154  0.2889  0.3465
18656TIP3    H177383   1.154   5.061   1.150 -2.4566  1.1788  0.2011
18656TIP3    H277384   1.071   5.046   1.024  1.4327 -0.8129 -2.3229
18657TIP3   OH277385   3.423   4.975  17.063 -0.2681  0.2134  0.1617
18657TIP3    H177386   3.507   5.011  17.034 -0.8544 -0.5249 -2.7622
18657TIP3    H277387   3.445   4.894  17.108  0.6391  0.8777  0.9654
18658TIP3   OH277388   5.316   6.333   0.160  0.4097 -0.5286 -0.5595
18658TIP3    H177389   5.247   6.399   0.150  0.3953 -0.5272 -0.4453
18658TIP3    H277390   5.307   6.302   0.250  1.6107  0.6480  0.0009
18659TIP3   OH277391   0.151   4.191   5.166  0.2456 -0.1607  0.4643
18659TIP3    H177392   0.085   4.253   5.136 -2.4774 -2.2887  1.5332
18659TIP3    H277393   0.205   4.174   5.089  1.4766  3.7227  0.2468
18660TIP3   OH277394   6.432   3.256   0.474 -0.2133  0.7506  0.2612
18660TIP3    H177395   6.402   3.194   0.408 -1.2528 -0.1289  1.5100
18660TIP3    H277396   6.480   3.322   0.424  0.5861 -0.8246 -1.1590
18661TIP3   OH277397   4.857   5.408  16.572 -0.7396 -0.6678 -0.7143
18661TIP3    H177398   4.918   5.475  16.603 -1.3148  0.5673 -2.1405
18661TIP3    H277399   4.827   5.364  16.652 -0.9768  1.3208  0.3489
18662TIP3   OH277400   4.786   3.722  14.016 -0.5597  0.3930  0.7356
18662TIP3    H177401   4.708   3.759  13.975 -0.3054  0.6318  0.4531
18662TIP3    H277402   4.856   3.738  13.952 -0.4104 -0.4408  0.6741
18663TIP3   OH277403   3.673   0.916   5.293  0.4627  0.3050  0.7661
18663TIP3    H177404   3.685   0.822   5.309  0.3147  0.2188  0.3625
18663TIP3    H277405   3.627   0.947   5.371 -2.6434 -0.6177 -0.5830
18664TIP3   OH277406   4.225   6.274  12.545 -0.1597  0.3493  0.5569
18664TIP3    H177407   4.197   6.360  12.577  1.0534  1.2369 -0.6673
18664TIP3    H277408   4.242   6.287  12.452 -0.0064 -1.2408  0.3386
18665TIP3   OH277409   0.138   6.286   6.464 -0.3112 -0.6513 -0.0033
18665TIP3    H177410   0.180   6.233   6.532  1.8744 -1.9445 -2.2031
18665TIP3    H277411   0.070   6.229   6.428  1.3514 -1.7020 -1.6641
18666TIP3   OH277412   3.528   0.898  12.650  0.4730 -0.3436 -0.0684
18666TIP3    H177413   3.545   0.958  12.578 -0.5889 -0.1526 -0.1747
18666TIP3    H277414   3.609   0.899  12.701  0.0086  2.2702  0.7445
18667TIP3   OH277415   3.670   2.716   0.722  0.2003  0.1378 -0.2471
18667TIP3    H177416   3.711   2.710   0.809  1.0013 -0.7754 -0.6662
18667TIP3    H277417   3.601   2.650   0.723 -0.1365  0.4871 -0.1350
18668TIP3   OH277418   5.195   3.735  12.810  0.0883  0.5901 -0.1325
18668TIP3    H177419   5.195   3.647  12.849 -1.0545  0.4574 -0.4040
18668TIP3    H277420   5.191   3.719  12.716  0.0033  0.9332 -0.1878
18669TIP3   OH277421   0.172   2.315   3.818  0.3450  0.2730  0.0609
18669TIP3    H177422   0.131   2.259   3.752 -0.2553  0.5305  0.2033
18669TIP3    H277423   0.201   2.392   3.769  1.6508 -0.3896 -0.2243
18670TIP3   OH277424   1.300   0.329  15.840  0.1026 -0.2914  0.0315
18670TIP3    H177425   1.352   0.341  15.761 -0.5971  1.0671 -0.2603
18670TIP3    H277426   1.279   0.236  15.841  4.9885 -1.6725  1.8060
18671TIP3   OH277427   4.563   2.204  14.328  0.4720  0.1844  0.0581
18671TIP3    H177428   4.548   2.239  14.416 -2.1462 -0.5840 -0.0043
18671TIP3    H277429   4.515   2.122  14.327  3.7169 -1.8770 -0.8729
18672TIP3   OH277430   5.311   2.143  12.322 -0.7788  0.2344  0.7450
18672TIP3    H177431   5.349   2.056  12.324 -0.7886  0.2273  0.5961
18672TIP3    H277432   5.332   2.180  12.409 -0.5021  0.2011  0.6950
18673TIP3   OH277433   6.010   2.679   0.355 -0.4894  0.3716 -0.3797
18673TIP3    H177434   6.004   2.716   0.443  2.1023 -0.8210  0.4067
18673TIP3    H277435   6.019   2.585   0.369  1.2271  0.2617 -1.7886
18674TIP3   OH277436   4.007   4.327   3.164  0.9759  0.0897 -0.4898
18674TIP3    H177437   3.940   4.382   3.205  1.1279 -0.1343  0.0655
18674TIP3    H277438   4.066   4.389   3.122  0.2754  0.2839 -1.2264
18675TIP3   OH277439   5.080   4.060   5.167 -0.2604 -0.1523  0.1568
18675TIP3    H177440   5.069   3.996   5.097 -0.6380  0.0002  0.0686
18675TIP3    H277441   4.996   4.060   5.213  0.1731 -0.6554  0.9615
18676TIP3   OH277442   2.579   5.532  15.568 -0.8637 -0.2474  0.1023
18676TIP3    H177443   2.513   5.464  15.579 -0.6214 -0.6067 -0.5937
18676TIP3    H277444   2.538   5.596  15.510 -0.8511 -0.1194  0.2319
18677TIP3   OH277445   0.974   4.902  16.216  0.0253 -0.0670  0.4233
18677TIP3    H177446   0.933   4.975  16.264  0.2713  0.0424  0.4687
18677TIP3    H277447   0.996   4.939  16.131 -1.6235 -0.6194 -0.2883
18678TIP3   OH277448   2.593   3.894  13.858 -0.2140 -0.5098  0.0394
18678TIP3    H177449   2.517   3.850  13.897 -1.0094  0.2032 -0.6778
18678TIP3    H277450   2.625   3.951  13.927 -2.6423  2.0412 -0.7657
18679TIP3   OH277451   5.045   3.279   2.936 -0.1964 -0.1123 -0.1376
18679TIP3    H177452   4.977   3.323   2.886 -1.0844  3.0975  3.4281
18679TIP3    H277453   5.123   3.334   2.925  0.4239 -1.0014 -0.2863
18680TIP3   OH277454   4.881   2.343   1.636  0.3066  0.2688  0.1476
18680TIP3    H177455   4.946   2.277   1.612 -0.3963 -0.4689  0.2367
18680TIP3    H277456   4.819   2.296   1.692 -0.1905  1.0100  0.2253
18681TIP3   OH277457   2.369   3.507  13.815 -0.2629  0.2742  0.3458
18681TIP3    H177458   2.443   3.567  13.815 -0.2020  0.2442  1.7150
18681TIP3    H277459   2.336   3.508  13.726 -0.4509  2.5647  0.3885
18682TIP3   OH277460   1.592   5.359   2.909 -0.1129 -0.2416  0.0137
18682TIP3    H177461   1.654   5.399   2.970 -1.2804 -0.4845  1.4203
18682TIP3    H277462   1.508   5.396   2.934 -0.9441 -2.0675  0.0626
18683TIP3   OH277463   3.473   5.334   2.987 -0.4598 -0.4351  0.2800
18683TIP3    H177464   3.392   5.359   2.942  0.0243  1.2897  0.2924
18683TIP3    H277465   3.539   5.394   2.953  0.1946  0.1396  2.3965
18684TIP3   OH277466   0.620   3.511   1.818 -0.4448 -0.4153 -0.0827
18684TIP3    H177467   0.552   3.472   1.763 -1.5097  0.8068  0.3113
18684TIP3    H277468   0.571   3.555   1.888  0.6420  1.7955 -0.6298
18685TIP3   OH277469   1.939   3.343   2.675  0.3018  0.1693 -0.3972
18685TIP3    H177470   2.007   3.276   2.676 -0.0219 -0.1768  1.0146
18685TIP3    H277471   1.986   3.426   2.675  0.7744 -0.0614  1.1989
18686TIP3   OH277472   1.575   4.265   4.455 -0.1796 -0.8643 -0.2311
18686TIP3    H177473   1.618   4.183   4.480 -0.3580 -0.8199  0.2286
18686TIP3    H277474   1.612   4.286   4.370  0.9710 -0.6477  0.3081
18687TIP3   OH277475   0.215   1.557  12.790 -0.3567 -0.0898  0.2829
18687TIP3    H177476   0.162   1.584  12.715 -1.1854 -0.2733  0.7876
18687TIP3    H277477   0.281   1.625  12.798 -1.3163  0.8607  0.4340
18688TIP3   OH277478   2.178   6.739   2.955  0.3445  0.3498 -0.3669
18688TIP3    H177479   2.110   6.674   2.969  1.0389 -0.2339  0.4341
18688TIP3    H277480   2.177   6.755   2.861  0.5138 -1.2421 -0.6769
18689TIP3   OH277481   4.312   1.557   5.917  0.8192  0.2278 -0.2315
18689TIP3    H177482   4.275   1.538   6.003  0.8876 -0.7383 -0.4079
18689TIP3    H277483   4.406   1.540   5.927  0.8421  0.2040 -0.4796
18690TIP3   OH277484   0.788   6.466   6.027 -0.4332 -0.2849 -0.0686
18690TIP3    H177485   0.780   6.547   5.977 -0.4386  0.0076  0.3937
18690TIP3    H277486   0.877   6.469   6.063 -1.0426  0.4571  1.5029
18691TIP3   OH277487   1.157   5.898   2.239 -0.2404 -0.4468  0.1530
18691TIP3    H177488   1.116   5.981   2.213 -2.8651 -1.3088  1.1546
18691TIP3    H277489   1.207   5.921   2.318 -1.0805  0.2038  0.5248
18692TIP3   OH277490   2.054   3.432  16.895 -0.3183  0.0176 -0.2082
18692TIP3    H177491   2.065   3.422  16.989  1.4355 -2.3026 -0.5889
18692TIP3    H277492   2.142   3.426  16.859 -1.1324 -1.3325 -2.1606
18693TIP3   OH277493   6.186   1.102   0.372 -0.2436  0.2013 -0.4176
18693TIP3    H177494   6.212   1.045   0.445 -2.5877 -0.5046 -0.0472
18693TIP3    H277495   6.177   1.042   0.298  2.3485  0.9517 -1.4351
18694TIP3   OH277496   1.547   5.549   5.889 -0.3062 -0.9119 -0.1907
18694TIP3    H177497   1.499   5.606   5.828 -0.0159  0.4008  0.7643
18694TIP3    H277498   1.635   5.542   5.852  0.3837  1.2905  0.8913
18695TIP3   OH277499   1.180   3.842  12.916 -0.5540 -0.0045 -0.5730
18695TIP3    H177500   1.177   3.853  12.820  0.4422  1.2785 -0.4915
18695TIP3    H277501   1.208   3.927  12.948  1.1286 -0.9833  0.7188
18696TIP3   OH277502   0.795   2.260  12.140  0.0330  0.2488  0.0802
18696TIP3    H177503   0.744   2.336  12.169  0.1818 -0.0486  1.1756
18696TIP3    H277504   0.886   2.286  12.153  0.1097  0.1206 -0.1898
18697TIP3   OH277505   6.063   1.285   6.358 -0.0248  0.1208 -0.2724
18697TIP3    H177506   6.145   1.252   6.393 -0.4558 -0.8729 -0.1763
18697TIP3    H277507   6.047   1.232   6.280 -1.1769 -0.5251  0.3810
18698TIP3   OH277508   2.254   1.720  17.283 -0.4224  0.1396 -0.3047
18698TIP3    H177509   2.272   1.630  17.312  0.0661  0.0620 -0.8387
18698TIP3    H277510   2.332   1.769  17.308 -1.5184  0.9087  1.9220
18699TIP3   OH277511   2.175   6.030   4.275  0.4373 -0.1043 -0.4580
18699TIP3    H177512   2.224   6.046   4.355  0.1796  1.9762 -0.6477
18699TIP3    H277513   2.108   5.965   4.299  1.2119 -0.5096  0.6325
18700TIP3   OH277514   4.451   0.889  13.600  0.1749 -0.1106 -0.1828
18700TIP3    H177515   4.466   0.948  13.675  0.0122 -0.6867  0.3091
18700TIP3    H277516   4.425   0.948  13.529 -1.5040  0.2987  0.7085
18701TIP3   OH277517   0.380   0.015   4.326  0.1500  0.6035  0.5873
18701TIP3    H177518   0.457  -0.035   4.297  0.5308  1.2899  0.3994
18701TIP3    H277519   0.357   0.069   4.251 -0.1654  0.8273  0.8447
18702TIP3   OH277520   6.061   5.482  12.682 -0.0885  0.6161 -0.0239
18702TIP3    H177521   6.145   5.517  12.710  0.3641  0.6287 -1.3185
18702TIP3    H277522   6.039   5.417  12.748  2.7036 -2.0084 -1.4361
18703TIP3   OH277523   4.163   3.659  13.677  0.2424  0.1344  0.0406
18703TIP3    H177524   4.167   3.573  13.635 -1.0963 -1.0010  2.0881
18703TIP3    H277525   4.236   3.708  13.639 -1.4005 -0.3692 -4.3637
18704TIP3   OH277526   1.462   3.685   0.270  0.6151  0.5598 -0.1266
18704TIP3    H177527   1.463   3.611   0.331 -0.9673  1.4898  1.1119
18704TIP3    H277528   1.546   3.680   0.224  1.9003 -0.1859  2.1555
18705TIP3   OH277529   0.833   2.715  11.416  0.3620 -0.0905 -0.1848
18705TIP3    H177530   0.896   2.652  11.451 -0.7405 -1.1593 -0.0450
18705TIP3    H277531   0.832   2.698  11.322  1.4379  1.0315 -0.4249
18706TIP3   OH277532   4.126   6.522  15.376  0.2222 -0.0827 -0.8978
18706TIP3    H177533   4.054   6.578  15.346 -1.4860 -2.3982 -1.4340
18706TIP3    H277534   4.203   6.579  15.378 -1.4787  2.3223 -0.9954
18707TIP3   OH277535   2.571   0.986  16.165 -0.6647  0.0371 -0.7383
18707TIP3    H177536   2.611   0.983  16.252 -0.0212 -1.2715 -1.0551
18707TIP3    H277537   2.501   0.921  16.167  2.2812 -3.5678 -2.5018
18708TIP3   OH277538   6.348   3.997  15.843 -0.0078  0.2954  0.7864
18708TIP3    H177539   6.271   3.983  15.789  0.4236 -1.6101  0.6018
18708TIP3    H277540   6.345   4.091  15.865 -1.1025  0.7567 -1.1024
18709TIP3   OH277541   5.537   2.927  14.875 -0.0578  0.0180  0.4348
18709TIP3    H177542   5.518   2.999  14.816 -1.5678 -0.5962  0.1188
18709TIP3    H277543   5.474   2.859  14.852  2.6269 -2.3029 -0.7280
18710TIP3   OH277544   5.826   1.047   0.917  0.3043 -0.2921  0.6124
18710TIP3    H177545   5.904   1.060   0.864  0.0663  0.5131  0.4426
18710TIP3    H277546   5.757   1.025   0.854  0.4309 -1.2033  0.7810
18711TIP3   OH277547   1.150   0.933  13.025 -0.4360 -0.3716 -0.3389
18711TIP3    H177548   1.095   0.905  12.952  1.9120 -2.9573 -1.2722
18711TIP3    H277549   1.230   0.967  12.984 -0.0215  0.3586  1.0149
18712TIP3   OH277550   4.742   2.031  12.241 -0.2937 -0.4630 -0.5493
18712TIP3    H177551   4.743   2.112  12.191  1.0931  0.0982  0.3325
18712TIP3    H277552   4.834   2.006  12.249 -0.4485 -0.5028  1.7126
18713TIP3   OH277553   5.509   3.631   0.420  0.1207 -1.0208  0.0788
18713TIP3    H177554   5.522   3.725   0.412  0.6308 -0.8531  2.2153
18713TIP3    H277555   5.474   3.604   0.336  0.2208  1.0301 -0.6701
18714TIP3   OH277556   5.737   1.219   4.987 -0.2919 -0.2184 -0.8564
18714TIP3    H177557   5.737   1.137   4.938 -1.5109 -0.4155 -0.5502
18714TIP3    H277558   5.647   1.229   5.018  0.2998  0.1904  0.8569
18715TIP3   OH277559   2.965   6.035   2.616 -0.5952 -0.6533  0.9747
18715TIP3    H177560   3.054   6.014   2.588 -0.9402 -1.5802  0.5233
18715TIP3    H277561   2.912   6.025   2.537 -1.4395 -2.3280  1.6899
18716TIP3   OH277562   2.073   2.110   6.764 -0.0685  0.1268 -0.1883
18716TIP3    H177563   2.129   2.042   6.727  1.8359  1.0874  0.8174
18716TIP3    H277564   2.039   2.157   6.688  1.8217  0.5532 -0.8259
18717TIP3   OH277565   1.306   4.731   2.182  0.2088  0.7754 -0.7189
18717TIP3    H177566   1.241   4.684   2.130 -1.0031  1.2498  0.3176
18717TIP3    H277567   1.340   4.798   2.123 -2.4933  2.5341 -0.4238
18718TIP3   OH277568   1.975   3.518   0.325  0.4098  0.2751  0.0105
18718TIP3    H177569   1.941   3.480   0.244 -0.5645  2.6439 -0.7709
18718TIP3    H277570   1.920   3.481   0.394  0.8562 -1.2978 -0.4443
18719TIP3   OH277571   0.488   4.018   2.128 -0.2022  0.1629  0.0033
18719TIP3    H177572   0.574   3.978   2.140  0.1397  0.8953  0.0628
18719TIP3    H277573   0.429   3.944   2.111  0.1325 -0.5109  1.5731
18720TIP3   OH277574   2.712   4.890   3.947 -0.0118  0.2274  0.1174
18720TIP3    H177575   2.680   4.961   4.004  1.4153 -0.2363  1.5747
18720TIP3    H277576   2.750   4.935   3.872 -1.9081  0.8618 -0.5219
18721TIP3   OH277577   2.363   2.835  12.504 -0.8971 -0.1607 -0.4457
18721TIP3    H177578   2.373   2.908  12.443 -1.6911 -0.1879 -0.6291
18721TIP3    H277579   2.271   2.811  12.496 -0.5939 -1.3277 -0.5509
18722TIP3   OH277580   3.454   1.827   4.442 -0.3920  0.5387  0.5092
18722TIP3    H177581   3.386   1.894   4.443  0.6134  1.5764  0.3472
18722TIP3    H277582   3.495   1.832   4.528  1.1855  1.7288 -0.2632
18723TIP3   OH277583   0.387   0.342   1.551  0.3433  0.8482  0.5946
18723TIP3    H177584   0.474   0.352   1.592 -0.3352 -0.7989  2.6205
18723TIP3    H277585   0.388   0.254   1.514 -0.2467  1.0600  0.0701
18724TIP3   OH277586   4.788   4.345  14.590  0.2644  0.0177 -0.4015
18724TIP3    H177587   4.781   4.338  14.495 -0.2880 -0.0013 -0.3606
18724TIP3    H277588   4.848   4.274  14.615  3.3417  2.1379 -1.0794
18725TIP3   OH277589   0.274   6.709  16.614  0.0308 -0.6804  0.1429
18725TIP3    H177590   0.235   6.775  16.671 -0.6202  0.4109 -1.5086
18725TIP3    H277591   0.206   6.643  16.604  0.2077 -0.9650  0.7208
18726TIP3   OH277592   3.064   1.950   4.648  0.2408  0.4568 -0.2549
18726TIP3    H177593   3.024   1.977   4.565 -3.1014 -2.7948  0.0425
18726TIP3    H277594   3.118   1.875   4.625 -0.7576 -0.5094  0.4247
18727TIP3   OH277595   2.756   4.384   6.092  0.1871  0.0733  0.3634
18727TIP3    H177596   2.852   4.380   6.097  0.1335 -0.3535  1.1953
18727TIP3    H277597   2.727   4.301   6.129 -0.5148  0.3468  0.4357
18728TIP3   OH277598   2.395   2.707  11.994 -0.2563 -0.8890  0.9254
18728TIP3    H177599   2.447   2.727  12.072 -1.2607 -0.3768  1.4872
18728TIP3    H277600   2.318   2.763  12.002 -0.4454 -0.9305 -0.3754
18729TIP3   OH277601   4.695   6.467   4.698  0.1077 -0.2702  0.5533
18729TIP3    H177602   4.702   6.561   4.713  0.1124  0.0413 -1.1785
18729TIP3    H277603   4.608   6.444   4.730  0.0285  0.3603  0.8107
18730TIP3   OH277604   0.802   2.691   2.661 -0.0506 -0.1779  0.2814
18730TIP3    H177605   0.731   2.638   2.623 -0.1876 -0.3300  0.7339
18730TIP3    H277606   0.779   2.697   2.754  1.2313 -1.3785  0.7167
18731TIP3   OH277607   6.719   0.173  13.383 -0.7429  0.4153 -0.0630
18731TIP3    H177608   6.768   0.095  13.356 -1.4414  0.6381 -2.2239
18731TIP3    H277609   6.778   0.220  13.441 -0.3819 -1.7966  1.5016
18732TIP3   OH277610   2.981   4.751   1.965  0.0426 -0.5442 -0.0847
18732TIP3    H177611   3.057   4.803   1.937 -0.8110  1.0383  0.3922
18732TIP3    H277612   2.906   4.801   1.934 -0.8518 -0.8886  1.4299
18733TIP3   OH277613   4.893   1.356  16.269 -0.3031  0.1524 -0.0554
18733TIP3    H177614   4.865   1.441  16.303 -0.0120  0.8596 -1.5005
18733TIP3    H277615   4.902   1.370  16.175  0.9497 -1.1607 -0.1544
18734TIP3   OH277616   4.880   5.974  10.834 -0.1350  0.0525  0.1007
18734TIP3    H177617   4.830   6.054  10.850 -0.7236  0.0595 -1.6328
18734TIP3    H277618   4.939   5.996  10.762 -0.9064 -1.2829 -0.9959
18735TIP3   OH277619   1.409   5.622   3.446  0.0287  0.2705  0.3102
18735TIP3    H177620   1.410   5.599   3.539 -1.1836  1.0595  0.5305
18735TIP3    H277621   1.316   5.633   3.424  0.3666  1.3644 -0.6768
18736TIP3   OH277622   2.301   0.691  14.825  0.0496 -0.2066 -0.1738
18736TIP3    H177623   2.257   0.775  14.835 -2.0490 -1.3303  0.8177
18736TIP3    H277624   2.379   0.697  14.880 -0.4651  0.8392  0.4526
18737TIP3   OH277625   1.533   3.565  16.693  0.1885  0.2149  0.5159
18737TIP3    H177626   1.544   3.514  16.773  3.2827 -2.5852 -1.4342
18737TIP3    H277627   1.468   3.517  16.642 -0.7237  1.2060  0.6993
18738TIP3   OH277628   5.291   4.569  15.410  0.4541  0.1207 -0.6918
18738TIP3    H177629   5.326   4.518  15.337 -1.0149 -0.1841 -1.2299
18738TIP3    H277630   5.197   4.547  15.411  0.5384 -0.3654  1.6827
18739TIP3   OH277631   2.793   1.520  15.293  1.0317 -0.0979 -0.2868
18739TIP3    H177632   2.860   1.545  15.230  0.7131 -1.1739 -1.0743
18739TIP3    H277633   2.756   1.438  15.259 -1.1813  0.8093 -0.2643
18740TIP3   OH277634   2.830   0.498   5.243  0.1201 -0.8233  0.2290
18740TIP3    H177635   2.911   0.488   5.293  0.2694 -2.0223 -0.2227
18740TIP3    H277636   2.801   0.587   5.261 -0.3567 -1.4947  3.2582
18741TIP3   OH277637   0.617   5.646   4.422 -0.3690  0.1729  0.2117
18741TIP3    H177638   0.544   5.588   4.445 -0.0487  0.4057  1.9297
18741TIP3    H277639   0.693   5.588   4.419 -0.6448 -0.1625 -2.0842
18742TIP3   OH277640   4.404   4.159  15.873 -0.3389  0.3516  0.2098
18742TIP3    H177641   4.323   4.121  15.839 -0.4512  2.1507 -1.7697
18742TIP3    H277642   4.382   4.249  15.893  1.3658  1.1744 -1.3317
18743TIP3   OH277643   2.895   2.010   1.472 -0.6132  0.9570  0.2617
18743TIP3    H177644   2.915   1.930   1.424 -1.7636  0.1962  1.0121
18743TIP3    H277645   2.945   2.078   1.426 -1.3008  0.1998 -1.7279
18744TIP3   OH277646   3.831   2.740   4.157  0.2839  0.3477  0.2695
18744TIP3    H177647   3.757   2.742   4.218 -1.7824 -0.6987 -2.0316
18744TIP3    H277648   3.878   2.660   4.181  1.3589  1.5110  2.3732
18745TIP3   OH277649   2.800   4.600   6.335  0.4358 -0.0386  0.4697
18745TIP3    H177650   2.775   4.666   6.400  0.8548  0.4535  0.1444
18745TIP3    H277651   2.889   4.576   6.360  1.5363  1.8780 -1.2410
18746TIP3   OH277652   6.626   6.171  12.174 -0.1049 -0.1252  0.3576
18746TIP3    H177653   6.649   6.264  12.177 -0.9057  0.0954 -0.1172
18746TIP3    H277654   6.629   6.148  12.081 -0.6956 -0.3669  0.3919
18747TIP3   OH277655   2.320   1.236   5.472  0.6207  1.1236 -0.0553
18747TIP3    H177656   2.270   1.306   5.431 -2.4160  0.2941  1.9041
18747TIP3    H277657   2.360   1.277   5.549  3.0349  1.7382 -1.5141
18748TIP3   OH277658   4.294   6.317   0.503 -0.4464  0.1947 -0.0649
18748TIP3    H177659   4.297   6.286   0.594 -0.4800  0.6548  0.0955
18748TIP3    H277660   4.287   6.237   0.451  0.6154 -0.1406  0.2752
18749TIP3   OH277661   1.892   0.056  12.210  0.0253  0.3038 -0.0702
18749TIP3    H177662   1.917   0.001  12.285  0.3426 -0.6839 -0.8737
18749TIP3    H277663   1.976   0.082  12.171 -0.0987  1.8834  0.6337
18750TIP3   OH277664   4.594   4.267   3.992 -0.0773  0.1533 -1.0043
18750TIP3    H177665   4.532   4.268   3.919 -0.9162  0.5584 -0.3066
18750TIP3    H277666   4.560   4.199   4.051 -0.6370  1.2688  0.0155
18751TIP3   OH277667   0.286   5.220  15.038 -0.0313 -0.7891 -0.3112
18751TIP3    H177668   0.360   5.235  14.980 -0.3448 -1.1640 -0.8177
18751TIP3    H277669   0.249   5.307  15.053  0.1049 -0.6806 -0.6044
18752TIP3   OH277670   6.086   6.505  17.130  0.4451  0.2630  0.5825
18752TIP3    H177671   5.997   6.488  17.100  1.2759  0.1061 -2.0779
18752TIP3    H277672   6.095   6.600  17.127  0.7393  0.2271 -0.5876
18753TIP3   OH277673   6.162   0.320   3.264  0.5671  0.3541 -0.2981
18753TIP3    H177674   6.135   0.248   3.321 -0.6144 -0.3970 -1.7450
18753TIP3    H277675   6.196   0.277   3.186  0.3773  1.3613 -0.9517
18754TIP3   OH277676   0.981   3.191   2.530  0.3578  0.2078 -0.1310
18754TIP3    H177677   0.925   3.133   2.583  2.5819 -0.1563  2.0123
18754TIP3    H277678   1.049   3.134   2.496  0.1267  0.8420 -1.7108
18755TIP3   OH277679   2.123   3.231  11.356  0.2046 -0.3186 -0.2202
18755TIP3    H177680   2.178   3.157  11.329  0.6259 -0.1452  0.1517
18755TIP3    H277681   2.156   3.305  11.303  0.9699  0.0015  0.6632
18756TIP3   OH277682   4.006   4.227  17.219 -0.1624  0.1416 -0.1400
18756TIP3    H177683   4.004   4.271  17.134  0.5680 -1.3533 -0.9861
18756TIP3    H277684   3.983   4.294  17.282  2.2394  2.1118 -1.1878
18757TIP3   OH277685   1.177   0.487   1.991 -0.1124  0.9373  0.2721
18757TIP3    H177686   1.118   0.475   1.916  0.7467  0.9350 -0.4204
18757TIP3    H277687   1.145   0.426   2.057 -0.8270  0.8723 -0.1276
18758TIP3   OH277688   4.773   3.212  13.760 -0.1424  0.1478  0.2045
18758TIP3    H177689   4.864   3.198  13.733 -0.6139 -0.8639 -0.9259
18758TIP3    H277690   4.736   3.124  13.768 -1.8148  0.5241 -2.2677
18759TIP3   OH277691   0.693   1.857  16.153  0.9800  0.0746 -0.1018
18759TIP3    H177692   0.602   1.877  16.173  1.9134  4.3900  0.8871
18759TIP3    H277693   0.739   1.866  16.236  2.3903 -2.0666 -0.5724
18760TIP3   OH277694   2.961   6.271   5.938 -0.2601  0.0475  0.0157
18760TIP3    H177695   2.906   6.309   6.006 -0.1152 -0.4822  0.4404
18760TIP3    H277696   3.010   6.345   5.902 -1.8055  0.6509 -0.9203
18761TIP3   OH277697   2.147   5.917  11.452  0.1021 -0.4662  0.1216
18761TIP3    H177698   2.241   5.914  11.467 -0.0357 -0.1136  1.0985
18761TIP3    H277699   2.138   5.913  11.356  1.0901 -0.7455  0.0338
18762TIP3   OH277700   2.651   4.045   0.834 -0.5255  0.5389 -0.2774
18762TIP3    H177701   2.653   4.068   0.927  0.0798 -0.5827  0.0009
18762TIP3    H277702   2.584   3.977   0.827 -0.5142  0.5629 -0.6500
18763TIP3   OH277703   3.289   0.826   4.415 -0.1301  0.0978  0.3025
18763TIP3    H177704   3.264   0.908   4.373 -3.9831 -1.0864 -0.1154
18763TIP3    H277705   3.233   0.821   4.493  0.4910 -1.8292  0.6827
18764TIP3   OH277706   4.390   2.133   1.692 -0.2945 -0.1326  0.1470
18764TIP3    H177707   4.295   2.125   1.703 -0.2281 -0.1637  0.7820
18764TIP3    H277708   4.424   2.046   1.710 -0.2161 -0.3560 -1.0409
18765TIP3   OH277709   1.648   0.617  14.136 -0.4341  0.1475 -0.5744
18765TIP3    H177710   1.584   0.646  14.071 -1.3810  0.2726  0.3765
18765TIP3    H277711   1.717   0.684  14.134 -0.8325  0.5567 -0.9136
18766TIP3   OH277712   6.599   2.000   2.452  0.0230 -0.8235  0.5158
18766TIP3    H177713   6.509   1.978   2.430  0.3526 -0.9747 -0.7573
18766TIP3    H277714   6.650   1.924   2.426  0.8865  0.4122 -1.6969
18767TIP3   OH277715   0.473   4.946  15.001  0.0515  0.0163  0.2116
18767TIP3    H177716   0.419   5.024  15.015  1.2602  0.8669  0.3412
18767TIP3    H277717   0.416   4.884  14.957 -0.4761  1.6151 -1.4803
18768TIP3   OH277718   4.008   0.138   2.144  0.0519 -0.3772  0.9092
18768TIP3    H177719   3.956   0.194   2.201  0.8675  1.8424 -0.3780
18768TIP3    H277720   3.987   0.169   2.055  2.3028 -0.5044  0.2720
18769TIP3   OH277721   5.427   6.443   4.373  0.9031  0.2181 -0.1038
18769TIP3    H177722   5.488   6.397   4.316  1.0531  1.3543 -0.8972
18769TIP3    H277723   5.448   6.536   4.361 -1.2728  0.6840 -0.7819
18770TIP3   OH277724   6.682   6.298  11.106  0.2666 -0.2647  0.4466
18770TIP3    H177725   6.620   6.365  11.078 -1.2639 -1.2222  1.4337
18770TIP3    H277726   6.760   6.348  11.133 -0.6123  1.0712  0.6105
18771TIP3   OH277727   3.602   0.311   3.973  0.1159 -0.0238  0.7922
18771TIP3    H177728   3.508   0.312   3.989 -0.1343 -1.7652 -0.2984
18771TIP3    H277729   3.624   0.403   3.955 -1.6243  0.2412 -0.2422
18772TIP3   OH277730   0.623   5.863  12.066 -0.2960  0.4584  0.2507
18772TIP3    H177731   0.705   5.865  12.016  1.5364 -0.6605  2.9768
18772TIP3    H277732   0.648   5.829  12.152 -4.0040 -2.2584  0.5092
18773TIP3   OH277733   0.584   3.218  17.090  0.0914  0.0288  0.1556
18773TIP3    H177734   0.550   3.138  17.130  0.0509  0.5068  1.0989
18773TIP3    H277735   0.533   3.289  17.129  0.0898  0.5215 -0.7069
18774TIP3   OH277736   3.789   0.935   0.375 -0.2090  0.3290  0.2792
18774TIP3    H177737   3.755   0.857   0.331 -2.0329  1.5356 -0.5606
18774TIP3    H277738   3.824   0.990   0.305 -0.1249  0.8489  0.7200
18775TIP3   OH277739   6.107   5.862   6.329  0.4778 -0.1662  0.2016
18775TIP3    H177740   6.038   5.919   6.293  1.3792  0.9466  0.1522
18775TIP3    H277741   6.088   5.857   6.423 -1.0028 -1.8221 -0.1390
18776TIP3   OH277742   6.206   3.826  11.134  0.3521 -0.0077 -0.3857
18776TIP3    H177743   6.114   3.804  11.153  0.0816  0.7855 -0.7426
18776TIP3    H277744   6.215   3.917  11.161  1.1004 -0.1463 -0.1580
18777TIP3   OH277745   4.219   3.546  12.564 -0.3123 -0.6722 -0.3519
18777TIP3    H177746   4.222   3.585  12.476  0.7662 -0.9394 -0.4401
18777TIP3    H277747   4.310   3.543  12.592 -0.6340 -0.7717  0.7043
18778TIP3   OH277748   2.066   2.494  14.559  0.1526  0.3288 -0.3097
18778TIP3    H177749   2.115   2.447  14.491  0.3258 -0.5059  0.3749
18778TIP3    H277750   2.103   2.583  14.557 -1.1100  0.8732 -2.5336
18779TIP3   OH277751   1.205   3.639   4.085  0.2681  0.3572  0.0349
18779TIP3    H177752   1.282   3.680   4.047  1.1825  0.1729  1.6152
18779TIP3    H277753   1.151   3.713   4.114  0.0572  0.4775 -0.6423
18780TIP3   OH277754   5.179   3.034   1.238  0.6654 -0.3345  0.7439
18780TIP3    H177755   5.118   3.061   1.169  1.8919  0.8491  0.0732
18780TIP3    H277756   5.123   3.010   1.312 -0.6536 -1.0102 -0.4443
18781TIP3   OH277757   3.834   4.073   2.136  0.2987  0.1951  0.2730
18781TIP3    H177758   3.836   4.146   2.198 -0.5647  0.0052  0.5417
18781TIP3    H277759   3.832   3.995   2.192 -0.7909  0.0289  0.0129
18782TIP3   OH277760   4.176   4.054  15.770  0.1954 -0.5671  0.0363
18782TIP3    H177761   4.153   3.961  15.770 -0.5076 -0.4207 -0.9948
18782TIP3    H277762   4.094   4.099  15.790  0.1622 -0.1267 -1.0005
18783TIP3   OH277763   5.967   4.081  15.145 -0.7130 -0.9503 -0.0801
18783TIP3    H177764   6.055   4.058  15.115 -1.0399  1.1798 -3.1811
18783TIP3    H277765   5.916   4.001  15.132 -0.0335 -1.1197 -2.1785
18784TIP3   OH277766   3.630   1.048  14.625  0.3637  0.5987 -0.8416
18784TIP3    H177767   3.696   1.086  14.566 -0.6912  0.5858 -2.0816
18784TIP3    H277768   3.645   1.091  14.709  2.4434  0.0348 -0.8552
18785TIP3   OH277769   3.571   2.213   3.802  0.0814  0.2999  0.0700
18785TIP3    H177770   3.638   2.165   3.851  0.7136  0.4290 -0.6533
18785TIP3    H277771   3.517   2.254   3.870  0.5142 -0.0974  0.6717
18786TIP3   OH277772   4.021   5.730   4.211 -0.4698  0.3807  0.8246
18786TIP3    H177773   4.046   5.817   4.178 -2.0466  1.3434  2.0279
18786TIP3    H277774   4.055   5.728   4.301  0.8935 -0.9034  0.3272
18787TIP3   OH277775   3.785   0.537  13.625  0.4165  0.1857 -0.0554
18787TIP3    H177776   3.725   0.486  13.571 -0.8753  0.5519  1.0045
18787TIP3    H277777   3.731   0.604  13.666  1.5896  0.6918  0.7378
18788TIP3   OH277778   0.771   2.610  17.100  0.5683  0.0341  0.4693
18788TIP3    H177779   0.730   2.527  17.079  2.4129 -1.1084  1.1230
18788TIP3    H277780   0.727   2.640  17.180 -0.9133  0.3222 -0.4295
18789TIP3   OH277781   4.244   6.676   1.237 -0.1912 -0.0351 -0.4162
18789TIP3    H177782   4.332   6.649   1.212  0.8330  3.6149 -1.4517
18789TIP3    H277783   4.186   6.628   1.178  1.2212 -1.1541 -0.9414
18790TIP3   OH277784   6.427   4.068   0.874  0.0596 -0.7664 -0.5780
18790TIP3    H177785   6.477   3.995   0.837 -0.7295 -1.0391 -1.1365
18790TIP3    H277786   6.387   4.031   0.953 -1.3376 -1.3362 -1.5118
18791TIP3   OH277787   0.877   3.775   5.919 -0.0239 -0.5794  0.2705
18791TIP3    H177788   0.817   3.716   5.965  0.2740 -0.0738  1.3353
18791TIP3    H277789   0.824   3.814   5.850 -1.1879  0.5037  1.7160
18792TIP3   OH277790   4.485   5.987   0.628 -0.1461  0.7478  0.0909
18792TIP3    H177791   4.505   5.949   0.714 -0.4033  0.4188  0.0042
18792TIP3    H277792   4.418   6.053   0.646  1.8717  2.8075  0.5943
18793TIP3   OH277793   2.562   3.699   4.672 -0.7748  0.2479  0.5178
18793TIP3    H177794   2.608   3.773   4.711  1.0871  0.4940 -1.9085
18793TIP3    H277795   2.537   3.730   4.585 -1.2958 -1.4966  0.0079
18794TIP3   OH277796   0.079   4.842   0.526  0.4053 -0.3416  0.6469
18794TIP3    H177797   0.049   4.806   0.609  3.4938 -3.6371  0.5613
18794TIP3    H277798   0.029   4.795   0.459  1.5204 -1.5317  0.6161
18795TIP3   OH277799   1.920   4.850  10.622  0.4647  1.0648 -0.0042
18795TIP3    H177800   1.874   4.829  10.541  2.0047  1.5875 -1.0774
18795TIP3    H277801   1.987   4.781  10.630  0.0155  0.7470  1.0904
18796TIP3   OH277802   2.305   4.720  13.810  0.1038 -0.0064 -0.2884
18796TIP3    H177803   2.356   4.703  13.731  1.8358 -0.4667  0.8659
18796TIP3    H277804   2.346   4.666  13.878 -2.7851 -1.4728  0.4652
18797TIP3   OH277805   6.179   5.567  15.983  0.4593 -0.1122  0.3026
18797TIP3    H177806   6.216   5.546  16.069  1.1693  1.5088  0.4487
18797TIP3    H277807   6.140   5.653  15.995  0.1909 -0.0529 -0.8926
18798TIP3   OH277808   1.340   6.538   2.369  1.1720 -0.5094  0.2626
18798TIP3    H177809   1.400   6.553   2.296 -0.9511  1.0800 -1.2482
18798TIP3    H277810   1.364   6.604   2.434  1.7375 -0.6083  0.1611
18799TIP3   OH277811   2.787   6.539  13.846  0.5136  0.7700 -0.0011
18799TIP3    H177812   2.873   6.551  13.886  0.5467  2.0229 -0.3984
18799TIP3    H277813   2.791   6.452  13.807  0.2806 -0.7705  3.1284
18800TIP3   OH277814   1.709   5.402   3.452  0.4029 -0.4543 -0.2759
18800TIP3    H177815   1.790   5.356   3.427  1.3192  1.5937 -1.3158
18800TIP3    H277816   1.686   5.454   3.375 -1.3224 -0.1623  0.3994
18801TIP3   OH277817   4.323   3.053   4.623 -0.6006 -0.0357 -0.7334
18801TIP3    H177818   4.389   3.090   4.563 -1.7415 -0.9586 -2.6425
18801TIP3    H277819   4.293   3.128   4.674 -0.6500  1.0991 -2.3669
18802TIP3   OH277820   1.222   2.434  11.594  0.0346 -0.2119 -0.4420
18802TIP3    H177821   1.302   2.381  11.586  0.4963  0.2402  0.8001
18802TIP3    H277822   1.211   2.444  11.689 -1.6923 -0.5364 -0.5864
18803TIP3   OH277823   2.431   5.798   2.074  0.7399 -0.4075 -0.3585
18803TIP3    H177824   2.455   5.854   2.000 -0.7321 -0.5579 -0.9864
18803TIP3    H277825   2.351   5.839   2.109  1.1862 -0.5737  0.8981
18804TIP3   OH277826   2.329   3.459  15.971  0.0611  0.0671  0.0388
18804TIP3    H177827   2.384   3.491  15.900 -1.4658  0.7381 -0.9017
18804TIP3    H277828   2.289   3.379  15.936 -1.8143  1.1681 -0.4792
18805TIP3   OH277829   5.811   5.614   6.098 -0.2933  0.1463  0.0858
18805TIP3    H177830   5.824   5.612   6.193 -0.4335 -1.7181  0.1017
18805TIP3    H277831   5.896   5.589   6.062 -0.5073 -0.1013 -0.2472
18806TIP3   OH277832   3.448   5.672  10.852 -0.0346  0.5174  0.3973
18806TIP3    H177833   3.505   5.610  10.806  0.9148  1.5557  0.1311
18806TIP3    H277834   3.379   5.692  10.789  1.0464  1.6319 -0.4750
18807TIP3   OH277835   1.814   2.174   0.480 -0.0982 -0.1061  0.0776
18807TIP3    H177836   1.838   2.226   0.557  1.0421  0.5396 -0.6875
18807TIP3    H277837   1.887   2.113   0.468 -0.4552 -0.4754 -0.2644
18808TIP3   OH277838   5.580   4.323   4.264 -0.2130 -0.5227 -0.0794
18808TIP3    H177839   5.495   4.316   4.221  0.8408 -1.1395 -2.1984
18808TIP3    H277840   5.602   4.416   4.258 -0.2986 -0.5223 -0.3899
18809TIP3   OH277841   4.884   0.198   2.315  0.2607 -0.3391 -0.2703
18809TIP3    H177842   4.931   0.211   2.233 -0.7706  0.1961 -0.7894
18809TIP3    H277843   4.825   0.125   2.298 -1.5954  1.2051 -0.7696
18810TIP3   OH277844   5.084   5.586  12.967  0.2143 -0.7166 -0.0255
18810TIP3    H177845   5.130   5.561  12.887 -0.8389 -2.1900 -0.2342
18810TIP3    H277846   5.013   5.522  12.974 -0.6459  0.3190  1.2745
18811TIP3   OH277847   4.169   1.867  15.501  0.0871  0.9028 -0.2177
18811TIP3    H177848   4.167   1.923  15.578 -1.0716  0.6312 -0.0367
18811TIP3    H277849   4.152   1.926  15.428 -1.3181  0.7946 -0.0107
18812TIP3   OH277850   4.613   6.417   4.301 -0.1142 -0.3396  0.1491
18812TIP3    H177851   4.565   6.496   4.327  0.0238 -0.2885  0.2515
18812TIP3    H277852   4.704   6.436   4.323 -0.0694 -0.4980  0.1032
18813TIP3   OH277853   4.850   2.608   0.362 -0.3106 -0.7217 -0.2024
18813TIP3    H177854   4.755   2.596   0.361 -0.9979  2.9412  1.7091
18813TIP3    H277855   4.881   2.557   0.437 -0.7621 -1.7329 -0.6857
18814TIP3   OH277856   3.221   0.151   0.337  0.1228 -0.6540  0.5115
18814TIP3    H177857   3.247   0.229   0.386  0.4013 -0.2834 -0.1980
18814TIP3    H277858   3.296   0.092   0.344  0.1946 -0.5683  0.4757
18815TIP3   OH277859   3.023   0.777   0.612  0.0328  0.4305  0.6019
18815TIP3    H177860   3.064   0.761   0.697 -0.6479  0.1404  0.8791
18815TIP3    H277861   3.060   0.710   0.554 -0.9724 -0.6184  1.1577
18816TIP3   OH277862   2.891   6.676   4.179  0.3757  0.5181  0.7631
18816TIP3    H177863   2.901   6.733   4.255 -1.2900  0.5938  0.9476
18816TIP3    H277864   2.797   6.675   4.161  0.8074  1.6363 -2.1520
18817TIP3   OH277865   6.056   6.163  16.351  0.5194  0.3607 -0.7565
18817TIP3    H177866   5.993   6.129  16.414  1.3093  0.0271 -0.1349
18817TIP3    H277867   6.016   6.147  16.266  0.5661 -1.5106 -0.4544
18818TIP3   OH277868   6.589   5.641   3.668 -0.4197 -0.2592  0.5232
18818TIP3    H177869   6.535   5.706   3.714  0.2463  1.2146 -0.6855
18818TIP3    H277870   6.671   5.687   3.650  0.1930 -1.5556 -0.1339
18819TIP3   OH277871   5.070   4.758   0.728  0.7097  0.2106  0.1848
18819TIP3    H177872   5.074   4.697   0.802  1.1486 -0.3143 -0.2683
18819TIP3    H277873   5.007   4.824   0.756 -2.0379 -1.9599 -0.4378
18820TIP3   OH277874   4.344   2.006  16.253 -0.3087 -0.2900  0.6234
18820TIP3    H177875   4.354   2.056  16.172  2.4702  1.0874  1.7084
18820TIP3    H277876   4.287   2.060  16.308  1.8537  1.3172  1.4032
18821TIP3   OH277877   0.359   1.837  17.087 -0.3706 -0.4137  0.0147
18821TIP3    H177878   0.439   1.826  17.138 -0.3413  0.8173  0.2481
18821TIP3    H277879   0.303   1.764  17.116  1.0633 -1.9975 -1.0029
18822TIP3   OH277880   2.026   5.733  11.612 -0.9437 -0.6389 -0.0750
18822TIP3    H177881   1.945   5.713  11.565 -1.8424 -0.0536  1.1623
18822TIP3    H277882   2.069   5.799  11.558 -1.5153 -0.6193 -0.5164
18823TIP3   OH277883   4.643   5.563  12.643 -0.0447 -0.6218  0.3840
18823TIP3    H177884   4.567   5.616  12.666 -1.0427 -1.7958 -0.1292
18823TIP3    H277885   4.717   5.624  12.648 -1.1039  0.7314  0.1330
18824TIP3   OH277886   2.108   3.829   3.758  0.3240  0.2390  0.0512
18824TIP3    H177887   2.103   3.744   3.801 -0.9044  0.9177  1.3217
18824TIP3    H277888   2.148   3.887   3.823 -0.3763  0.9964 -0.1650
18825TIP3   OH277889   4.588   0.078   4.110  0.1593 -0.0313  0.6541
18825TIP3    H177890   4.514   0.021   4.133  0.2816  0.1281  1.4776
18825TIP3    H277891   4.616   0.115   4.193  0.2106  1.0895  0.1522
18826TIP3   OH277892   5.490   4.067   1.814 -0.0269 -0.1073 -0.0510
18826TIP3    H177893   5.479   4.111   1.730 -0.0126  1.0144  0.5267
18826TIP3    H277894   5.459   4.130   1.879 -0.6701 -1.2055  0.7531
18827TIP3   OH277895   5.155   1.174  10.679  0.2309  0.5921  0.1751
18827TIP3    H177896   5.134   1.095  10.628  0.0417  1.2885 -0.8632
18827TIP3    H277897   5.143   1.148  10.770 -1.0550 -0.2328 -0.2031
18828TIP3   OH277898   2.687   2.633  16.680 -0.6542 -0.4606 -0.2571
18828TIP3    H177899   2.758   2.569  16.681  0.2248  0.4652  1.2456
18828TIP3    H277900   2.726   2.713  16.715 -2.2317  0.3213 -0.1685
18829TIP3   OH277901   0.524   2.531   1.531  0.8764  0.2442 -0.4213
18829TIP3    H177902   0.442   2.565   1.566  1.2632  0.4994  0.2657
18829TIP3    H277903   0.588   2.599   1.549  1.3223 -0.1264 -0.5795
18830TIP3   OH277904   6.433   4.070   5.811  0.0871 -0.7953 -0.9622
18830TIP3    H177905   6.445   4.055   5.905  2.6494 -2.0286 -1.4145
18830TIP3    H277906   6.390   3.990   5.780 -1.1036 -0.2355 -0.8431
18831TIP3   OH277907   2.601   3.650  13.722 -0.1662 -0.2018 -0.2645
18831TIP3    H177908   2.583   3.667  13.630 -0.3964  1.4192  0.0489
18831TIP3    H277909   2.627   3.735  13.757  1.1960 -1.0523  0.8854
18832TIP3   OH277910   1.274   6.287   4.717 -0.1931  0.1990 -0.4736
18832TIP3    H177911   1.358   6.245   4.700 -0.1192 -0.4349  1.2452
18832TIP3    H277912   1.209   6.222   4.693 -0.2510  0.8467 -2.2217
18833TIP3   OH277913   0.803   1.103   3.371  0.4465 -0.1289 -0.5268
18833TIP3    H177914   0.879   1.162   3.367 -0.9718  1.8087 -0.4290
18833TIP3    H277915   0.801   1.073   3.462 -1.0550  2.9856  0.6347
18834TIP3   OH277916   5.674   6.535  13.663 -0.3423 -0.0731 -0.2137
18834TIP3    H177917   5.598   6.512  13.609  0.1884  1.6335 -1.8211
18834TIP3    H277918   5.638   6.588  13.734 -0.8124 -0.4919 -0.1338
18835TIP3   OH277919   5.918   0.314   5.624 -0.0501 -0.2009  0.6032
18835TIP3    H177920   5.881   0.315   5.712  2.0721 -0.4879  1.5843
18835TIP3    H277921   5.920   0.407   5.598 -0.6631 -0.1110  0.8671
18836TIP3   OH277922   4.366   3.131   4.010 -0.3391  0.1868 -0.2301
18836TIP3    H177923   4.276   3.109   3.986 -0.2207 -0.4274 -0.1375
18836TIP3    H277924   4.375   3.223   3.987 -2.1396  1.3584  3.1149
18837TIP3   OH277925   0.351   2.001  14.143 -0.2831  0.1125  0.4695
18837TIP3    H177926   0.274   1.972  14.192  0.3601  1.2458  2.2584
18837TIP3    H277927   0.396   2.061  14.203 -0.4458  3.2040 -2.1779
18838TIP3   OH277928   3.266   5.241  17.122  0.2460  0.4280 -0.2254
18838TIP3    H177929   3.255   5.246  17.217  0.2426  0.9814 -0.2535
18838TIP3    H277930   3.299   5.153  17.106  0.6173  0.4650  0.3275
18839TIP3   OH277931   3.118   3.147  13.375 -0.1392  0.6487  0.0719
18839TIP3    H177932   3.175   3.217  13.406 -0.3885  0.4765  0.9682
18839TIP3    H277933   3.148   3.128  13.286  0.3835  1.4071  0.0810
18840TIP3   OH277934   4.152   3.409  16.109 -0.4765 -0.0221 -0.4435
18840TIP3    H177935   4.153   3.505  16.104  1.4723  0.0429  0.1885
18840TIP3    H277936   4.191   3.381  16.026  0.1533 -0.1888 -0.1029
18841TIP3   OH277937   0.497   4.415   2.551 -0.1870  0.0936 -0.3370
18841TIP3    H177938   0.494   4.373   2.637  0.0474  0.6896 -0.0333
18841TIP3    H277939   0.430   4.484   2.556 -1.6759 -1.1995 -1.3576
18842TIP3   OH277940   6.017   4.997   3.275 -0.3552 -0.0873 -0.1041
18842TIP3    H177941   6.008   4.990   3.180  1.0372 -0.1825 -0.2470
18842TIP3    H277942   5.973   4.919   3.309 -1.0255  0.0460 -0.6463
18843TIP3   OH277943   1.889   3.546  11.358  0.1773 -0.3841 -0.8694
18843TIP3    H177944   1.834   3.526  11.283 -0.9903 -0.1525 -0.1041
18843TIP3    H277945   1.941   3.622  11.331 -0.8587  0.2429 -1.1498
18844TIP3   OH277946   4.538   6.016  14.234 -0.4418 -0.3893 -0.1772
18844TIP3    H177947   4.479   6.039  14.161 -1.6881 -1.4028  0.4727
18844TIP3    H277948   4.484   5.963  14.293  0.4576  0.6253  1.6371
18845TIP3   OH277949   5.997   4.446  11.312 -0.5909 -0.2101 -0.0544
18845TIP3    H177950   5.986   4.424  11.220 -0.4689 -0.4886 -0.0015
18845TIP3    H277951   6.087   4.478  11.319 -0.8545  0.5721 -0.1815
18846TIP3   OH277952   1.164   1.657   1.328  0.2028  0.1044 -0.4720
18846TIP3    H177953   1.166   1.571   1.371 -3.0406  0.7034  1.2200
18846TIP3    H277954   1.081   1.696   1.357  1.1394  3.4788 -1.8618
18847TIP3   OH277955   5.791   6.608   3.759  0.2079  0.7085 -0.1229
18847TIP3    H177956   5.781   6.580   3.850  0.1867  0.0644 -0.3177
18847TIP3    H277957   5.707   6.588   3.719  0.4176  0.4303 -0.4276
18848TIP3   OH277958   4.871   5.959   1.750  0.3575 -0.2189 -0.0725
18848TIP3    H177959   4.901   5.873   1.778  1.0779  0.3043  0.8242
18848TIP3    H277960   4.809   5.986   1.819 -0.5303 -0.3748 -0.7947
18849TIP3   OH277961   5.946   6.430   4.768 -0.6221  0.1155 -0.6451
18849TIP3    H177962   5.867   6.398   4.812 -0.1143  0.4869  0.6062
18849TIP3    H277963   5.938   6.525   4.771 -0.6063  0.1454 -1.4340
18850TIP3   OH277964   1.132   4.087  15.571  0.1133  0.0338 -0.0843
18850TIP3    H177965   1.120   4.084  15.666 -1.3381 -2.1257 -0.2767
18850TIP3    H277966   1.066   4.148  15.540  1.6935  2.0784  0.3741
18851TIP3   OH277967   3.692   4.750  14.030  0.2007  0.6126  0.4252
18851TIP3    H177968   3.636   4.800  14.089  0.7932  1.0713  0.6053
18851TIP3    H277969   3.651   4.759  13.944 -0.1814  0.6653  0.6112
18852TIP3   OH277970   6.682   1.179  14.760  0.2480 -0.1312  0.2433
18852TIP3    H177971   6.609   1.143  14.709  0.9073 -0.2109 -0.6743
18852TIP3    H277972   6.685   1.272  14.736  1.5423 -0.4795 -1.1428
18853TIP3   OH277973   3.204   0.343  11.486  0.1181 -0.0211 -0.8206
18853TIP3    H177974   3.173   0.433  11.478 -0.9517  0.0121  2.2632
18853TIP3    H277975   3.135   0.290  11.445 -1.0085  0.4234  0.4316
18854TIP3   OH277976   4.184   4.386  15.590  0.0757  0.1093 -0.3037
18854TIP3    H177977   4.278   4.367  15.580 -0.4161 -2.5210 -0.5900
18854TIP3    H277978   4.170   4.387  15.684  0.1988 -0.5856 -0.2756
18855TIP3   OH277979   1.838   3.854  12.288 -0.3830  0.1132  0.1725
18855TIP3    H177980   1.742   3.860  12.296 -0.4520  2.0646 -1.5537
18855TIP3    H277981   1.852   3.804  12.207  0.0988 -0.5305  0.6370
18856TIP3   OH277982   5.563   1.186   3.651  0.3689 -0.3399 -0.8960
18856TIP3    H177983   5.485   1.131   3.660  0.4335 -0.2911  0.1536
18856TIP3    H277984   5.628   1.130   3.608  0.0793 -0.7148 -0.8477
18857TIP3   OH277985   3.134   4.642  13.014 -0.0283  0.5872 -0.5666
18857TIP3    H177986   3.147   4.735  13.030 -1.0825  0.8124 -0.9408
18857TIP3    H277987   3.062   4.617  13.071  0.3095 -0.0292 -0.3975
18858TIP3   OH277988   6.353   5.570   1.346  0.7352  0.5319  0.2784
18858TIP3    H177989   6.338   5.662   1.370 -5.9630  0.2955 -1.0217
18858TIP3    H277990   6.329   5.565   1.253  1.2078 -2.5239  0.2140
18859TIP3   OH277991   3.706   3.736   0.707 -0.2664  0.0298 -0.0177
18859TIP3    H177992   3.720   3.680   0.631 -0.8882 -2.4290  1.5583
18859TIP3    H277993   3.790   3.734   0.754 -0.4804 -0.1191  0.3638
18860TIP3   OH277994   5.422   4.633   6.509  0.0447  0.0226  0.0497
18860TIP3    H177995   5.362   4.608   6.578  0.5661  0.3580  0.6442
18860TIP3    H277996   5.484   4.560   6.502 -0.6080 -0.4652 -0.7844
18861TIP3   OH277997   4.649   1.009  13.106  0.4147 -0.2784  0.1956
18861TIP3    H177998   4.575   0.964  13.064  0.0688 -0.6827  1.2045
18861TIP3    H277999   4.667   0.957  13.184  1.6564 -0.0761  0.0616
18862TIP3   OH278000   6.057   1.343   0.328 -0.1895  0.2301  0.9069
18862TIP3    H178001   6.139   1.295   0.340  0.0935  0.8908  1.7080
18862TIP3    H278002   5.991   1.275   0.315  0.7408 -0.2953 -1.6217
18863TIP3   OH278003   5.143   6.204   1.494 -0.0658 -0.3610  0.0251
18863TIP3    H178004   5.196   6.175   1.420 -2.5906 -1.5839 -1.4540
18863TIP3    H278005   5.195   6.185   1.571  1.8245 -0.9730 -1.3444
18864TIP3   OH278006   6.154   0.280  16.039  0.0737  0.2593 -0.0228
18864TIP3    H178007   6.088   0.309  16.102 -1.7396 -3.3878  0.0178
18864TIP3    H278008   6.223   0.240  16.093  1.6238  2.5550 -0.1647
18865TIP3   OH278009   5.239   0.677  12.184  0.3015 -0.0127 -0.0996
18865TIP3    H178010   5.310   0.726  12.142 -0.4523  2.1341  0.9974
18865TIP3    H278011   5.223   0.603  12.125  2.9953 -0.2405 -0.6989
18866TIP3   OH278012   5.319   5.948  15.792  0.2589 -0.0756  0.1520
18866TIP3    H178013   5.322   6.040  15.819  0.3831 -0.2301  0.6692
18866TIP3    H278014   5.389   5.941  15.727 -0.2354  0.3646 -0.4553
18867TIP3   OH278015   4.093   6.026   0.073  0.0350 -0.1203  0.0410
18867TIP3    H178016   4.004   5.996   0.092 -0.0638  0.1891  0.0660
18867TIP3    H278017   4.147   5.947   0.082 -0.0046  0.0092  1.6289
18868TIP3   OH278018   0.856   5.497  12.924 -0.4698 -0.1954  0.1866
18868TIP3    H178019   0.845   5.561  12.995 -0.0413 -1.0722  1.0590
18868TIP3    H278020   0.900   5.545  12.854 -0.4631  0.5489  0.6971
18869TIP3   OH278021   2.320   4.409  14.222 -0.0404  0.1438 -0.0079
18869TIP3    H178022   2.261   4.405  14.147 -1.1609 -0.3183  0.8671
18869TIP3    H278023   2.270   4.370  14.294  1.7195 -1.2805  0.5232
18870TIP3   OH278024   1.850   4.890  14.747 -0.4537  0.0165  1.0350
18870TIP3    H178025   1.822   4.970  14.793 -0.4842 -0.2413  1.4748
18870TIP3    H278026   1.813   4.819  14.799 -1.4792 -0.2699 -0.0612
18871TIP3   OH278027   0.364   4.691  16.505  0.4058  0.1912 -0.1903
18871TIP3    H178028   0.307   4.720  16.434  0.6976 -0.9781 -0.9224
18871TIP3    H278029   0.452   4.695  16.469  0.4655 -1.5777 -0.3587
18872TIP3   OH278030   5.548   1.713   4.682 -0.8937 -0.3344 -0.4975
18872TIP3    H178031   5.642   1.719   4.701 -0.8300 -3.3134  0.6577
18872TIP3    H278032   5.510   1.790   4.724  0.6396 -1.0304  2.4439
18873TIP3   OH278033   3.266   4.187  12.446  0.2009  0.2090  0.3257
18873TIP3    H178034   3.201   4.209  12.379 -0.5171 -3.8469 -0.5844
18873TIP3    H278035   3.245   4.243  12.520 -3.3850  0.1557 -0.4939
18874TIP3   OH278036   1.787   4.503   0.840 -0.4620 -0.6990 -0.6946
18874TIP3    H178037   1.815   4.424   0.884 -0.6186 -1.5835 -2.1167
18874TIP3    H278038   1.866   4.556   0.832 -0.0436 -1.3637 -1.0344
18875TIP3   OH278039   0.674   5.181  15.213 -0.6845 -0.5108 -0.0167
18875TIP3    H178040   0.609   5.111  15.209 -1.0927 -0.2787  1.7114
18875TIP3    H278041   0.726   5.171  15.133 -2.7917 -0.7368 -1.4523
18876TIP3   OH278042   5.132   6.149   1.002  0.3021 -0.0572  0.3849
18876TIP3    H178043   5.080   6.193   0.935 -0.2248 -1.5954 -0.2650
18876TIP3    H278044   5.094   6.179   1.085  0.6562  1.5005  0.0012
18877TIP3   OH278045   2.832   4.549   2.194  0.5617 -0.2750 -0.0631
18877TIP3    H178046   2.770   4.574   2.263  3.2736  0.4248  2.3089
18877TIP3    H278047   2.835   4.624   2.135  0.0416  0.1540  0.4553
18878TIP3   OH278048   0.792   0.216   6.273 -0.5466  0.3886  0.3438
18878TIP3    H178049   0.753   0.206   6.359 -1.6662  1.2724 -0.0332
18878TIP3    H278050   0.883   0.190   6.284 -1.0736 -1.1462  1.3891
18879TIP3   OH278051   4.966   2.112  11.432 -0.3081  0.2624 -0.5803
18879TIP3    H178052   4.930   2.168  11.500  0.5140  0.1124  0.0013
18879TIP3    H278053   4.941   2.023  11.459  2.3911 -0.0990  1.1457
18880TIP3   OH278054   0.793   3.238   2.197 -0.4716  0.3609 -0.5351
18880TIP3    H178055   0.738   3.230   2.119 -0.3409  0.4043 -0.6322
18880TIP3    H278056   0.776   3.157   2.246  0.2292 -0.1511 -1.1137
18881TIP3   OH278057   5.892   4.050   1.435 -0.2544 -0.2931 -0.3205
18881TIP3    H178058   5.931   3.963   1.445 -1.2427 -0.5698  1.4522
18881TIP3    H278059   5.871   4.055   1.342  2.3956 -0.7737 -1.0505
18882TIP3   OH278060   5.685   0.970  15.056  0.2619  0.7211  0.0396
18882TIP3    H178061   5.722   0.887  15.027  0.6723  0.5559  1.0103
18882TIP3    H278062   5.729   1.036  15.002 -0.0830  0.3177 -0.7491
18883TIP3   OH278063   4.823   1.026  14.172  0.2932  0.4594  0.9088
18883TIP3    H178064   4.793   1.116  14.183 -0.2187  0.2928  0.9078
18883TIP3    H278065   4.792   0.981  14.250  0.1627  0.1850  0.7007
18884TIP3   OH278066   6.518   4.381  11.760  0.3294 -0.2909 -0.4572
18884TIP3    H178067   6.507   4.341  11.674  1.0020 -0.5342 -0.4351
18884TIP3    H278068   6.577   4.322  11.807 -0.7740 -0.6691  0.5090
18885TIP3   OH278069   3.876   5.372   3.192 -0.1549  0.6620 -0.2220
18885TIP3    H178070   3.793   5.323   3.189 -1.4520  2.7736 -1.0219
18885TIP3    H278071   3.889   5.390   3.285 -0.9488  0.8429 -0.1364
18886TIP3   OH278072   3.304   3.088  11.069 -0.1487 -0.8130  0.3616
18886TIP3    H178073   3.385   3.049  11.038  0.7344 -2.1987  3.8783
18886TIP3    H278074   3.249   3.013  11.094 -1.3012  0.1321  0.7720
18887TIP3   OH278075   5.676   3.492  14.495  0.0134  0.0986  0.0325
18887TIP3    H178076   5.770   3.494  14.509  0.0269 -0.6150  0.0901
18887TIP3    H278077   5.665   3.462  14.405 -0.1647 -0.2173  0.1572
18888TIP3   OH278078   3.574   3.478   0.175 -0.4221 -0.1531  0.1156
18888TIP3    H178079   3.545   3.541   0.241  1.6882 -0.7032  1.6611
18888TIP3    H278080   3.652   3.437   0.213  0.0971 -1.4599 -2.1765
18889TIP3   OH278081   2.949   1.248  15.016  0.3421 -0.2060 -0.0834
18889TIP3    H178082   3.038   1.281  15.008  0.0279  0.4049 -1.1553
18889TIP3    H278083   2.958   1.153  15.004  0.8408 -0.1455 -0.2085
18890TIP3   OH278084   4.932   3.414   0.793  0.3224 -0.1590  0.3847
18890TIP3    H178085   4.907   3.375   0.877  0.3826 -0.7689  0.1232
18890TIP3    H278086   4.921   3.343   0.730 -0.1983  0.4320 -0.1997
18891TIP3   OH278087   1.198   3.126  15.700  0.0117 -0.4263  0.3086
18891TIP3    H178088   1.266   3.108  15.635 -0.7667  0.4027 -0.7781
18891TIP3    H278089   1.188   3.221  15.700  0.6517 -0.3125  2.3780
18892TIP3   OH278090   5.132   3.043  10.053 -0.6553  0.2399  0.1128
18892TIP3    H178091   5.143   2.997  10.136 -1.4745 -0.2746 -0.0479
18892TIP3    H278092   5.149   2.976   9.987 -0.6486  0.4803 -0.1307
18893TIP3   OH278093   6.128   2.643   6.162  0.2453 -0.7962  0.3646
18893TIP3    H178094   6.056   2.612   6.217 -0.3010 -3.1263 -1.5090
18893TIP3    H278095   6.205   2.637   6.218 -0.5881 -0.9930  1.5250
18894TIP3   OH278096   5.721   2.275  15.885 -0.6684 -0.2025 -0.2474
18894TIP3    H178097   5.803   2.287  15.932  0.0136 -0.2397 -1.4003
18894TIP3    H278098   5.666   2.347  15.916 -0.2945 -0.3023  0.6925
18895TIP3   OH278099   2.335   0.141   3.836  0.2820  0.2515 -0.0437
18895TIP3    H178100   2.332   0.202   3.762 -1.3931  0.9705  0.5656
18895TIP3    H278101   2.409   0.171   3.889 -1.0112  2.3617  0.6915
18896TIP3   OH278102   4.561   6.458   2.370 -0.4925  0.4666  0.5792
18896TIP3    H178103   4.512   6.387   2.329 -0.1769  0.4023  0.3067
18896TIP3    H278104   4.609   6.499   2.298  1.0417 -0.4281  1.0382
18897TIP3   OH278105   0.635   2.629   5.493 -0.0575 -0.5263  0.2257
18897TIP3    H178106   0.660   2.555   5.437  1.6966  0.5130 -0.4635
18897TIP3    H278107   0.632   2.592   5.581 -1.8625 -1.9769 -0.3805
18898TIP3   OH278108   1.121   6.205  11.039  0.3647 -0.1081  0.2176
18898TIP3    H178109   1.101   6.295  11.014  1.0136 -0.2605 -0.9460
18898TIP3    H278110   1.056   6.183  11.106  1.4173  1.8543  1.9868
18899TIP3   OH278111   4.937   1.956  14.448 -0.5647 -0.4228 -0.2157
18899TIP3    H178112   5.017   2.008  14.455 -0.9468  0.1252  0.2012
18899TIP3    H278113   4.967   1.866  14.439  0.1179 -0.1033 -1.2557
18900TIP3   OH278114   0.095   2.636   4.226 -0.5353  0.3037  0.2861
18900TIP3    H178115   0.148   2.601   4.154 -0.7279  0.8816 -0.1428
18900TIP3    H278116   0.007   2.603   4.208 -0.6916  0.8896 -0.0482
18901TIP3   OH278117   5.210   3.271   5.209 -0.1890 -0.2136 -1.3437
18901TIP3    H178118   5.282   3.257   5.148  0.7979  2.3295 -0.8780
18901TIP3    H278119   5.190   3.365   5.201 -2.9613 -0.6926 -0.9107
18902TIP3   OH278120   5.861   4.846  14.784  0.0707 -0.0970  0.7018
18902TIP3    H178121   5.801   4.844  14.859 -0.8212  0.0905 -0.0001
18902TIP3    H278122   5.856   4.936  14.752  0.6493 -0.1111  0.5605
18903TIP3   OH278123   5.763   3.152   1.893 -0.0890 -0.0998  0.1179
18903TIP3    H178124   5.670   3.162   1.913 -0.0978  0.3476 -0.1353
18903TIP3    H278125   5.792   3.083   1.952 -0.0554  1.3420  1.8812
18904TIP3   OH278126   2.763   3.636   3.751 -0.3125 -0.1444 -0.2460
18904TIP3    H178127   2.846   3.612   3.711  0.3775 -0.8482  1.4804
18904TIP3    H278128   2.700   3.574   3.715 -0.6891  1.8211 -3.3558
18905TIP3   OH278129   1.191   3.975   1.672  0.0945 -0.1848  0.1663
18905TIP3    H178130   1.285   3.968   1.690 -0.0333 -1.2858  0.4818
18905TIP3    H278131   1.149   3.928   1.744 -0.7299  0.5958  0.2229
18906TIP3   OH278132   4.662   4.517  12.259  0.2933  0.2132  0.3974
18906TIP3    H178133   4.669   4.574  12.336  0.3975 -0.0954  0.6197
18906TIP3    H278134   4.585   4.548  12.213  0.2955  0.4756  0.5667
18907TIP3   OH278135   2.564   6.630  11.162 -0.2078 -0.0449 -0.8917
18907TIP3    H178136   2.605   6.697  11.107 -1.1712  1.6997  0.3983
18907TIP3    H278137   2.543   6.559  11.102  1.0480  0.7033 -2.2862
18908TIP3   OH278138   5.914   6.052  13.447 -0.3890 -0.5446  0.2838
18908TIP3    H178139   5.919   6.096  13.362 -0.5209 -1.9465 -0.4738
18908TIP3    H278140   6.001   6.013  13.459 -0.3611 -0.3245  0.8131
18909TIP3   OH278141   3.006   6.419  13.172 -0.1529 -0.6523  0.6335
18909TIP3    H178142   3.066   6.345  13.174 -1.0807 -1.4578 -0.3275
18909TIP3    H278143   2.923   6.382  13.142 -0.2760  0.9992 -1.2641
18910TIP3   OH278144   4.274   5.486  14.250 -0.5022  0.9465 -0.1249
18910TIP3    H178145   4.231   5.511  14.331 -0.5499  1.0690 -0.1882
18910TIP3    H278146   4.202   5.457  14.193 -0.4385  0.5776 -0.0196
18911TIP3   OH278147   3.421   4.125  15.692  0.3509  0.4640 -0.1625
18911TIP3    H178148   3.486   4.151  15.627  0.7658  3.0560  1.1668
18911TIP3    H278149   3.470   4.069  15.753  0.1994 -1.1388 -1.4416
18912TIP3   OH278150   4.870   1.270  12.649 -0.8379 -0.3515 -0.7040
18912TIP3    H178151   4.891   1.323  12.573  1.1785 -0.0032  0.0319
18912TIP3    H278152   4.949   1.218  12.665 -1.0931 -0.2107  1.2908
18913TIP3   OH278153   1.610   2.900  11.330  0.3652 -0.7550  0.1923
18913TIP3    H178154   1.695   2.937  11.353  0.3292  0.4632 -1.3878
18913TIP3    H278155   1.579   2.957  11.259 -2.3548 -0.3717  1.5745
18914TIP3   OH278156   6.252   6.329  15.429  0.1204  0.1733 -0.1650
18914TIP3    H178157   6.210   6.410  15.457 -0.2968  0.1469 -0.7032
18914TIP3    H278158   6.327   6.357  15.377  1.1862  0.2311  1.3440
18915TIP3   OH278159   0.026   1.958  10.725 -0.3768 -0.0005  1.0016
18915TIP3    H178160   0.119   1.974  10.706 -0.2640 -2.5890 -1.1667
18915TIP3    H278161  -0.016   1.961  10.640 -1.7022 -2.1894  1.5235
18916TIP3   OH278162   4.381   5.920   3.449  0.8157 -0.6942 -0.3506
18916TIP3    H178163   4.386   5.977   3.526  1.7498  0.3960 -1.1761
18916TIP3    H278164   4.352   5.835   3.483 -1.3771  0.4456  0.8024
18917TIP3   OH278165   1.935   4.979  15.343 -0.9939  0.0904  0.2852
18917TIP3    H178166   2.007   5.033  15.312 -0.7872  0.3005  1.1102
18917TIP3    H278167   1.977   4.901  15.380 -1.3089 -0.9656 -1.4477
18918TIP3   OH278168   6.510   0.859   2.447  0.4571 -0.6752 -0.1119
18918TIP3    H178169   6.449   0.897   2.382 -0.8076 -1.8095  0.3561
18918TIP3    H278170   6.522   0.929   2.511  0.3465 -0.1295 -0.6655
18919TIP3   OH278171   2.976   5.733  15.170  0.7007  0.8785  0.4550
18919TIP3    H178172   2.933   5.657  15.129  1.6959 -0.4147  1.7445
18919TIP3    H278173   2.910   5.802  15.165 -0.3488 -0.1370 -0.4986
18920TIP3   OH278174   2.540   2.233  12.612 -0.8128  0.3774  0.3572
18920TIP3    H178175   2.581   2.309  12.572  1.6187 -0.8108  0.3723
18920TIP3    H278176   2.564   2.160  12.555 -1.2183 -0.6788  1.4800
18921TIP3   OH278177   1.243   1.285  11.228  0.3930 -0.6116 -0.1995
18921TIP3    H178178   1.274   1.227  11.159  2.5980  0.3948 -0.1155
18921TIP3    H278179   1.308   1.278  11.298  1.3195  2.6092 -0.5640
18922TIP3   OH278180   5.374   4.647  13.977  0.0553 -0.2868  0.4204
18922TIP3    H178181   5.450   4.702  13.956  0.7705 -0.1474  2.9511
18922TIP3    H278182   5.328   4.696  14.045 -1.7559 -0.8801 -0.3319
18923TIP3   OH278183   2.559   5.730   1.800  0.1151 -0.2626 -0.0239
18923TIP3    H178184   2.574   5.737   1.706  1.7974  0.3204  0.2506
18923TIP3    H278185   2.465   5.715   1.809  0.0094 -0.8746 -1.8094
18924TIP3   OH278186   5.620   4.418  16.393  0.1489  0.0726 -0.2749
18924TIP3    H178187   5.610   4.495  16.448  0.1956 -0.1890  0.1046
18924TIP3    H278188   5.636   4.453  16.305  0.0098  0.4920 -0.1360
18925TIP3   OH278189   2.567   2.396   3.664  0.1130  0.2282  0.3665
18925TIP3    H178190   2.642   2.385   3.723  1.0080 -0.6745 -0.8982
18925TIP3    H278191   2.495   2.353   3.710 -0.3648  3.2335  2.7644
18926TIP3   OH278192   5.367   0.970   1.747  0.7261 -0.8905  0.2051
18926TIP3    H178193   5.377   0.882   1.784  0.2708 -0.4366  1.4671
18926TIP3    H278194   5.454   0.992   1.714  1.0492 -1.4960  0.6354
18927TIP3   OH278195   4.617   5.631   3.978 -0.1521 -0.7253 -0.0819
18927TIP3    H178196   4.684   5.612   4.045  1.4466  1.5747 -0.8850
18927TIP3    H278197   4.549   5.677   4.026  0.5508  0.0876  0.1710
18928TIP3   OH278198   4.976   6.652   0.637  0.4702  0.2575 -0.4805
18928TIP3    H178199   5.020   6.734   0.613  0.3628 -0.0725 -1.8613
18928TIP3    H278200   4.945   6.616   0.554  0.5254 -1.1980  0.1037
18929TIP3   OH278201   5.998   4.343  16.090 -0.1610 -0.8864 -0.1395
18929TIP3    H178202   6.076   4.386  16.056 -0.0210 -2.1555 -1.5104
18929TIP3    H278203   6.031   4.263  16.132 -0.6786 -1.2663 -0.4425
18930TIP3   OH278204   0.641   5.991  17.147 -0.7349  0.0587  0.1580
18930TIP3    H178205   0.727   5.972  17.111 -0.7532 -1.3297  0.7931
18930TIP3    H278206   0.612   6.070  17.100  0.0017 -0.6295 -1.5420
18931TIP3   OH278207   3.966   5.553   0.376  0.2640  0.3317 -0.5624
18931TIP3    H178208   3.871   5.559   0.371  0.1619 -0.7028 -0.1237
18931TIP3    H278209   3.991   5.498   0.302  0.7065  1.9809 -1.6959
18932TIP3   OH278210   6.374   2.572   4.104  0.0369  0.0877 -0.5380
18932TIP3    H178211   6.339   2.535   4.023 -0.5751  0.3457 -0.3973
18932TIP3    H278212   6.299   2.571   4.165 -0.4863  3.0104 -0.9982
18933TIP3   OH278213   5.171   1.705  15.148  0.2163 -0.1352  0.3303
18933TIP3    H178214   5.170   1.619  15.106 -0.6892 -1.0400  2.1038
18933TIP3    H278215   5.145   1.766  15.079  0.2070 -1.3542 -0.7797
18934TIP3   OH278216   1.601   3.967  12.911 -0.1556 -0.2311 -0.3130
18934TIP3    H178217   1.653   4.036  12.869  0.6939 -1.4524 -1.3403
18934TIP3    H278218   1.518   4.010  12.934 -0.5892  0.6112 -3.0320
18935TIP3   OH278219   1.745   2.107  11.146  0.1188  0.3710  0.2018
18935TIP3    H178220   1.684   2.170  11.106  0.1100  0.5412  0.4819
18935TIP3    H278221   1.776   2.055  11.072 -1.6301 -0.8209  0.2368
18936TIP3   OH278222   4.463   6.428   1.572 -0.4311  0.4045 -0.1142
18936TIP3    H178223   4.489   6.337   1.563  0.4462  0.5764  0.5451
18936TIP3    H278224   4.375   6.432   1.533 -0.0078 -0.4665 -1.2187
18937TIP3   OH278225   3.075   3.262   3.481 -0.3715 -0.2815 -0.3839
18937TIP3    H178226   3.125   3.184   3.504  1.2662  0.8211  0.0307
18937TIP3    H278227   3.060   3.255   3.387 -0.3271 -1.1220 -0.3360
18938TIP3   OH278228   0.020   4.312   4.701  0.5383  0.0310  0.1242
18938TIP3    H178229   0.096   4.341   4.752  1.1514 -1.0718 -0.1196
18938TIP3    H278230  -0.041   4.385   4.705  2.3742  1.7481 -1.2689
18939TIP3   OH278231   1.874   2.856  16.761 -0.7583 -0.1796 -0.8081
18939TIP3    H178232   1.837   2.878  16.675 -2.3825 -1.2290 -0.4257
18939TIP3    H278233   1.931   2.781  16.743  1.0233  1.2138 -1.3382
18940TIP3   OH278234   0.998   5.324  12.093 -1.0902  0.1134 -0.2681
18940TIP3    H178235   1.046   5.310  12.175 -1.8299  0.5265  0.2395
18940TIP3    H278236   0.990   5.419  12.086  0.4395  0.1989 -1.6945
18941TIP3   OH278237   2.882   4.190  16.577 -0.2561 -0.0609 -0.1374
18941TIP3    H178238   2.826   4.112  16.575 -1.7850  0.9596  0.7286
18941TIP3    H278239   2.912   4.196  16.667 -0.6146  0.6456 -0.0548
18942TIP3   OH278240   1.288   2.951   2.010  0.4635  0.0329 -0.2242
18942TIP3    H178241   1.244   2.945   1.925  0.9428 -0.1785 -0.4625
18942TIP3    H278242   1.217   2.947   2.074 -0.1142  2.1449 -0.6345
18943TIP3   OH278243   2.085   2.063  16.841  0.1520  0.3144 -0.3939
18943TIP3    H178244   2.046   2.150  16.846 -1.3849 -0.3889  1.4677
18943TIP3    H278245   2.038   2.021  16.769 -0.4120  0.4611 -0.1225
18944TIP3   OH278246   1.755   5.486   0.906  0.3388 -0.9550  0.4016
18944TIP3    H178247   1.665   5.488   0.939 -0.1506 -1.1901 -0.8407
18944TIP3    H278248   1.807   5.531   0.973 -0.8568  0.0451  0.6978
18945TIP3   OH278249   3.622   5.655  12.542 -0.0655 -0.2578 -0.6050
18945TIP3    H178250   3.616   5.722  12.474  0.0563 -1.1148 -1.4848
18945TIP3    H278251   3.532   5.623  12.552  0.0509 -0.6865 -0.9337
18946TIP3   OH278252   6.085   4.904  16.903 -1.0781  0.5801 -0.4037
18946TIP3    H178253   6.144   4.978  16.916 -0.2659 -0.0725 -0.3157
18946TIP3    H278254   5.997   4.942  16.911 -0.6806  1.1680  1.8205
18947TIP3   OH278255   5.852   2.138  14.499  0.5040 -0.7781  0.4733
18947TIP3    H178256   5.797   2.065  14.472  1.7892 -1.4985 -0.2760
18947TIP3    H278257   5.847   2.201  14.427 -0.3205 -0.2642  0.9628
18948TIP3   OH278258   4.856   0.601  12.000 -0.2111 -0.0623  0.1554
18948TIP3    H178259   4.879   0.693  12.010 -0.6468  0.0810 -0.1655
18948TIP3    H278260   4.846   0.589  11.906  1.3707 -0.8050  0.0441
18949TIP3   OH278261   5.169   1.952   5.752 -1.0371 -0.7070 -0.3100
18949TIP3    H178262   5.175   1.992   5.838  0.5761  0.5641 -0.9697
18949TIP3    H278263   5.255   1.965   5.713 -1.6589 -1.4539 -2.0467
18950TIP3   OH278264   5.890   1.846   4.285 -0.0844 -1.0255 -0.5920
18950TIP3    H178265   5.805   1.889   4.292  0.6126  0.2609  0.8139
18950TIP3    H278266   5.883   1.770   4.343 -0.1160 -0.6008 -0.0257
18951TIP3   OH278267   0.085   5.128   5.463 -0.1230 -0.1058 -0.5394
18951TIP3    H178268   0.032   5.150   5.540 -0.9364 -0.5344 -0.9605
18951TIP3    H278269   0.075   5.033   5.455  0.0549 -0.0761 -1.1076
18952TIP3   OH278270   4.086   2.623  16.793  0.0470  0.4603 -0.3351
18952TIP3    H178271   4.136   2.701  16.769 -0.2550  0.9203  0.4874
18952TIP3    H278272   4.019   2.655  16.854 -1.0673 -0.1897 -1.1744
18953TIP3   OH278273   1.600   2.642  17.014  0.1372  0.4133 -0.6858
18953TIP3    H178274   1.661   2.662  17.086 -0.2725  2.2891 -0.8234
18953TIP3    H278275   1.532   2.589  17.055  0.9541 -0.2608 -0.1543
18954TIP3   OH278276   2.215   3.789  13.376  0.0792 -0.4818 -0.1775
18954TIP3    H178277   2.280   3.755  13.438  1.3558  0.1170 -1.1409
18954TIP3    H278278   2.224   3.733  13.298  0.6052  0.6137 -0.9253
18955TIP3   OH278279   4.915   5.813  15.613  0.6854 -0.1472  0.0840
18955TIP3    H178280   4.888   5.758  15.686  1.2034  0.6049  0.8642
18955TIP3    H278281   5.010   5.802  15.608  0.6151 -0.4557 -0.7039
18956TIP3   OH278282   2.595   3.561  16.339 -0.1662  0.1464  0.1489
18956TIP3    H178283   2.617   3.544  16.247 -1.0503  1.8332 -0.4273
18956TIP3    H278284   2.605   3.476  16.382  1.5392 -0.4049 -1.2294
18957TIP3   OH278285   2.485   3.997  15.219 -0.1199 -0.1654  0.1370
18957TIP3    H178286   2.551   3.950  15.168 -0.7293 -0.7424 -0.1367
18957TIP3    H278287   2.450   4.063  15.159  0.6129  0.5419  0.4666
18958TIP3   OH278288   0.867   1.047   1.255  0.0432 -0.2133  0.0073
18958TIP3    H178289   0.849   1.017   1.166  0.9542 -0.7348 -0.0075
18958TIP3    H278290   0.789   1.022   1.305 -0.8098  0.7813 -0.7940
18959TIP3   OH278291   1.320   2.949  15.047  0.2366  0.4289  0.0576
18959TIP3    H178292   1.304   2.951  15.141  3.5446  1.2592  0.7307
18959TIP3    H278293   1.306   2.858  15.021  1.3191 -0.2725  1.8137
18960TIP3   OH278294   5.410   0.107  15.449  0.4821 -0.1577  0.0040
18960TIP3    H178295   5.479   0.122  15.384 -0.3129  0.6719 -0.6730
18960TIP3    H278296   5.345   0.055  15.403  0.3970 -0.4722  0.4713
18961TIP3   OH278297   5.037   0.943  14.966 -0.1955  0.1624  0.5536
18961TIP3    H178298   4.965   0.976  14.912 -0.8896  0.5116  1.6460
18961TIP3    H278299   5.114   0.991  14.935 -0.6740  0.7210  0.2053
18962TIP3   OH278300   6.702   3.325  12.818 -0.8847 -0.0118  0.2538
18962TIP3    H178301   6.765   3.344  12.748  0.5340 -0.3607  1.3888
18962TIP3    H278302   6.669   3.410  12.845  1.7977  0.6002  2.0157
18963TIP3   OH278303   3.689   4.403   3.637 -0.2469  0.6331  0.1881
18963TIP3    H178304   3.770   4.440   3.672  0.8970 -1.9662  0.4536
18963TIP3    H278305   3.621   4.437   3.695  0.8009  1.7423  0.8220
18964TIP3   OH278306   5.690   4.829   0.282  0.7266  0.5700 -0.6196
18964TIP3    H178307   5.723   4.740   0.290 -0.0472  0.3696  0.6040
18964TIP3    H278308   5.647   4.831   0.197 -0.0926 -0.5294 -0.2573
18965TIP3   OH278309   5.386   6.511  11.192  0.0659 -0.1619  0.1041
18965TIP3    H178310   5.478   6.518  11.167 -0.3331 -0.8896 -1.8002
18965TIP3    H278311   5.387   6.492  11.286  1.7834  1.1686  0.3924
18966TIP3   OH278312   1.840   2.306  12.814  0.0645  0.1318  0.5940
18966TIP3    H178313   1.773   2.238  12.822  1.9182 -1.9320 -0.4691
18966TIP3    H278314   1.864   2.327  12.905 -0.0931 -1.1017  0.9327
18967TIP3   OH278315   3.887   5.055  15.939 -0.0715 -0.0462  0.0297
18967TIP3    H178316   3.860   5.021  16.025  1.4276  0.7034  0.8304
18967TIP3    H278317   3.949   4.989  15.906 -0.4382 -0.1964 -0.3692
18968TIP3   OH278318   3.551   5.695  12.034 -0.1872 -0.5162 -0.0963
18968TIP3    H178319   3.540   5.608  12.071 -0.5331 -0.1908  0.5796
18968TIP3    H278320   3.514   5.689  11.946 -1.5900 -0.6663  0.4786
18969TIP3   OH278321   5.455   6.461   2.921  0.2194  0.1268 -0.3375
18969TIP3    H178322   5.502   6.501   2.848 -0.0861 -0.5599 -0.9238
18969TIP3    H278323   5.363   6.465   2.896  0.1804 -0.8861 -0.3822
18970TIP3   OH278324   2.277   2.465  11.941  0.9153  0.0615 -0.3109
18970TIP3    H178325   2.333   2.538  11.967 -1.4326  1.6131  0.6959
18970TIP3    H278326   2.209   2.505  11.886  1.0147 -1.8365 -1.9464
18971TIP3   OH278327   5.145   3.559  15.805  0.1786 -0.3039  0.1014
18971TIP3    H178328   5.233   3.595  15.808  0.1260 -0.0750 -0.7739
18971TIP3    H278329   5.102   3.594  15.883  0.1404  1.5259 -0.6999
18972TIP3   OH278330   3.215   3.785  13.776  0.3536 -0.5736  0.1468
18972TIP3    H178331   3.139   3.843  13.775  1.1595  0.5753 -2.0432
18972TIP3    H278332   3.273   3.823  13.841  0.5790  0.7597 -0.7866
18973TIP3   OH278333   6.273   5.766  17.277  0.1366 -0.0225  0.5633
18973TIP3    H178334   6.298   5.747  17.367 -0.0405  0.8461  0.8065
18973TIP3    H278335   6.194   5.818  17.284  1.6868  2.6200  0.0659
18974TIP3   OH278336   3.085   6.016  14.036  0.0342  0.1786 -0.1039
18974TIP3    H178337   3.148   5.953  14.072  0.4546 -0.1969 -1.4270
18974TIP3    H278338   3.078   5.992  13.944 -1.1179  1.0069 -0.2504
18975TIP3   OH278339   3.202   3.228   4.311  0.4587 -0.1213 -0.9545
18975TIP3    H178340   3.228   3.241   4.402  0.5373  1.2482 -1.1636
18975TIP3    H278341   3.159   3.309   4.286  0.5949 -0.4163 -2.2058
18976TIP3   OH278342   5.498   5.119  15.676 -0.4365  0.4751 -0.3138
18976TIP3    H178343   5.415   5.163  15.696 -0.4553  0.4973 -0.4387
18976TIP3    H278344   5.473   5.037  15.634 -0.4011  0.3379 -0.0683
18977TIP3   OH278345   4.962   6.054  11.992  0.2404  0.1321  0.1505
18977TIP3    H178346   4.912   6.128  12.027 -0.0067 -0.0851  0.2608
18977TIP3    H278347   4.909   6.020  11.920 -0.3965 -0.8754  1.0570
18978TIP3   OH278348   0.462   4.675   1.692 -0.0649  0.4907 -0.0537
18978TIP3    H178349   0.444   4.584   1.668  0.4892 -0.6799  3.3914
18978TIP3    H278350   0.554   4.674   1.721 -0.2687  1.9482  0.7389
18979TIP3   OH278351   2.315   1.456  11.220 -0.2498  0.2181  0.1213
18979TIP3    H178352   2.373   1.433  11.293 -1.2698  1.5049  1.4087
18979TIP3    H278353   2.349   1.406  11.145  0.8888 -1.0922  1.4422
18980TIP3   OH278354   3.206   1.581   1.756  0.1326 -0.2795  0.4979
18980TIP3    H178355   3.127   1.602   1.706 -0.5938 -0.7861  1.3958
18980TIP3    H278356   3.267   1.547   1.692 -1.1567 -1.9327  0.0886
18981TIP3   OH278357   3.522   1.498   2.183 -0.0937 -0.2959  0.5923
18981TIP3    H178358   3.539   1.409   2.213  0.4930 -0.2251  0.4809
18981TIP3    H278359   3.533   1.552   2.262 -0.0673 -0.2834  0.5802
18982TIP3   OH278360   1.144   0.509  17.072  0.5210  0.1974 -0.1366
18982TIP3    H178361   1.192   0.591  17.079  1.2967 -0.2845  0.3939
18982TIP3    H278362   1.070   0.529  17.015  0.9068  1.1616 -0.3179
18983TIP3   OH278363   6.722   6.420   5.778 -0.0420 -0.0287 -0.2746
18983TIP3    H178364   6.775   6.382   5.848 -0.8250 -0.9421 -0.1529
18983TIP3    H278365   6.644   6.454   5.822  0.0027  0.4643 -0.5662
18984TIP3   OH278366   1.393   1.759  12.285 -0.0820  0.4579  0.4225
18984TIP3    H178367   1.437   1.727  12.363 -0.3733 -0.1732  0.3301
18984TIP3    H278368   1.304   1.779  12.313 -0.8063 -1.7058 -0.1677
18985TIP3   OH278369   0.544   3.143   0.951  0.0216 -0.0454  0.0975
18985TIP3    H178370   0.574   3.073   1.009 -1.1964 -1.1281 -0.5239
18985TIP3    H278371   0.567   3.224   0.997  1.8141 -0.8192  0.6610
18986TIP3   OH278372   5.082   5.482  12.060 -0.0217 -0.5821  0.0311
18986TIP3    H178373   5.042   5.567  12.078  0.4002 -0.5397  0.8458
18986TIP3    H278374   5.126   5.493  11.976 -0.8244 -0.3134 -0.3651
18987TIP3   OH278375   4.581   0.120   5.837  0.2126  0.0669 -0.1306
18987TIP3    H178376   4.566   0.025   5.846 -1.3649  0.1492 -1.3647
18987TIP3    H278377   4.654   0.126   5.776  0.2156 -0.3738 -0.1795
18988TIP3   OH278378   2.690   5.004  11.737  0.3472 -0.4504 -0.4131
18988TIP3    H178379   2.602   5.027  11.709  0.1405  0.2782  0.7537
18988TIP3    H278380   2.732   5.088  11.754  0.3967 -0.8348  1.5612
18989TIP3   OH278381   0.103   5.074  14.161  0.5046  0.7510 -0.1329
18989TIP3    H178382   0.088   4.981  14.182 -0.4566  0.9969  0.3630
18989TIP3    H278383   0.185   5.075  14.112  0.9323 -0.2803  0.5220
18990TIP3   OH278384   2.824   0.792   4.592 -0.8253 -0.5293  0.2402
18990TIP3    H178385   2.764   0.866   4.602  0.8924  0.8146  1.0354
18990TIP3    H278386   2.807   0.737   4.668 -2.2130 -1.0997 -0.4302
18991TIP3   OH278387   3.152   6.547  13.829 -0.5233 -0.7452 -0.0414
18991TIP3    H178388   3.117   6.466  13.866  0.4496 -1.0733  0.1907
18991TIP3    H278389   3.173   6.525  13.738  0.7678 -1.0823  0.3261
18992TIP3   OH278390   4.220   0.074  16.576  0.4264  0.3549  0.3487
18992TIP3    H178391   4.148   0.127  16.611  0.4642  0.2976  0.5096
18992TIP3    H278392   4.247   0.019  16.648 -0.9225 -1.3268 -0.3515
18993TIP3   OH278393   6.312   4.151   3.306 -0.5359 -0.0968  0.2223
18993TIP3    H178394   6.302   4.090   3.378 -0.4789 -0.6225 -0.2112
18993TIP3    H278395   6.405   4.173   3.305 -0.9195  1.9935  1.9778
18994TIP3   OH278396   5.448   5.211   1.025 -0.1446 -0.2661  0.4316
18994TIP3    H178397   5.468   5.183   0.936 -3.5074 -1.0062 -0.2067
18994TIP3    H278398   5.419   5.132   1.070  0.1069  0.3592  1.7710
18995TIP3   OH278399   0.362   0.020   5.401  0.7929  0.2523  0.6598
18995TIP3    H178400   0.380  -0.059   5.453 -0.0568  0.8936  2.0002
18995TIP3    H278401   0.379   0.093   5.461  0.8470  1.0766 -0.3250
18996TIP3   OH278402   4.987   5.126   4.764  0.1033 -0.3116 -0.2459
18996TIP3    H178403   4.993   5.199   4.702 -0.4203  0.0796  0.1569
18996TIP3    H278404   5.071   5.127   4.810  0.7560 -1.0017 -1.3672
18997TIP3   OH278405   1.878   1.120  14.450 -0.4840  0.0619  0.2130
18997TIP3    H178406   1.856   1.212  14.461 -0.8904  0.2465 -1.6544
18997TIP3    H278407   1.959   1.107  14.498 -0.6215  1.3063  0.7910
18998TIP3   OH278408   6.407   2.301  15.314 -0.4277  0.9190 -0.0015
18998TIP3    H178409   6.501   2.285  15.322 -0.4810  0.7202  0.2399
18998TIP3    H278410   6.391   2.380  15.365 -0.3997  0.9271 -0.0050
18999TIP3   OH278411   1.177   6.449   1.986 -0.0536  0.3749 -0.0460
18999TIP3    H178412   1.187   6.425   1.894  1.1028 -0.4818  0.2767
18999TIP3    H278413   1.084   6.469   1.996 -0.1927  0.5061 -1.3974
19000TIP3   OH278414   3.757   5.318   6.089  0.0139  0.4526  0.0940
19000TIP3    H178415   3.701   5.301   6.165  0.3259 -0.3570  0.1499
19000TIP3    H278416   3.830   5.368   6.124  1.2297 -1.6665  0.7738
19001TIP3   OH278417   4.770   4.871   2.935  0.4242 -0.8581  0.3790
19001TIP3    H178418   4.766   4.785   2.978  0.0257 -1.5391 -0.9930
19001TIP3    H278419   4.685   4.911   2.954  0.5210 -0.8516  0.8197
19002TIP3   OH278420   3.658   3.925  11.766  0.3866  0.0877 -0.1114
19002TIP3    H178421   3.629   3.969  11.846  0.2637  0.5701 -0.4219
19002TIP3    H278422   3.699   3.844  11.797 -0.5105 -0.1905  0.3878
19003TIP3   OH278423   1.167   1.745   1.975 -0.2353  0.1934 -0.0157
19003TIP3    H178424   1.168   1.743   2.071 -1.4471 -1.6821  0.0149
19003TIP3    H278425   1.145   1.655   1.950  0.2804  0.5970 -2.0723
19004TIP3   OH278426   4.916   0.671  16.970 -0.1709 -0.2342  0.0194
19004TIP3    H178427   4.854   0.716  16.913 -1.4935 -0.6561  1.0680
19004TIP3    H278428   4.958   0.741  17.019 -0.6252  0.0058  0.0754
19005TIP3   OH278429   4.265   6.593   4.527 -0.3482 -0.0377 -0.0452
19005TIP3    H178430   4.345   6.619   4.482 -1.1599 -0.0340 -1.5677
19005TIP3    H278431   4.232   6.674   4.567 -0.9762  0.5828 -1.7170
19006TIP3   OH278432   2.472   1.556   0.326 -0.0503  0.0542  0.1801
19006TIP3    H178433   2.499   1.527   0.239  1.7481  2.2307 -0.0674
19006TIP3    H278434   2.496   1.484   0.384 -0.7639 -1.1965 -1.0282
19007TIP3   OH278435   3.673   6.338   2.816 -0.1894  0.1891  0.1598
19007TIP3    H178436   3.592   6.363   2.772  0.6007  1.8027 -0.4597
19007TIP3    H278437   3.700   6.257   2.773 -0.6609  0.4894 -0.7331
19008TIP3   OH278438   1.604   5.844  13.092  0.0615 -0.2755  0.2894
19008TIP3    H178439   1.655   5.843  13.010  0.1352 -1.4012  0.3262
19008TIP3    H278440   1.655   5.898  13.151  1.0198 -1.0241  0.1819
19009TIP3   OH278441   3.754   4.219  15.626  0.6823  0.1460  0.0705
19009TIP3    H178442   3.774   4.257  15.712  0.8467 -0.3617  0.2574
19009TIP3    H278443   3.811   4.143  15.619  1.1213  0.5291 -0.7515
19010TIP3   OH278444   5.819   2.045  17.371 -0.0295 -0.3912 -0.3083
19010TIP3    H178445   5.753   2.079  17.311 -0.1940 -0.4154 -0.1443
19010TIP3    H278446   5.902   2.056  17.325  0.3388  3.0716  0.8782
19011TIP3   OH278447   5.320   2.481  14.818  0.1419 -0.1089 -0.1185
19011TIP3    H178448   5.399   2.443  14.779  0.6313 -0.7219  1.4204
19011TIP3    H278449   5.253   2.413  14.808  0.2441 -0.2345  0.0649
19012TIP3   OH278450   1.220   4.338  17.180  0.7131 -0.2636  0.2532
19012TIP3    H178451   1.311   4.345  17.208  1.0694  0.5533 -0.9982
19012TIP3    H278452   1.199   4.426  17.147 -0.6901 -0.3062  0.9799
19013TIP3   OH278453   0.758   2.764  16.880 -0.2968 -0.3652 -0.7437
19013TIP3    H178454   0.768   2.724  16.967  0.8449  0.1317 -0.6274
19013TIP3    H278455   0.690   2.712  16.838  0.0164 -1.4226 -0.0136
19014TIP3   OH278456   4.202   5.845   2.404 -0.6482 -0.3702  0.1019
19014TIP3    H178457   4.264   5.912   2.431 -0.6970  0.0247 -0.7306
19014TIP3    H278458   4.255   5.778   2.361 -0.9310  0.7966 -2.2123
19015TIP3   OH278459   1.424   0.352  16.111  0.1767  0.3853  0.1155
19015TIP3    H178460   1.394   0.266  16.139 -0.0271  1.0466  2.0515
19015TIP3    H278461   1.370   0.372  16.034 -0.5775 -0.7111  0.3403
19016TIP3   OH278462   6.153   5.891  15.719  0.0290 -0.2229 -0.5548
19016TIP3    H178463   6.198   5.950  15.659 -1.7463 -1.1413 -2.9144
19016TIP3    H278464   6.178   5.803  15.691  2.7653 -0.8269  2.9974
19017TIP3   OH278465   0.505   3.021  17.273 -0.4405 -0.0571 -0.2154
19017TIP3    H178466   0.411   3.029  17.290 -0.1534  0.2332  1.3767
19017TIP3    H278467   0.547   3.035  17.358  0.9969 -1.4721 -0.6382
19018TIP3   OH278468   5.854   2.116   0.752 -0.3832 -0.1389  0.0201
19018TIP3    H178469   5.802   2.036   0.747 -1.2398  0.3079  1.2886
19018TIP3    H278470   5.854   2.138   0.845  1.5676  0.2190 -0.0265
19019TIP3   OH278471   6.525   4.167  11.563  0.4089  0.2203 -0.5256
19019TIP3    H178472   6.561   4.187  11.476 -0.0326  0.1365 -0.7303
19019TIP3    H278473   6.431   4.183  11.554  0.1524 -1.1570 -0.4674
19020TIP3   OH278474   2.443   4.040   1.990 -0.3092  0.3042 -0.0578
19020TIP3    H178475   2.434   4.123   1.943  0.0481  0.0010 -0.6783
19020TIP3    H278476   2.460   4.065   2.080 -1.7924  0.9019  0.0845
19021TIP3   OH278477   2.823   6.520   0.152 -0.5035 -0.5730  0.5400
19021TIP3    H178478   2.754   6.484   0.096 -1.4090  0.0176  1.2454
19021TIP3    H278479   2.814   6.615   0.143  0.2044 -0.4850  0.6707
19022TIP3   OH278480   4.884   4.634   3.223  0.0377 -0.2002 -0.3662
19022TIP3    H178481   4.934   4.710   3.251  2.0402 -1.0228 -1.5273
19022TIP3    H278482   4.925   4.560   3.268 -1.3559 -0.7252  0.1135
19023TIP3   OH278483   1.530   1.478   2.571 -0.4550  0.1790  0.1217
19023TIP3    H178484   1.438   1.454   2.576 -0.0349 -1.3235  1.3929
19023TIP3    H278485   1.553   1.464   2.479 -1.0267 -1.3785  0.1885
19024TIP3   OH278486   2.614   5.299  13.229  0.3057  0.3773  0.8360
19024TIP3    H178487   2.525   5.302  13.193  0.2832 -2.4777  0.4442
19024TIP3    H278488   2.669   5.276  13.154  0.9124 -0.9688  1.6686
19025TIP3   OH278489   1.306   4.410   6.586 -0.4245  0.0393  0.0180
19025TIP3    H178490   1.322   4.354   6.662 -1.4871 -0.0131  0.2106
19025TIP3    H278491   1.393   4.445   6.564  0.2074 -1.3856  0.1066
19026TIP3   OH278492   5.114   5.050   3.786 -0.4190 -0.2180 -0.0340
19026TIP3    H178493   5.174   5.063   3.860 -2.1581  0.5635  1.3252
19026TIP3    H278494   5.147   5.107   3.717  1.5542 -1.3530 -0.1202
19027TIP3   OH278495   3.983   3.753  13.875  0.1251 -0.3106 -0.0645
19027TIP3    H178496   4.044   3.719  13.809 -0.3086 -0.2538 -0.5045
19027TIP3    H278497   3.921   3.806  13.824 -0.1129 -0.1291  0.4158
19028TIP3   OH278498   1.801   4.324   0.253  0.6170  0.0611 -0.4233
19028TIP3    H178499   1.834   4.277   0.176  0.7131  0.4484 -0.6228
19028TIP3    H278500   1.753   4.399   0.216 -0.2039 -0.3132 -0.1267
19029TIP3   OH278501   0.748   2.861   4.526  0.1500 -0.0137  0.5975
19029TIP3    H178502   0.784   2.917   4.594 -2.3542  2.9450 -0.2450
19029TIP3    H278503   0.750   2.915   4.447 -1.1934 -1.5978 -0.6048
19030TIP3   OH278504   0.841   1.848  17.224  0.5004  0.0861  0.5608
19030TIP3    H178505   0.888   1.913  17.172 -0.0252 -1.0277 -1.3703
19030TIP3    H278506   0.910   1.791  17.258  0.7346 -0.3297 -0.5669
19031TIP3   OH278507   4.096   0.988  12.204  0.3703  0.2375 -0.5572
19031TIP3    H178508   4.008   0.987  12.167  0.8124 -0.5071 -1.6221
19031TIP3    H278509   4.093   0.925  12.275 -0.0631  0.5328 -0.3085
19032TIP3   OH278510   4.437   5.968   2.500 -0.1393 -0.0361  0.1437
19032TIP3    H178511   4.531   5.958   2.517  0.4159  2.9192 -0.5649
19032TIP3    H278512   4.429   6.056   2.464 -3.3365  0.2086  1.1474
19033TIP3   OH278513   3.272   4.261  16.651 -0.7664  0.9867 -0.1611
19033TIP3    H178514   3.227   4.264  16.735 -0.2454  1.3751  0.1160
19033TIP3    H278515   3.351   4.314  16.665  0.0370 -0.0906 -0.4731
19034TIP3   OH278516   6.424   6.611  14.291  0.4034  0.3591  0.0393
19034TIP3    H178517   6.400   6.684  14.349  0.1475  0.5576 -0.3145
19034TIP3    H278518   6.392   6.533  14.337  1.0527  0.4230  0.6204
19035TIP3   OH278519   6.029   1.086   0.068  0.7604  0.5585  0.4558
19035TIP3    H178520   5.970   1.127   0.131 -1.0276 -0.1047 -0.7077
19035TIP3    H278521   6.068   1.159   0.020 -0.9898  1.0093 -0.3700
19036TIP3   OH278522   1.947   1.361  14.788  0.0355  0.9480  0.0602
19036TIP3    H178523   2.019   1.325  14.735 -0.2312  1.9300 -1.0174
19036TIP3    H278524   1.985   1.376  14.874  0.4360 -0.8851  0.2517
19037TIP3   OH278525   4.923   6.494  15.343  0.1485 -0.0355 -0.1038
19037TIP3    H178526   4.915   6.407  15.382  3.2039 -1.2920 -1.8931
19037TIP3    H278527   4.889   6.483  15.254 -0.7448  1.0082  0.0953
19038TIP3   OH278528   5.058   2.398   1.163  0.1669 -0.1912 -0.1622
19038TIP3    H178529   4.991   2.417   1.097 -0.2380 -2.1232 -0.3699
19038TIP3    H278530   5.010   2.395   1.246  0.3067  0.1996 -0.0694
19039TIP3   OH278531   4.727   0.354   4.599  0.9990  0.3056  0.3415
19039TIP3    H178532   4.692   0.372   4.686 -0.7319 -0.0960 -0.2361
19039TIP3    H278533   4.679   0.413   4.541  0.6499 -0.8572 -0.5893
19040TIP3   OH278534   0.867   2.393   5.017  0.0983 -0.0071  0.0208
19040TIP3    H178535   0.915   2.328   5.069 -1.0452 -0.0829  1.0341
19040TIP3    H278536   0.850   2.465   5.077 -1.6839 -0.3083 -0.0751
19041TIP3   OH278537   1.681   6.423  11.615  0.2239  0.1020  0.3966
19041TIP3    H178538   1.768   6.442  11.581  0.1387  0.4586  0.3789
19041TIP3    H278539   1.698   6.370  11.694  0.5918  2.4662  1.9976
19042TIP3   OH278540   5.266   5.377   6.309  0.4587  0.3625 -0.2260
19042TIP3    H178541   5.321   5.410   6.380  0.8324  1.2857 -0.9152
19042TIP3    H278542   5.180   5.415   6.325 -0.1568 -1.4425  1.1064
19043TIP3   OH278543   2.080   0.065   1.564 -0.1594 -0.1318 -0.2022
19043TIP3    H178544   1.985   0.074   1.561 -0.2279 -0.8968 -0.4458
19043TIP3    H278545   2.108   0.067   1.473  0.2337  1.6901 -0.0850
19044TIP3   OH278546   6.327   3.403  12.917 -0.3234  0.4756  0.0271
19044TIP3    H178547   6.258   3.375  12.976 -0.6206  1.4039  0.1378
19044TIP3    H278548   6.281   3.446  12.845 -0.1112 -2.2052 -1.8714
19045TIP3   OH278549   6.402   0.867   4.142  0.0988  0.4757  0.3978
19045TIP3    H178550   6.446   0.851   4.059 -0.2411  0.4689  0.2156
19045TIP3    H278551   6.311   0.884   4.118  0.1453  1.2119  0.7057
19046TIP3   OH278552   4.765   1.957   1.691  0.1469 -0.0811 -0.2135
19046TIP3    H178553   4.800   1.868   1.701 -1.2549 -0.5992  0.2348
19046TIP3    H278554   4.783   1.999   1.775 -1.5060 -0.7969  0.5304
19047TIP3   OH278555   4.575   0.601  11.119 -0.5729 -0.0731 -0.0500
19047TIP3    H178556   4.494   0.554  11.100 -0.2347 -1.2352  1.1663
19047TIP3    H278557   4.602   0.639  11.036 -2.7245  0.9475 -0.3384
19048TIP3   OH278558   2.805   4.741   2.738  0.2447  0.1302  0.2852
19048TIP3    H178559   2.803   4.814   2.677  0.3422 -2.9753 -3.8438
19048TIP3    H278560   2.896   4.712   2.739  0.2360  0.0325  1.9679
19049TIP3   OH278561   1.112   4.023  11.367 -0.3494 -0.4606 -0.6503
19049TIP3    H178562   1.022   4.017  11.399 -0.2674 -1.9697 -0.6170
19049TIP3    H278563   1.115   4.104  11.317 -2.3814 -1.4395 -2.5351
19050TIP3   OH278564   5.476   3.649   1.265  0.1744 -0.3360 -0.5154
19050TIP3    H178565   5.480   3.616   1.175 -0.9185 -0.5250 -0.5142
19050TIP3    H278566   5.523   3.732   1.263 -1.2527  0.4946 -1.6638
19051TIP3   OH278567   5.080   5.481   6.581  0.5257 -0.1347 -0.1075
19051TIP3    H178568   5.162   5.529   6.593 -0.1244  0.8426  0.5770
19051TIP3    H278569   5.062   5.488   6.487  0.6661  0.6098 -0.0863
19052TIP3   OH278570   5.519   0.876  16.607 -0.3032 -0.3850 -0.2652
19052TIP3    H178571   5.512   0.799  16.663  2.4345 -0.7285 -0.2700
19052TIP3    H278572   5.481   0.849  16.523 -1.5028 -0.9199  0.4392
19053TIP3   OH278573   1.949   4.209   2.399  0.0991  0.2016 -0.1774
19053TIP3    H178574   2.038   4.190   2.430  0.7027 -1.4983 -2.5938
19053TIP3    H278575   1.926   4.133   2.344 -3.0030  0.4340  0.6042
19054TIP3   OH278576   6.614   4.006  12.226  0.0404 -0.1475 -0.9335
19054TIP3    H178577   6.541   4.036  12.171  1.7453  2.6115 -1.8906
19054TIP3    H278578   6.603   4.054  12.308  0.4497 -0.1956 -0.8515
19055TIP3   OH278579   3.691   3.976   4.179 -0.0091 -0.4081  0.7270
19055TIP3    H178580   3.694   4.072   4.172 -0.3768 -0.5129 -1.6174
19055TIP3    H278581   3.750   3.945   4.110  0.6621 -1.9026  1.9150
19056TIP3   OH278582   4.426   5.782  14.332  0.1837  0.1908 -0.0862
19056TIP3    H178583   4.430   5.756  14.425  0.0464 -1.3681 -0.4898
19056TIP3    H278584   4.499   5.736  14.291 -0.6279 -0.3091 -1.0141
19057TIP3   OH278585   4.035   4.291   1.572 -0.2879  0.0397 -0.6216
19057TIP3    H178586   4.067   4.207   1.604 -0.7761 -0.3667 -1.1787
19057TIP3    H278587   4.006   4.273   1.482 -1.0140  0.6543 -0.5232
19058TIP3   OH278588   4.371   1.678   0.699 -0.1805  0.0735 -0.1720
19058TIP3    H178589   4.298   1.733   0.670  0.6535  1.6199  0.5333
19058TIP3    H278590   4.415   1.652   0.618 -1.5095 -0.9278 -0.6098
19059TIP3   OH278591   1.269   4.497  15.106 -0.5131 -0.4807 -0.5857
19059TIP3    H178592   1.322   4.450  15.171  0.9421 -0.1165 -1.4552
19059TIP3    H278593   1.238   4.575  15.153  0.4149 -0.2820 -0.2799
19060TIP3   OH278594   3.909   6.542  12.023 -0.0071 -0.2572  0.0499
19060TIP3    H178595   3.887   6.624  11.978 -1.1837  0.5303  1.9584
19060TIP3    H278596   3.833   6.485  12.008 -0.3587 -0.0291  0.8763
19061TIP3   OH278597   1.469   0.432  14.452  0.2425 -0.0210 -0.2680
19061TIP3    H178598   1.562   0.452  14.439  0.2414 -0.2463 -0.6177
19061TIP3    H278599   1.456   0.347  14.410 -0.6144  1.0064 -2.2274
19062TIP3   OH278600   0.508   4.365  13.020  0.2854  0.1015  0.3107
19062TIP3    H178601   0.436   4.412  13.061  0.5991 -0.5128  1.6048
19062TIP3    H278602   0.555   4.432  12.970 -1.4016  0.4350 -0.9250
19063TIP3   OH278603   2.267   3.733   6.129  0.7667  0.0420  0.3341
19063TIP3    H178604   2.270   3.802   6.062  0.0559 -1.5458 -1.4251
19063TIP3    H278605   2.181   3.743   6.170  1.3800  1.3055  1.3809
19064TIP3   OH278606   4.187   4.827   3.280 -0.0243 -0.0123 -0.3880
19064TIP3    H178607   4.140   4.749   3.310  1.1818 -1.1729 -1.3627
19064TIP3    H278608   4.138   4.901   3.316 -0.9437 -1.2281  0.9585
19065TIP3   OH278609   3.557   2.305  11.889 -0.2373 -0.2559 -0.1855
19065TIP3    H178610   3.476   2.266  11.920  0.0850 -0.6938  0.1112
19065TIP3    H278611   3.529   2.382  11.838 -0.8340 -0.4496 -0.1516
19066TIP3   OH278612   0.905   1.221   3.701  0.0515 -0.0669  0.2841
19066TIP3    H178613   0.936   1.142   3.744 -2.7560 -0.0468  2.5715
19066TIP3    H278614   0.950   1.292   3.747  1.0460 -0.2016 -0.4377
19067TIP3   OH278615   0.898   3.331   2.774  0.6531  0.2539 -0.5370
19067TIP3    H178616   0.928   3.316   2.864 -1.2731 -0.5113  0.0434
19067TIP3    H278617   0.957   3.280   2.720 -0.4215 -2.4675  0.6821
19068TIP3   OH278618   4.881   2.497   2.385 -0.5517 -0.4621 -0.2369
19068TIP3    H178619   4.917   2.543   2.461 -1.4782 -0.4844  0.2255
19068TIP3    H278620   4.900   2.405   2.402 -1.6724 -0.5779  0.4975
19069TIP3   OH278621   2.067   5.605   3.104  0.5141 -0.3227  0.3518
19069TIP3    H178622   2.142   5.581   3.051 -0.4874 -1.0773 -0.7816
19069TIP3    H278623   2.073   5.549   3.182 -0.0108 -1.9579 -0.7366
19070TIP3   OH278624   1.284   0.987  12.453 -1.0483 -0.4146  0.3195
19070TIP3    H178625   1.269   1.073  12.492 -0.2489 -0.0091 -0.2552
19070TIP3    H278626   1.231   0.927  12.507 -1.4373  0.3940  0.8558
19071TIP3   OH278627   6.319   2.355  13.949  0.6871 -0.0130 -0.3263
19071TIP3    H178628   6.352   2.364  14.039  0.2655  0.0117 -0.1710
19071TIP3    H278629   6.228   2.329  13.960  0.7615 -0.4630 -0.7501
19072TIP3   OH278630   0.621   0.508   0.938  0.1479  0.0523 -0.1640
19072TIP3    H178631   0.552   0.484   0.876 -0.7751  0.8074  0.5490
19072TIP3    H278632   0.664   0.425   0.958 -0.7116 -0.4726 -0.4284
19073TIP3   OH278633   0.404   4.359  16.323 -0.1229  0.9019 -0.1359
19073TIP3    H178634   0.376   4.448  16.302  2.5927  1.7603 -0.5177
19073TIP3    H278635   0.456   4.333  16.247  0.5473 -0.3380  0.7259
19074TIP3   OH278636   5.874   2.588   1.990  0.2346  0.6522 -0.1509
19074TIP3    H178637   5.919   2.530   2.053  2.4160  1.3062 -1.0297
19074TIP3    H278638   5.944   2.636   1.947 -1.3254  1.4788 -1.8970
19075TIP3   OH278639   0.960   4.673  13.609 -0.1664 -0.5377 -0.4430
19075TIP3    H178640   0.943   4.753  13.559  1.8720 -1.6478 -3.2203
19075TIP3    H278641   1.024   4.699  13.675 -1.6356  0.6377  0.5661
19076TIP3   OH278642   4.169   4.177   0.462  0.1068  0.1574  0.1320
19076TIP3    H178643   4.188   4.160   0.555  0.7629  1.1038  0.1823
19076TIP3    H278644   4.088   4.228   0.463  0.8737  1.4265  0.2969
19077TIP3   OH278645   3.614   1.366   3.646 -0.5263  0.1960  0.2026
19077TIP3    H178646   3.675   1.363   3.720 -0.3638  0.4433  0.0810
19077TIP3    H278647   3.661   1.415   3.578 -0.7941  0.2394  0.0464
19078TIP3   OH278648   0.988   2.869   0.498 -0.1989 -0.8270 -0.1385
19078TIP3    H178649   1.041   2.811   0.553  0.6381  1.0852  1.1694
19078TIP3    H278650   0.916   2.895   0.554 -0.5665 -0.5964 -0.7131
19079TIP3   OH278651   6.390   3.628  11.826  0.3469  0.7687 -0.0317
19079TIP3    H178652   6.465   3.640  11.884  0.2860 -1.1430  0.5271
19079TIP3    H278653   6.386   3.708  11.774  1.2695  1.9421  1.6191
19080TIP3   OH278654   4.921   0.384   4.950  0.2719  0.3594 -0.1652
19080TIP3    H178655   4.892   0.471   4.977 -1.3530 -0.1117 -0.2492
19080TIP3    H278656   4.966   0.398   4.867 -1.1032  1.0111 -0.8398
19081TIP3   OH278657   4.263   0.146  12.292  0.3403  0.2603  0.1774
19081TIP3    H178658   4.321   0.077  12.258  0.1324 -0.1451  0.6330
19081TIP3    H278659   4.259   0.129  12.386  0.8641  1.3272  0.4129
19082TIP3   OH278660   2.749   0.822   0.253 -0.1846  0.0930 -0.0267
19082TIP3    H178661   2.839   0.852   0.264 -0.0137 -1.0890  2.8432
19082TIP3    H278662   2.754   0.727   0.267 -1.6830 -0.2023 -1.2912
19083TIP3   OH278663   4.189   4.279  13.605  0.3074 -0.1591  0.1229
19083TIP3    H178664   4.257   4.218  13.576  0.0371  0.5462 -2.2084
19083TIP3    H278665   4.231   4.365  13.604 -0.2433  0.1150 -0.0244
19084TIP3   OH278666   5.496   0.252  11.183 -0.0243 -0.3690  0.1868
19084TIP3    H178667   5.442   0.174  11.182 -1.4619  0.5075  2.1686
19084TIP3    H278668   5.449   0.315  11.128  1.0356 -0.7874 -1.2571
19085TIP3   OH278669   1.148   3.251  17.218 -0.1926  0.4036  0.5666
19085TIP3    H178670   1.151   3.271  17.312 -0.6884  2.7719  0.1425
19085TIP3    H278671   1.074   3.302  17.185 -0.0169 -0.3823 -1.1309
19086TIP3   OH278672   1.710   0.176   4.773  0.0328  0.1878 -0.0395
19086TIP3    H178673   1.722   0.240   4.844  0.4454 -1.0508  1.0406
19086TIP3    H278674   1.625   0.199   4.734 -1.9133 -1.1062  3.0677
19087TIP3   OH278675   3.733   5.594  15.973 -0.7396  0.3331  0.0014
19087TIP3    H178676   3.642   5.570  15.961 -1.4307  2.9398 -0.4791
19087TIP3    H278677   3.744   5.599  16.068 -1.0616 -0.0405  0.0624
19088TIP3   OH278678   3.771   0.189   2.905  0.2214 -0.2413 -0.5004
19088TIP3    H178679   3.842   0.224   2.959 -0.5422  1.2360 -0.3949
19088TIP3    H278680   3.812   0.170   2.821  0.8532  0.0631 -0.2688
19089TIP3   OH278681   6.405   0.138   0.076  0.5235  0.4904 -0.0720
19089TIP3    H178682   6.452   0.063   0.114 -0.8849 -0.3621  0.0672
19089TIP3    H278683   6.441   0.145  -0.013  1.1151  0.0549  0.1211
19090TIP3   OH278684   0.309   4.384   0.666 -0.4079  0.0880 -0.5836
19090TIP3    H178685   0.375   4.423   0.723  0.1507 -0.3991 -0.8798
19090TIP3    H278686   0.343   4.397   0.577  0.6644 -2.4801 -0.6483
19091TIP3   OH278687   6.631   2.637  12.260 -0.4467  0.1609  0.4820
19091TIP3    H178688   6.612   2.640  12.166  0.7338 -1.2137  0.1609
19091TIP3    H278689   6.549   2.610  12.300 -1.0298  0.9963 -0.1208
19092TIP3   OH278690   2.438   5.105   2.264  0.2441  0.1232 -0.3993
19092TIP3    H178691   2.445   5.177   2.327  0.0220 -0.1544 -0.0532
19092TIP3    H278692   2.402   5.032   2.315 -1.1992  0.2709 -1.1329
19093TIP3   OH278693   4.705   2.102   3.137  0.1666 -0.0213  0.1531
19093TIP3    H178694   4.668   2.096   3.225  0.5723  0.8839  0.4080
19093TIP3    H278695   4.734   2.013   3.116  1.1411 -0.0387  1.4305
19094TIP3   OH278696   3.601   2.877  12.000  0.5242 -0.4649 -0.5712
19094TIP3    H178697   3.651   2.958  11.988 -1.4259  0.5204 -2.7793
19094TIP3    H278698   3.511   2.901  11.980 -0.3753 -2.8807  0.2148
19095TIP3   OH278699   5.978   6.554   5.790  0.3732 -0.1875 -0.0987
19095TIP3    H178700   6.023   6.624   5.837 -0.1714 -0.1702  0.4131
19095TIP3    H278701   5.895   6.593   5.762  1.0044  0.0281 -1.7488
19096TIP3   OH278702   5.744   1.739   2.185 -0.0448  0.2114 -0.2058
19096TIP3    H178703   5.673   1.803   2.190  0.6890  1.1221 -1.0516
19096TIP3    H278704   5.822   1.791   2.164  0.6047 -0.9396 -0.7540
19097TIP3   OH278705   6.339   1.995   3.782  0.1215 -0.1996  0.2337
19097TIP3    H178706   6.314   1.949   3.863 -0.9289 -1.9200 -0.9967
19097TIP3    H278707   6.267   1.977   3.722  0.2696  2.1225 -0.7172
19098TIP3   OH278708   0.625   1.021  13.889  0.3750 -0.2616  0.1400
19098TIP3    H178709   0.695   1.086  13.890 -0.4750  0.6875  0.9585
19098TIP3    H278710   0.544   1.073  13.895 -0.3327 -1.3823  0.5934
19099TIP3   OH278711   0.623   6.352   1.261 -0.7471  0.3026 -0.4345
19099TIP3    H178712   0.619   6.319   1.172 -1.5411  2.0351 -1.0944
19099TIP3    H278713   0.598   6.444   1.254 -1.4087  0.3514  1.6659
19100TIP3   OH278714   6.225   6.556  13.199 -0.6775  0.2279 -0.3244
19100TIP3    H178715   6.204   6.524  13.287 -1.0308  0.6798 -0.2402
19100TIP3    H278716   6.146   6.603  13.171 -0.7797 -0.3691 -1.1004
19101TIP3   OH278717   3.006   4.848   3.071  0.1089  0.4960  0.0912
19101TIP3    H178718   2.949   4.779   3.034  2.3066 -1.3425 -0.0671
19101TIP3    H278719   2.955   4.928   3.059 -1.6702 -0.7706 -1.7682
19102TIP3   OH278720   2.241   5.445   3.488  0.0345  0.4023  0.4434
19102TIP3    H178721   2.189   5.480   3.559 -1.2642  0.2815 -0.4228
19102TIP3    H278722   2.178   5.427   3.418  0.9178 -1.7025  0.1096
19103TIP3   OH278723   6.690   1.867   6.434  0.3277  0.0104  0.5846
19103TIP3    H178724   6.632   1.923   6.381 -0.2091 -0.4691  0.6580
19103TIP3    H278725   6.674   1.894   6.524  0.3369 -0.0110  0.5929
19104TIP3   OH278726   4.753   4.426   1.746  0.0484 -0.4424 -0.2330
19104TIP3    H178727   4.694   4.351   1.749  0.2273 -0.5672  0.2109
19104TIP3    H278728   4.696   4.502   1.751 -0.0298 -0.5717  1.0011
19105TIP3   OH278729   1.533   2.754  16.310 -0.4993  0.2806 -0.9681
19105TIP3    H178730   1.555   2.825  16.249 -0.7103 -0.0336 -1.4053
19105TIP3    H278731   1.503   2.800  16.389  0.5085  0.7075 -0.8054
19106TIP3   OH278732   4.596   0.614  15.040 -0.5184 -0.2825 -0.3537
19106TIP3    H178733   4.518   0.558  15.045 -1.3468  0.8521  0.1402
19106TIP3    H278734   4.571   0.683  14.978  0.7517 -0.8439 -1.5196
19107TIP3   OH278735   6.504   1.820  15.219  0.5702  0.6417  0.3110
19107TIP3    H178736   6.487   1.912  15.240  1.0055  0.8522 -0.2505
19107TIP3    H278737   6.420   1.776  15.237  0.2749  1.1930  0.3135
19108TIP3   OH278738   2.218   0.675  13.182 -0.2847  0.0529 -0.8158
19108TIP3    H178739   2.135   0.717  13.205 -1.3764 -2.0726 -0.5712
19108TIP3    H278740   2.205   0.582  13.204  1.8779 -0.4920 -1.5441
19109TIP3   OH278741   0.670   5.295   3.310  0.3106  0.3252  0.3755
19109TIP3    H178742   0.683   5.389   3.306 -1.3928  0.8431  3.6057
19109TIP3    H278743   0.578   5.282   3.290  0.5801 -0.7359 -0.3113
19110TIP3   OH278744   6.112   0.246  16.941  0.3427 -0.0448  0.9469
19110TIP3    H178745   6.118   0.330  16.986  3.4059  1.0657 -1.1828
19110TIP3    H278746   6.097   0.269  16.849 -0.5843 -1.9594  0.5639
19111TIP3   OH278747   6.520   6.505   0.472  0.0445 -0.0868  0.0612
19111TIP3    H178748   6.508   6.493   0.378 -2.0195 -2.2586  0.4861
19111TIP3    H278749   6.539   6.598   0.482 -3.8143  1.2222 -2.2535
19112TIP3   OH278750   4.412   4.374  14.982 -0.3688 -0.1053 -0.5026
19112TIP3    H178751   4.405   4.286  15.019  1.6613 -0.7348 -1.4998
19112TIP3    H278752   4.333   4.383  14.928 -0.3238 -1.5376 -0.8451
19113TIP3   OH278753   3.636   3.168  15.841 -0.2475  0.4201 -0.6854
19113TIP3    H178754   3.696   3.095  15.828 -0.9738  0.0082 -1.8156
19113TIP3    H278755   3.646   3.221  15.762  0.2912  1.5902  0.1260
19114TIP3   OH278756   5.549   1.390   3.042  0.6127 -0.1534 -0.5971
19114TIP3    H178757   5.632   1.434   3.064 -0.4588  2.1926 -0.9327
19114TIP3    H278758   5.494   1.403   3.120  1.0478 -3.2459  0.3522
19115TIP3   OH278759   2.948   2.212   3.353  0.2396  0.4272 -0.1102
19115TIP3    H178760   2.906   2.152   3.414  3.7339 -1.7492  0.4762
19115TIP3    H278761   2.943   2.298   3.396 -0.3492 -0.4255  1.6068
19116TIP3   OH278762   3.634   3.028   1.074  0.5436 -0.5398 -0.4680
19116TIP3    H178763   3.721   3.033   1.113 -0.8742  0.2920  3.0986
19116TIP3    H278764   3.594   3.113   1.095 -1.6489 -1.4976 -0.4686
19117TIP3   OH278765   4.084   1.281   0.341  1.0106  0.3129  0.1705
19117TIP3    H178766   4.112   1.278   0.433  3.3962  1.0065 -0.4628
19117TIP3    H278767   4.115   1.366   0.310 -1.3998  0.8891 -0.8321
19118TIP3   OH278768   4.963   2.515  13.374 -0.1358  0.2638 -0.7802
19118TIP3    H178769   4.895   2.577  13.401 -1.0149 -1.0016 -0.0027
19118TIP3    H278770   5.043   2.547  13.417 -0.2437  1.6158 -1.4970
19119TIP3   OH278771   4.859   4.043  14.206 -0.2573 -0.2081 -0.2411
19119TIP3    H178772   4.928   3.979  14.188  0.6400  0.8899 -0.7880
19119TIP3    H278773   4.779   4.001  14.174  0.2025 -1.3113 -0.0007
19120TIP3   OH278774   2.982   1.781   4.175  0.6761 -0.1236  0.5771
19120TIP3    H178775   2.946   1.815   4.257 -3.4072 -0.0930 -1.0210
19120TIP3    H278776   3.061   1.733   4.202  1.3299  2.4738  4.0353
19121TIP3   OH278777   4.654   0.377   4.859 -0.0001  0.1829  0.1006
19121TIP3    H178778   4.730   0.349   4.910  1.5211  2.4354 -0.7630
19121TIP3    H278779   4.653   0.472   4.868 -1.2572  0.4181 -1.8978
19122TIP3   OH278780   1.244   1.592  16.872 -0.7525 -0.2445 -0.3327
19122TIP3    H178781   1.194   1.666  16.907 -1.4292 -0.3964 -0.9515
19122TIP3    H278782   1.194   1.564  16.795  1.0171  0.4876 -1.8171
19123TIP3   OH278783   4.907   3.952  17.285 -0.2119 -0.2446 -0.1153
19123TIP3    H178784   4.970   4.018  17.312  0.6317 -1.7601  1.8970
19123TIP3    H278785   4.846   3.999  17.227  0.2894  2.2987  1.2573
19124TIP3   OH278786   6.267   0.181  13.643  0.3707 -0.4253 -0.3429
19124TIP3    H178787   6.281   0.115  13.575  1.7828 -0.5141  0.0055
19124TIP3    H278788   6.354   0.213  13.664  0.0314 -0.7426  1.7787
19125TIP3   OH278789   6.288   3.950  14.631 -0.5974 -0.1565 -0.1275
19125TIP3    H178790   6.383   3.939  14.636 -0.5838 -0.1350 -0.3180
19125TIP3    H278791   6.268   4.021  14.692 -0.6044 -0.7704  0.6008
19126TIP3   OH278792   3.069   3.325  11.929  0.4518 -0.0485  0.4982
19126TIP3    H178793   3.154   3.365  11.946 -0.3404  1.0249  2.1736
19126TIP3    H278794   3.087   3.255  11.867  2.3404  1.0425 -0.2488
19127TIP3   OH278795   5.657   3.732  10.550  0.0715 -0.3380 -0.0734
19127TIP3    H178796   5.657   3.637  10.561 -2.7959 -0.5589 -0.9928
19127TIP3    H278797   5.661   3.746  10.455 -0.6328  0.3912 -0.0121
19128TIP3   OH278798   1.227   5.725  12.878  0.6938  0.1214  0.0459
19128TIP3    H178799   1.275   5.808  12.869  1.8880 -0.6214 -0.7557
19128TIP3    H278800   1.237   5.682  12.793 -0.0484 -0.7775  0.4021
19129TIP3   OH278801   6.161   3.865  13.178 -0.3389 -0.1963  0.1618
19129TIP3    H178802   6.135   3.953  13.204 -2.1859 -0.4072 -0.7776
19129TIP3    H278803   6.128   3.855  13.088  1.0996 -1.3577 -0.2964
19130TIP3   OH278804   0.259   1.882  14.920  0.0313 -0.7024 -0.0874
19130TIP3    H178805   0.290   1.883  15.011 -0.8533 -0.6096  0.2287
19130TIP3    H278806   0.313   1.816  14.877  2.5154  1.3247 -0.2772
19131TIP3   OH278807   1.633   0.673  15.079  0.0271 -0.0809  0.3882
19131TIP3    H178808   1.561   0.705  15.135 -0.2409 -1.0788  0.6237
19131TIP3    H278809   1.589   0.624  15.010  0.4395  0.1064 -0.0115
19132TIP3   OH278810   5.545   0.357   2.896 -0.1664 -0.1822 -0.2511
19132TIP3    H178811   5.482   0.300   2.940  2.0216 -1.5258  1.3163
19132TIP3    H278812   5.525   0.346   2.802 -0.6811 -2.5459  0.0561
19133TIP3   OH278813   2.569   1.128  14.374  0.2579 -0.7347 -0.4863
19133TIP3    H178814   2.638   1.064  14.356  0.1558 -1.2433  0.7751
19133TIP3    H278815   2.615   1.210  14.389  0.3732 -0.4120 -2.3921
19134TIP3   OH278816   6.159   0.592   4.726  0.0412  0.4728  0.4587
19134TIP3    H178817   6.088   0.616   4.666 -1.0293 -0.0252  1.4974
19134TIP3    H278818   6.235   0.583   4.669 -1.0173 -0.3568 -0.9240
19135TIP3   OH278819   0.751   5.518   0.987  0.5640 -0.2210 -0.2409
19135TIP3    H178820   0.745   5.612   1.006 -2.0544 -0.4744  0.5899
19135TIP3    H278821   0.805   5.483   1.058  1.2368  0.5767 -0.3375
19136TIP3   OH278822   0.389   0.455  11.805  0.7764  0.5650  0.1063
19136TIP3    H178823   0.298   0.455  11.774  0.3505  0.5867  1.3037
19136TIP3    H278824   0.429   0.380  11.760 -0.2314 -0.3436  0.6648
19137TIP3   OH278825   3.975   1.220   6.046  0.0302 -0.6899 -0.5428
19137TIP3    H178826   4.013   1.249   6.128 -0.4464  1.2846 -0.9783
19137TIP3    H278827   3.977   1.297   5.989 -0.3219 -1.8065 -2.1439
19138TIP3   OH278828   3.756   4.982  11.446 -0.1435  0.1737 -0.0974
19138TIP3    H178829   3.790   5.048  11.386  0.5691 -0.9602 -0.9819
19138TIP3    H278830   3.703   4.924  11.391  0.2793 -0.7112  0.4008
19139TIP3   OH278831   2.877   0.383  15.155 -0.1305 -0.6489  0.9108
19139TIP3    H178832   2.820   0.440  15.205  0.2080  0.0090  0.5615
19139TIP3    H278833   2.927   0.442  15.099  0.3693 -1.2718  0.6852
19140TIP3   OH278834   4.721   4.851  11.353 -0.2925 -0.0103 -0.2158
19140TIP3    H178835   4.772   4.925  11.385 -1.3470  0.2416  0.9293
19140TIP3    H278836   4.769   4.774  11.383 -2.0521  0.1573  3.6136
19141TIP3   OH278837   3.199   3.144  16.047  0.4356  0.0963  0.1299
19141TIP3    H178838   3.207   3.126  16.141  0.8804 -0.5738 -0.0307
19141TIP3    H278839   3.283   3.181  16.022  0.2099  0.5697  0.0483
19142TIP3   OH278840   5.598   2.223   1.957 -0.2908 -0.1820  0.0568
19142TIP3    H178841   5.531   2.179   1.905  0.1251  1.5098 -2.1011
19142TIP3    H278842   5.679   2.209   1.908  0.0621  1.7983 -0.0153
19143TIP3   OH278843   4.847   6.731  14.208  0.2994 -0.5843 -0.2209
19143TIP3    H178844   4.837   6.744  14.303  3.0992  1.1217 -0.0317
19143TIP3    H278845   4.758   6.719  14.176 -1.0428  1.7055  2.2461
19144TIP3   OH278846   0.945   3.767   6.340 -0.1562  0.2310 -0.1106
19144TIP3    H178847   0.869   3.744   6.286 -0.7400 -0.1140  0.8340
19144TIP3    H278848   0.924   3.853   6.376  0.2828  0.5104 -0.5132
19145TIP3   OH278849   5.402   2.249  12.970 -0.1165  0.3791 -0.2320
19145TIP3    H178850   5.381   2.342  12.977  0.4894  0.4671  0.4531
19145TIP3    H278851   5.465   2.243  12.898 -1.5400  0.2541 -1.5258
19146TIP3   OH278852   6.343   3.894  15.173 -0.5338  0.0027  0.2686
19146TIP3    H178853   6.427   3.862  15.139  0.6486  3.7523 -0.7889
19146TIP3    H278854   6.336   3.854  15.260  4.0723  1.9045  1.8186
19147TIP3   OH278855   5.994   4.936   3.600  0.0153 -0.3825 -0.2973
19147TIP3    H178856   5.926   4.958   3.536 -0.7501 -1.6335  0.0380
19147TIP3    H278857   6.075   4.969   3.561 -0.5753 -0.1875 -1.4166
19148TIP3   OH278858   2.414   3.158  13.588 -0.2647  0.1616  0.2249
19148TIP3    H178859   2.479   3.228  13.591 -0.6315  0.5095  0.1051
19148TIP3    H278860   2.466   3.078  13.582  0.1794  0.3528  1.3440
19149TIP3   OH278861   6.390   0.042  15.957  0.0852 -0.0637  0.4081
19149TIP3    H178862   6.352  -0.028  16.010  0.9827  0.4377  1.7677
19149TIP3    H278863   6.485   0.026  15.962  0.2130  0.1063 -0.9280
19150TIP3   OH278864   3.379   5.744   5.117  0.0062 -0.0417  0.4292
19150TIP3    H178865   3.338   5.658   5.122 -1.3960  0.6371  1.2305
19150TIP3    H278866   3.357   5.776   5.030  1.7923 -1.0609 -0.4434
19151TIP3   OH278867   4.834   1.190   5.609 -0.0799  0.5498 -0.3180
19151TIP3    H178868   4.837   1.201   5.704 -0.6117 -0.2271 -0.1972
19151TIP3    H278869   4.744   1.164   5.591  0.3792 -0.7487 -0.8615
19152TIP3   OH278870   5.808   5.918  14.824 -0.2431 -0.1494 -0.3190
19152TIP3    H178871   5.774   5.976  14.756 -1.1817  0.7528  0.8487
19152TIP3    H278872   5.891   5.887  14.791 -0.1355  1.1838 -1.3864
19153TIP3   OH278873   6.262   0.537  11.716 -0.2746 -0.5760  0.0492
19153TIP3    H178874   6.254   0.543  11.811 -0.1454 -0.3365  0.0438
19153TIP3    H278875   6.270   0.443  11.699  0.7192 -0.5514  0.3524
19154TIP3   OH278876   5.324   2.773  14.781  0.1612  0.4165 -0.3721
19154TIP3    H178877   5.330   2.681  14.754 -0.9249  0.1963  0.0607
19154TIP3    H278878   5.239   2.779  14.825  0.8033  1.3112  0.8244
19155TIP3   OH278879   3.839   0.210   5.792  0.4219  0.1524  0.1018
19155TIP3    H178880   3.891   0.227   5.713  1.0915 -2.2028 -0.0381
19155TIP3    H278881   3.753   0.184   5.759  0.1316  0.9119  0.2345
19156TIP3   OH278882   2.510   2.427  16.554 -0.3682 -0.2270  0.0624
19156TIP3    H178883   2.562   2.491  16.602 -2.4973  0.9343  0.9588
19156TIP3    H278884   2.445   2.396  16.617 -1.9897 -0.1458 -1.4821
19157TIP3   OH278885   6.114   5.367   3.664  0.1481 -0.6212  0.2052
19157TIP3    H178886   6.141   5.437   3.605  2.1806  0.1078  1.8718
19157TIP3    H278887   6.117   5.288   3.610 -0.9977  0.3707 -1.3885
19158TIP3   OH278888   1.795   5.354  13.101  0.3450  0.6755 -0.0659
19158TIP3    H178889   1.787   5.441  13.141  1.1105  0.9296 -0.4404
19158TIP3    H278890   1.888   5.347  13.078  0.6219 -0.8434  1.3301
19159TIP3   OH278891   2.904   0.254  14.257  0.2466  0.4248  0.1334
19159TIP3    H178892   2.904   0.213  14.344 -1.8072 -0.4953 -0.2466
19159TIP3    H278893   2.900   0.180  14.196 -0.5986  1.0987 -0.6562
19160TIP3   OH278894   0.853   2.912  12.709 -0.5238  0.7468 -0.0375
19160TIP3    H178895   0.855   2.819  12.730 -1.7272  1.0325  1.4472
19160TIP3    H278896   0.938   2.945  12.739 -0.1298  0.1769 -0.4831
19161TIP3   OH278897   5.706   0.655  14.672 -0.3873 -0.0514  0.2288
19161TIP3    H178898   5.635   0.720  14.665 -1.0956 -0.8239  0.0169
19161TIP3    H278899   5.677   0.582  14.617  1.9662  0.8003 -2.3233
19162TIP3   OH278900   4.353   6.002   4.852 -0.3495  0.0908 -0.5634
19162TIP3    H178901   4.262   5.994   4.881 -0.4211 -2.0559 -1.1763
19162TIP3    H278902   4.403   5.950   4.916  0.9229  3.4310  1.3883
19163TIP3   OH278903   6.714   6.054   2.801 -0.0135 -0.4642  0.3207
19163TIP3    H178904   6.766   6.117   2.850  1.6505 -0.1405 -1.7275
19163TIP3    H278905   6.695   6.097   2.718 -0.8640 -1.7960 -0.2150
19164TIP3   OH278906   0.288   6.650  11.868  0.4001 -0.0934  0.0339
19164TIP3    H178907   0.206   6.639  11.820  0.4332 -0.2407  0.0097
19164TIP3    H278908   0.311   6.561  11.897 -1.0650  0.3005  2.7474
19165TIP3   OH278909   3.044   4.244   1.270  0.2099 -0.2222 -0.0971
19165TIP3    H178910   2.962   4.290   1.250 -0.2507 -0.3375  1.4074
19165TIP3    H278911   3.020   4.152   1.271  0.0598 -0.2014  1.4513
19166TIP3   OH278912   1.841   2.384   2.851  0.0946  0.5735  0.0417
19166TIP3    H178913   1.851   2.476   2.875  0.4732  0.1419  1.6748
19166TIP3    H278914   1.899   2.373   2.776  1.1284  1.3632  0.6920
19167TIP3   OH278915   3.671   0.371   3.450 -0.4076  0.3213  0.0415
19167TIP3    H178916   3.623   0.376   3.532 -0.2835 -1.2323  0.2416
19167TIP3    H278917   3.662   0.280   3.422  2.6472 -0.1758  0.2801
19168TIP3   OH278918   1.206   5.687   4.716  0.2124 -0.1419  0.2385
19168TIP3    H178919   1.236   5.683   4.806 -1.9897  0.2325  1.0531
19168TIP3    H278920   1.115   5.717   4.722 -0.1126 -0.4522 -2.0827
19169TIP3   OH278921   3.265   0.448   1.679 -0.6866 -0.1998  0.2323
19169TIP3    H178922   3.183   0.498   1.682 -0.0631  0.8629  0.2497
19169TIP3    H278923   3.291   0.449   1.587  0.3206  1.2414  0.4848
19170TIP3   OH278924   3.530   6.417   1.262  0.3901  0.6399 -0.2297
19170TIP3    H178925   3.514   6.435   1.169 -0.9411  0.4328 -0.0682
19170TIP3    H278926   3.526   6.321   1.268  1.4606  0.5908 -0.1063
19171TIP3   OH278927   4.962   0.688   1.604 -0.2309 -0.2767 -0.0879
19171TIP3    H178928   4.973   0.783   1.616 -0.1863 -0.4937  2.0462
19171TIP3    H278929   5.044   0.660   1.563  0.3957  0.4259  0.6277
19172TIP3   OH278930   3.522   3.689   3.982 -0.0466  0.0398 -1.0672
19172TIP3    H178931   3.609   3.659   4.008 -0.5129 -0.2813  0.1801
19172TIP3    H278932   3.524   3.686   3.886  0.2046 -3.3083 -1.1009
19173TIP3   OH278933   0.922   3.775  17.034 -0.3364  0.4071 -0.2420
19173TIP3    H178934   0.972   3.700  17.068  1.0268  1.0370 -0.7755
19173TIP3    H278935   0.912   3.756  16.941  1.3821  1.5642 -0.7162
19174TIP3   OH278936   0.883   0.008  11.765 -0.0958 -0.8303  0.2430
19174TIP3    H178937   0.901  -0.078  11.802  1.9077  0.0858  1.5323
19174TIP3    H278938   0.966   0.036  11.726 -0.9859  0.1167 -1.0818
19175TIP3   OH278939   3.997   3.596  10.455 -0.0246  0.5373  0.2148
19175TIP3    H178940   3.914   3.550  10.463 -0.1512  0.6923 -0.1762
19175TIP3    H278941   3.985   3.655  10.380  0.3703  0.7009  0.2750
19176TIP3   OH278942   5.786   1.241   3.906 -0.0903  0.4407 -0.0551
19176TIP3    H178943   5.770   1.220   3.998 -1.2807 -2.9073 -0.8813
19176TIP3    H278944   5.702   1.227   3.863  0.7975  0.3989 -1.8732
19177TIP3   OH278945   5.253   6.666  15.317  0.3334  0.3553 -0.2863
19177TIP3    H178946   5.214   6.584  15.285 -1.0346  0.3911  1.1304
19177TIP3    H278947   5.347   6.647  15.324  0.0237 -1.1606  0.1387
19178TIP3   OH278948   5.623   3.211   2.313  0.2136 -0.1407 -0.2365
19178TIP3    H178949   5.631   3.307   2.312  1.6368 -0.2392 -0.5249
19178TIP3    H278950   5.542   3.194   2.362  0.5985  1.1745  0.9286
19179TIP3   OH278951   3.420   5.084   0.748  0.5838  0.2268  0.1144
19179TIP3    H178952   3.361   5.020   0.708  1.0668 -0.9660  1.2354
19179TIP3    H278953   3.486   5.102   0.681  1.4628 -1.8367  0.3677
19180TIP3   OH278954   0.219   3.972  12.737 -0.0131 -0.2933 -0.1630
19180TIP3    H178955   0.242   4.052  12.785 -2.6668  0.8620 -0.6495
19180TIP3    H278956   0.297   3.916  12.745  0.9022  1.1791  2.5937
19181TIP3   OH278957   2.974   5.912   4.022 -0.5137 -0.1946 -0.5806
19181TIP3    H178958   2.916   5.930   3.948 -0.9212 -1.8338 -0.6997
19181TIP3    H278959   2.949   5.977   4.088  0.2327  1.6551 -2.0283
19182TIP3   OH278960   4.043   2.332  13.148  0.0094 -0.0190 -0.2371
19182TIP3    H178961   4.083   2.271  13.086 -0.4693  0.2467 -0.8237
19182TIP3    H278962   4.106   2.338  13.220 -0.1668 -1.6086  0.0978
19183TIP3   OH278963   0.626   3.436   3.069 -0.7651 -0.0432 -0.3242
19183TIP3    H178964   0.626   3.342   3.084  0.4955  0.3347  2.6724
19183TIP3    H278965   0.705   3.468   3.113 -0.1442  2.2536 -2.8126
19184TIP3   OH278966   1.278   2.940   3.977 -0.6776  0.2418 -0.0766
19184TIP3    H178967   1.295   2.942   4.071 -1.0806 -0.9602  0.0455
19184TIP3    H278968   1.207   2.876   3.967 -1.3303  1.0886 -1.1034
19185TIP3   OH278969   2.385   5.124   5.746  0.8369  0.6256 -0.1497
19185TIP3    H178970   2.390   5.207   5.794 -1.5599 -0.6271  2.5899
19185TIP3    H278971   2.336   5.145   5.667 -2.0353  1.5021  1.7147
19186TIP3   OH278972   5.072   0.447   4.421 -0.1640  0.6523 -0.1834
19186TIP3    H178973   5.083   0.352   4.415  0.2745  0.4610  2.5457
19186TIP3    H278974   5.157   0.483   4.396 -0.6280  0.4503 -2.2479
19187TIP3   OH278975   5.042   2.724   2.266  0.1506 -0.1349  0.4546
19187TIP3    H178976   5.013   2.633   2.258  1.1035 -0.4588  0.6310
19187TIP3    H278977   4.969   2.775   2.230  0.1414 -1.0318 -0.8687
19188TIP3   OH278978   3.067   6.607   3.202 -0.1068  0.2686  0.0337
19188TIP3    H178979   3.046   6.693   3.165  0.5364  1.4851  2.2778
19188TIP3    H278980   2.995   6.590   3.263  0.6267  0.0560  0.8574
19189TIP3   OH278981   6.335   2.390   5.340 -0.4666  0.2732  0.1469
19189TIP3    H178982   6.376   2.458   5.393 -1.9408  0.1213  1.5813
19189TIP3    H278983   6.400   2.320   5.336  0.0727  0.7190  0.8949
19190TIP3   OH278984   4.620   0.661  13.063  0.8517 -0.3432  0.4214
19190TIP3    H178985   4.574   0.664  12.979 -0.0217 -0.1883  0.8869
19190TIP3    H278986   4.712   0.647  13.040  0.9263  1.5190 -0.6506
19191TIP3   OH278987   5.157   0.386  14.926 -0.3151  0.3877  0.4214
19191TIP3    H178988   5.101   0.431  14.863  0.9362  2.0080  0.4027
19191TIP3    H278989   5.160   0.295  14.894 -0.0217  1.0625 -1.6511
19192TIP3   OH278990   4.282   2.120   6.672  0.1784 -0.1915  0.4385
19192TIP3    H178991   4.212   2.180   6.646  3.0221  2.6217 -1.6103
19192TIP3    H278992   4.280   2.051   6.606 -2.2468 -1.7588  2.0006
19193TIP3   OH278993   2.149   4.145   0.381  0.1064  0.0506 -0.5857
19193TIP3    H178994   2.106   4.097   0.311  1.5644 -1.5322 -0.4749
19193TIP3    H278995   2.093   4.132   0.458  0.5966 -1.7974 -0.4861
19194TIP3   OH278996   5.521   0.178   4.227 -0.2362 -0.5904 -0.0380
19194TIP3    H178997   5.566   0.165   4.310 -0.3042  1.1346  0.3070
19194TIP3    H278998   5.586   0.153   4.161  0.7538  0.4806  0.4875
19195TIP3   OH278999   0.905   5.680  11.652 -0.2518 -0.1794 -0.1803
19195TIP3    H179000   0.954   5.716  11.578  0.7657  0.0952  0.5969
19195TIP3    H279001   0.895   5.753  11.713 -0.2271 -0.6327  0.3798
19196TIP3   OH279002   4.585   2.774  12.148  0.1018 -0.4182 -0.2754
19196TIP3    H179003   4.669   2.794  12.107 -0.6773  0.3433 -1.5539
19196TIP3    H279004   4.557   2.856  12.188  0.5856 -1.0101  1.3922
19197TIP3   OH279005   1.793   0.460  13.881 -0.8040  0.5830  0.0124
19197TIP3    H179006   1.797   0.399  13.954 -1.3505 -0.2167 -0.6056
19197TIP3    H279007   1.840   0.538  13.911 -0.6730  0.1101  1.0531
19198TIP3   OH279008   0.389   5.117   3.026  0.1909  0.3935 -0.3172
19198TIP3    H179009   0.444   5.057   2.976  0.1340 -2.1283  2.3664
19198TIP3    H279010   0.301   5.079   3.022  0.0320  0.5731  0.9700
19199TIP3   OH279011   6.155   4.286  13.934  0.2884 -0.2614 -0.0997
19199TIP3    H179012   6.120   4.211  13.885  0.5239 -0.4496  0.0180
19199TIP3    H279013   6.237   4.253  13.973  0.1371 -0.0951  0.3665
19200TIP3   OH279014   6.428   1.036  14.316 -0.1856 -0.0690  0.4274
19200TIP3    H179015   6.500   1.059  14.257  0.9097 -1.3864  1.1728
19200TIP3    H279016   6.360   1.100  14.298 -0.2314 -0.8809 -2.8357
19201TIP3   OH279017   0.849   2.232   1.227  0.2255  0.4561  0.2607
19201TIP3    H179018   0.814   2.266   1.309 -0.4789 -0.8696  0.5404
19201TIP3    H279019   0.789   2.264   1.159 -0.0657  0.2888  0.4414
19202TIP3   OH279020   2.716   6.613   0.816  0.1730  0.0132 -0.8416
19202TIP3    H179021   2.711   6.623   0.911 -1.6433 -0.7004 -0.8255
19202TIP3    H279022   2.766   6.689   0.787 -0.4380  1.0006  0.5645
19203TIP3   OH279023   0.675   1.977   2.054 -0.4054 -0.2242  0.5275
19203TIP3    H179024   0.636   2.063   2.039 -0.6933 -0.5308 -0.6205
19203TIP3    H279025   0.638   1.947   2.137  0.1788  1.0101  1.2600
19204TIP3   OH279026   0.460   6.470   6.114  0.4002  0.1723 -0.0434
19204TIP3    H179027   0.375   6.483   6.156 -0.0528  0.6361 -1.0741
19204TIP3    H279028   0.463   6.535   6.044  1.9031  0.6352  0.4028
19205TIP3   OH279029   4.386   3.701   2.242 -0.3494  0.0311  0.1243
19205TIP3    H179030   4.458   3.706   2.180 -0.9371 -1.8725 -0.7823
19205TIP3    H279031   4.344   3.617   2.224 -3.4991  1.4886 -0.1877
19206TIP3   OH279032   1.909   5.730  11.261 -0.1090 -0.3321 -0.4005
19206TIP3    H179033   1.872   5.808  11.301  1.6533  0.3267  0.0236
19206TIP3    H279034   1.979   5.762  11.205 -0.2589 -1.5220 -1.3255
19207TIP3   OH279035   5.042   1.777  16.027  0.4873 -0.0472  0.3791
19207TIP3    H179036   5.112   1.842  16.020  0.5294 -0.2035 -0.8465
19207TIP3    H279037   4.963   1.830  16.041  0.5653  0.2735 -0.3117
19208TIP3   OH279038   6.611   0.677  13.391 -0.0641 -0.7887  0.0273
19208TIP3    H179039   6.537   0.643  13.341  0.0549 -1.0746  0.0398
19208TIP3    H279040   6.573   0.705  13.475 -0.3691  0.2888 -0.4556
19209TIP3   OH279041   3.609   3.305   6.175  0.4275  0.1481 -0.1896
19209TIP3    H179042   3.663   3.292   6.253 -0.6892 -0.6298  0.4910
19209TIP3    H279043   3.520   3.285   6.204 -0.0630  0.1969 -1.5750
19210TIP3   OH279044   5.711   3.925   1.878 -0.1178 -0.0839 -0.2969
19210TIP3    H179045   5.629   3.973   1.872 -0.6895 -0.6854  1.7463
19210TIP3    H279046   5.772   3.974   1.822 -1.8778  0.2518 -2.0082
19211TIP3   OH279047   1.508   5.008   1.545 -0.1251  0.5132 -0.1560
19211TIP3    H179048   1.544   4.999   1.457 -1.3699 -1.4150 -0.5255
19211TIP3    H279049   1.426   4.957   1.544 -0.1253  0.3235  2.1387
19212TIP3   OH279050   0.695   1.314   5.908 -0.3854 -0.1815 -0.2476
19212TIP3    H179051   0.638   1.344   5.978  0.9957 -1.2730  1.4440
19212TIP3    H279052   0.711   1.221   5.929  1.3427 -0.1041 -1.0808
19213TIP3   OH279053   2.455   4.624   1.306 -0.1443  0.2860  0.7376
19213TIP3    H179054   2.448   4.695   1.241  2.6842 -0.6666 -0.8114
19213TIP3    H279055   2.524   4.654   1.366 -0.8823  0.0071  1.7433
19214TIP3   OH279056   1.206   1.749  12.486 -0.0417 -0.4114  0.2419
19214TIP3    H179057   1.118   1.782  12.505 -0.0252  1.5344 -2.5086
19214TIP3    H279058   1.263   1.798  12.546 -0.4459  1.8580 -1.0885
19215TIP3   OH279059   1.638   5.942  17.340  0.3685  0.3150  0.5497
19215TIP3    H179060   1.582   5.885  17.393  0.1878 -0.9473 -0.9154
19215TIP3    H279061   1.585   5.962  17.263  2.2239 -1.8271 -1.4190
19216TIP3   OH279062   3.353   4.305  10.811  0.1401 -0.0079 -1.1901
19216TIP3    H179063   3.357   4.214  10.781 -0.2997  0.0377 -1.4073
19216TIP3    H279064   3.273   4.339  10.771 -1.0950 -0.2532  0.9403
19217TIP3   OH279065   0.902   5.914  17.079 -0.4433 -0.3317 -0.4315
19217TIP3    H179066   0.929   5.848  17.016 -1.1504  1.1263 -2.3557
19217TIP3    H279067   0.926   5.998  17.039 -2.0815  0.7054  0.6125
19218TIP3   OH279068   4.726   3.460  11.963 -0.2080  0.7362 -0.1586
19218TIP3    H179069   4.728   3.533  12.025 -0.5881  0.5610  0.0643
19218TIP3    H279070   4.633   3.440  11.954 -0.1318  0.5682 -0.5613
19219TIP3   OH279071   2.727   0.454   2.897 -0.1187 -0.3436 -0.0568
19219TIP3    H179072   2.811   0.484   2.932 -0.0866 -2.1016  1.5261
19219TIP3    H279073   2.736   0.359   2.893 -1.4893 -0.4573 -1.4102
19220TIP3   OH279074   1.909   0.457   6.016  1.1910  0.3608  0.0634
19220TIP3    H179075   1.820   0.477   5.989  1.9227 -0.2378 -3.2143
19220TIP3    H279076   1.938   0.535   6.063 -0.4946  1.2869 -0.3620
19221TIP3   OH279077   5.669   2.474   3.302 -0.2455 -0.6437 -0.2860
19221TIP3    H179078   5.648   2.427   3.383 -0.3774  0.7040  0.4805
19221TIP3    H279079   5.755   2.512   3.318 -0.6145  0.2891 -0.4559
19222TIP3   OH279080   2.885   0.361   0.837 -0.1950 -0.1165 -0.4387
19222TIP3    H179081   2.946   0.420   0.883 -0.6897  1.3550 -1.6116
19222TIP3    H279082   2.815   0.418   0.806  0.2555 -0.9662 -3.2740
19223TIP3   OH279083   0.155   3.212  16.106 -0.8263 -0.0185  0.0114
19223TIP3    H179084   0.194   3.128  16.131  2.5837  1.2133 -0.6684
19223TIP3    H279085   0.091   3.231  16.175  0.3631 -1.8483  1.7069
19224TIP3   OH279086   4.709   1.684   3.852 -0.1307  0.0377  0.0394
19224TIP3    H179087   4.644   1.641   3.906  0.4065 -0.8193  0.0288
19224TIP3    H279088   4.677   1.674   3.762  1.3120 -2.8968 -0.2741
19225TIP3   OH279089   0.701   3.475   5.560  0.0259 -0.1160 -0.4229
19225TIP3    H179090   0.742   3.555   5.527 -0.9942  0.4041 -0.4849
19225TIP3    H279091   0.621   3.467   5.508 -0.0754 -0.9666 -0.1461
19226TIP3   OH279092   6.046   3.076   0.726  0.4166 -0.1476  0.0559
19226TIP3    H179093   6.010   3.159   0.758  1.1825  0.4616 -0.6246
19226TIP3    H279094   6.110   3.051   0.793  0.4343 -0.0035  0.0945
19227TIP3   OH279095   3.265   6.192  15.958 -0.1036 -0.1548 -0.0673
19227TIP3    H179096   3.356   6.192  15.930  0.2610 -0.7685  1.0211
19227TIP3    H279097   3.220   6.251  15.897  0.8541 -0.4782 -1.1229
19228TIP3   OH279098   1.130   6.344  12.411  0.0755  0.1123  0.0213
19228TIP3    H179099   1.201   6.309  12.358 -1.7951  0.0119 -2.5822
19228TIP3    H279100   1.142   6.439  12.408  1.1771  0.0454  1.2855
19229TIP3   OH279101   4.877   0.851  15.952  0.4844  0.0004  0.1022
19229TIP3    H179102   4.934   0.833  16.028  0.3869  2.4257  0.8282
19229TIP3    H279103   4.922   0.920  15.904  0.7973 -1.8329 -2.4332
19230TIP3   OH279104   3.580   5.140  16.797 -0.3333 -0.2043 -0.2896
19230TIP3    H179105   3.633   5.126  16.876  1.7747 -1.0734 -1.7603
19230TIP3    H279106   3.639   5.185  16.737 -1.6085 -0.3511 -1.6859
19231TIP3   OH279107   3.897   5.176   0.876  0.1676  0.4770  0.0617
19231TIP3    H179108   3.861   5.118   0.943 -1.1430  1.9053  0.6731
19231TIP3    H279109   3.962   5.229   0.922  0.1208  0.6544 -0.0740
19232TIP3   OH279110   1.950   0.883  17.051 -0.1436 -0.4656  0.2977
19232TIP3    H179111   2.002   0.870  16.971  0.0596 -0.0245  0.3566
19232TIP3    H279112   1.942   0.796  17.089  2.7567 -0.2508  1.6682
19233TIP3   OH279113   3.901   3.970   1.271 -0.1883 -0.3619  0.2145
19233TIP3    H179114   3.967   4.012   1.216  0.5200 -0.0328  1.2755
19233TIP3    H279115   3.818   4.008   1.244 -0.1297 -1.6716 -2.0007
19234TIP3   OH279116   4.989   6.695   6.500 -0.3042 -0.0324  0.1157
19234TIP3    H179117   5.025   6.783   6.490  1.8675 -0.5622  2.2658
19234TIP3    H279118   4.896   6.705   6.484 -0.0659  2.5939 -0.0574
19235TIP3   OH279119   2.252   3.357   4.991  0.1993  0.5743 -0.0653
19235TIP3    H179120   2.195   3.373   4.916 -0.1070  2.2080  0.4715
19235TIP3    H279121   2.193   3.331   5.061  0.1788  1.5993  0.3056
19236TIP3   OH279122   6.258   1.906  12.536  0.6210 -0.6691  0.5793
19236TIP3    H179123   6.345   1.870  12.554  1.4852  1.0931  0.1100
19236TIP3    H279124   6.253   1.985  12.590 -0.7304 -0.7595  0.6359
19237TIP3   OH279125   4.710   0.815  11.863 -0.5083 -0.9378 -0.1810
19237TIP3    H179126   4.652   0.878  11.906  1.7372  0.6665  0.7062
19237TIP3    H279127   4.728   0.855  11.777  2.2080  0.6013  0.9961
19238TIP3   OH279128   1.472   5.471  14.162  0.3958 -0.1365  0.3103
19238TIP3    H179129   1.505   5.415  14.233  0.4963  0.2565  0.5764
19238TIP3    H279130   1.378   5.478  14.180 -0.0505 -2.0285 -0.9786
19239TIP3   OH279131   0.110   6.253  15.776  0.0410  0.5242 -0.1193
19239TIP3    H179132   0.033   6.218  15.730  0.6498 -1.2976  0.1729
19239TIP3    H279133   0.083   6.257  15.868  0.6927 -1.4306  0.1947
19240TIP3   OH279134   2.637   2.308   2.315 -0.7057 -0.3079  0.6071
19240TIP3    H179135   2.662   2.285   2.404  1.1643  1.3790  0.5673
19240TIP3    H279136   2.719   2.313   2.267 -1.3866  1.7188 -0.4698
19241TIP3   OH279137   0.464   3.077   3.718  0.9171 -0.0095 -0.2260
19241TIP3    H179138   0.480   3.143   3.785  1.1181 -0.1054 -0.1799
19241TIP3    H279139   0.370   3.059   3.724  0.6530  1.0500 -0.9655
19242TIP3   OH279140   5.310   3.350   4.043 -0.5854 -0.2558 -0.1584
19242TIP3    H179141   5.360   3.300   3.978 -0.4193 -2.2968  1.4420
19242TIP3    H279142   5.273   3.284   4.101 -0.0140  1.4859  2.3588
19243TIP3   OH279143   3.092   0.439   5.323  0.9836 -0.1576 -0.0765
19243TIP3    H179144   3.149   0.477   5.256  1.5840 -0.6842  0.1209
19243TIP3    H279145   3.117   0.346   5.325  1.4573 -0.0205  1.3509
19244TIP3   OH279146   1.294   4.523  10.673  0.0609 -0.0741  0.1137
19244TIP3    H179147   1.311   4.574  10.594  0.1259 -1.3398 -0.7126
19244TIP3    H279148   1.349   4.564  10.740  1.2110  0.0446 -0.8774
19245TIP3   OH279149   4.002   6.074  15.743  0.1996  0.5383  0.0131
19245TIP3    H179150   4.052   6.154  15.730  1.7758 -0.4795 -0.5292
19245TIP3    H279151   4.060   6.004  15.713 -1.6161 -0.7196 -0.7670
19246TIP3   OH279152   3.734   6.263   2.217  0.0481  0.0677  0.0580
19246TIP3    H179153   3.659   6.322   2.204  0.5577  0.7864  0.3340
19246TIP3    H279154   3.696   6.185   2.259 -0.2386  1.3265  2.2969
19247TIP3   OH279155   6.723   0.848   1.016 -0.1148 -0.0355  0.4360
19247TIP3    H179156   6.692   0.763   0.986  0.7226 -0.4315  0.6876
19247TIP3    H279157   6.811   0.832   1.050  0.0621  0.9302  0.4678
19248TIP3   OH279158   1.042   3.666   3.531  0.0900  0.4478 -0.2322
19248TIP3    H179159   1.107   3.609   3.490 -1.3599 -1.3671 -0.1349
19248TIP3    H279160   1.019   3.730   3.463  0.7484  0.0574 -0.8278
19249TIP3   OH279161   2.254   0.573  14.567  0.1553 -0.5900 -0.2891
19249TIP3    H179162   2.214   0.486  14.567 -1.5047  0.0410 -2.7566
19249TIP3    H279163   2.263   0.596  14.659 -3.9283 -1.4632  0.5172
19250TIP3   OH279164   1.559   4.020  15.250 -0.3874 -0.7528 -0.5197
19250TIP3    H179165   1.467   4.007  15.272 -0.4382  0.1786 -0.1312
19250TIP3    H279166   1.558   4.088  15.182  0.1710  2.4150  2.3865
19251TIP3   OH279167   3.145   6.083  17.184 -0.0486  0.2621 -0.4754
19251TIP3    H179168   3.131   6.019  17.254  2.3102 -1.3393 -1.3253
19251TIP3    H279169   3.198   6.152  17.225 -1.1949  0.8832  0.0170
19252TIP3   OH279170   4.117   5.259  16.970  0.4365 -0.0260  0.3211
19252TIP3    H179171   4.161   5.215  16.897 -0.3815  1.2940 -1.0168
19252TIP3    H279172   4.185   5.314  17.009  0.4543  0.6314 -0.6027
19253TIP3   OH279173   6.743   1.522  14.925  0.3315  0.4665 -0.2367
19253TIP3    H179174   6.748   1.577  15.003 -0.5739  0.4134 -0.1381
19253TIP3    H279175   6.744   1.432  14.958  0.4498  0.4360 -0.3202
19254TIP3   OH279176   1.632   0.812   4.677 -0.4725 -0.9487  0.2449
19254TIP3    H179177   1.629   0.855   4.763 -3.2507  1.2690 -0.7977
19254TIP3    H279178   1.568   0.741   4.684 -1.0553 -0.4710 -0.0627
19255TIP3   OH279179   2.422   4.420   1.109  0.1868  0.7871 -0.0656
19255TIP3    H179180   2.461   4.448   1.026  0.5775  0.2792 -0.0595
19255TIP3    H279181   2.401   4.502   1.154  0.9783  1.0695 -0.1956
19256TIP3   OH279182   0.971   4.486   1.252 -0.3523 -0.0360  0.1724
19256TIP3    H179183   1.043   4.438   1.210  0.9810  1.9280  0.0868
19256TIP3    H279184   0.907   4.497   1.182  0.2124  0.0089 -0.3519
19257TIP3   OH279185   2.578   6.413   4.336 -0.1979 -0.4434 -0.5583
19257TIP3    H179186   2.502   6.443   4.388 -0.7034 -0.6830 -1.1460
19257TIP3    H279187   2.647   6.476   4.356  0.0582 -1.2750  1.4620
19258TIP3   OH279188   0.098   4.597  16.597 -0.5466 -0.0675  0.3673
19258TIP3    H179189   0.176   4.643  16.566 -1.7253  1.4606 -0.3991
19258TIP3    H279190   0.031   4.664  16.605 -2.2905 -1.6118 -0.5901
19259TIP3   OH279191   5.210   4.079   3.736 -0.2656  0.3731  0.0099
19259TIP3    H179192   5.170   4.143   3.794 -0.8163  1.4341 -1.4725
19259TIP3    H279193   5.154   4.079   3.658  2.5698  1.9931 -2.2006
19260TIP3   OH279194   1.225   1.271  12.048  0.1376  0.3460  0.1435
19260TIP3    H179195   1.187   1.290  12.134 -0.2965 -0.8721  0.2415
19260TIP3    H279196   1.158   1.298  11.986  0.9011  2.3187  0.0866
19261TIP3   OH279197   6.727   2.848  12.805 -0.2415  0.0701 -0.3472
19261TIP3    H179198   6.745   2.922  12.749 -0.5390 -0.6979 -1.4907
19261TIP3    H279199   6.663   2.881  12.869  0.9083  1.2385  0.2366
19262TIP3   OH279200   0.943   4.270   3.533 -0.5434 -0.0973  0.1011
19262TIP3    H179201   0.865   4.229   3.571 -0.9426  0.4952 -0.0790
19262TIP3    H279202   1.016   4.226   3.577 -0.9910  0.0637  1.0181
19263TIP3   OH279203   5.893   6.131   4.043 -0.3202  0.2538  0.3047
19263TIP3    H179204   5.986   6.119   4.023 -0.5536  0.6952 -1.1289
19263TIP3    H279205   5.892   6.178   4.126  0.7445  0.5589  0.1541
19264TIP3   OH279206   4.545   1.261  16.331  0.1708 -0.0491 -0.1033
19264TIP3    H179207   4.611   1.193  16.322 -0.8743 -0.9651 -1.2192
19264TIP3    H279208   4.569   1.328  16.267  1.2869  0.7345  1.1014
19265TIP3   OH279209   2.612   2.779   5.199  0.1785 -0.2188  0.2886
19265TIP3    H179210   2.533   2.781   5.252  0.1649 -2.0637  0.3852
19265TIP3    H279211   2.679   2.743   5.256  0.8439  0.3607 -0.1092
19266TIP3   OH279212   3.539   3.454  17.289  0.0003  0.3747 -0.0769
19266TIP3    H179213   3.568   3.371  17.251  0.6944  0.3529  0.4874
19266TIP3    H279214   3.568   3.451  17.380 -1.0484  0.7214  0.2903
19267TIP3   OH279215   6.615   4.966  12.671  0.0155 -0.0198  0.1397
19267TIP3    H179216   6.581   4.927  12.591 -1.7599  0.8616  0.4029
19267TIP3    H279217   6.565   4.924  12.741  0.1590  0.5955  0.6269
19268TIP3   OH279218   0.813   1.520  11.161  0.0262  0.1912  0.1456
19268TIP3    H179219   0.770   1.435  11.164  0.6850 -0.1261  1.0458
19268TIP3    H279220   0.743   1.581  11.140 -0.3844 -0.6109 -0.8884
19269TIP3   OH279221   2.518   5.398  12.956 -0.6626 -0.3309  0.0216
19269TIP3    H179222   2.423   5.409  12.962 -0.5115  0.1687  3.6872
19269TIP3    H279223   2.552   5.487  12.947 -0.5015 -0.4623 -0.7104
19270TIP3   OH279224   2.314   0.340  13.815 -0.2649 -0.0974  0.0809
19270TIP3    H179225   2.364   0.418  13.791 -1.1078  0.6240  0.6005
19270TIP3    H279226   2.335   0.326  13.908 -1.8225  0.8506  0.6000
19271TIP3   OH279227   5.145   6.502  15.071 -0.2952  0.1690 -0.3809
19271TIP3    H179228   5.116   6.412  15.084  0.8288 -0.1634 -0.1275
19271TIP3    H279229   5.235   6.504  15.103 -0.3052  1.3891 -0.3696
19272TIP3   OH279230   4.335   6.491   0.243 -0.3482 -0.0539 -0.1456
19272TIP3    H179231   4.310   6.399   0.243  0.8813 -0.4035  0.5970
19272TIP3    H279232   4.261   6.536   0.283 -1.4314 -0.5589 -1.4962
19273TIP3   OH279233   1.513   6.544   3.178  0.4017  0.3165  0.4482
19273TIP3    H179234   1.436   6.591   3.144  0.1699 -0.5007 -0.1955
19273TIP3    H279235   1.566   6.526   3.100  1.5303  1.3364  0.9440
19274TIP3   OH279236   4.130   4.003   6.300  0.2833  0.2165  0.0649
19274TIP3    H179237   4.037   3.988   6.284  0.7074 -0.6494 -1.9687
19274TIP3    H279238   4.166   3.915   6.313  1.0180  0.4155 -0.5563
19275TIP3   OH279239   5.057   1.682   0.021  0.0482  0.0649 -0.3073
19275TIP3    H179240   5.073   1.766   0.063 -0.8128  0.4469 -0.6920
19275TIP3    H279241   5.099   1.690  -0.065 -0.0206  0.1100 -0.3379
19276TIP3   OH279242   2.782   4.475  15.284 -0.2100 -0.2704 -0.3640
19276TIP3    H179243   2.767   4.392  15.329  0.5731 -0.6150 -0.7157
19276TIP3    H279244   2.873   4.471  15.256 -0.0002  0.9380  0.0742
19277TIP3   OH279245   2.387   2.223  14.894  0.0340  0.2255 -0.2222
19277TIP3    H179246   2.395   2.186  14.806 -0.5988  1.1500 -0.6788
19277TIP3    H279247   2.292   2.226  14.911  0.1613 -0.4575  0.7204
19278TIP3   OH279248   3.755   4.857  15.788  0.3413  0.2920  0.5064
19278TIP3    H179249   3.778   4.870  15.696 -0.9861 -2.2593 -0.2875
19278TIP3    H279250   3.808   4.921  15.835 -0.8231  3.5210 -2.1843
19279TIP3   OH279251   2.568   2.421  11.866 -0.2893  0.3281 -0.1450
19279TIP3    H179252   2.524   2.362  11.805  1.3381 -1.2932  0.1501
19279TIP3    H279253   2.519   2.412  11.948  1.3739 -2.7664  0.6922
19280TIP3   OH279254   6.340   4.589  16.325  0.0935  0.2434  0.0090
19280TIP3    H179255   6.431   4.566  16.343 -0.3790 -1.3084  0.6162
19280TIP3    H279256   6.332   4.680  16.352  1.5033  0.4632 -0.2507
19281TIP3   OH279257   1.252   4.777  17.209 -0.0953 -0.0574  0.5108
19281TIP3    H179258   1.172   4.746  17.253 -0.6086  1.3085  0.5846
19281TIP3    H279259   1.229   4.864  17.177  0.4531 -0.7653 -1.9969
19282TIP3   OH279260   2.953   1.636   6.346 -0.2619  0.3199  0.1729
19282TIP3    H179261   2.927   1.554   6.389  0.3668  0.7402  1.4125
19282TIP3    H279262   2.971   1.696   6.419  1.0798  1.0018 -0.6837
19283TIP3   OH279263   2.515   2.276  11.641 -0.1606  0.2187  0.4064
19283TIP3    H179264   2.458   2.328  11.583 -0.3691 -0.1164  0.3106
19283TIP3    H279265   2.492   2.185  11.622  0.7570  0.0583  0.0140
19284TIP3   OH279266   0.213   5.697   1.673 -0.3053  0.1440  0.6889
19284TIP3    H179267   0.285   5.635   1.680  1.4501  2.1781  2.5573
19284TIP3    H279268   0.184   5.691   1.582  1.1952 -1.8537  0.2780
19285TIP3   OH279269   0.449   5.649   5.992 -0.3532  0.1727 -0.0736
19285TIP3    H179270   0.407   5.675   6.074  1.2718 -1.0860  1.2141
19285TIP3    H279271   0.526   5.599   6.019  0.8914  0.7229 -2.3705
19286TIP3   OH279272   5.766   6.187  16.045 -0.3993 -0.1777 -0.2009
19286TIP3    H179273   5.763   6.262  16.104 -0.0726 -0.6632  0.4540
19286TIP3    H279274   5.855   6.153  16.054  0.0091  0.3634 -1.7990
19287TIP3   OH279275   2.317   1.958  12.400  0.2495 -0.1942 -0.1122
19287TIP3    H179276   2.258   2.022  12.441  0.5061 -0.5158  0.7937
19287TIP3    H279277   2.268   1.876  12.402 -1.3143  0.4214 -3.9622
19288TIP3   OH279278   3.418   4.374   4.901 -0.1237 -0.0089 -0.2208
19288TIP3    H179279   3.444   4.364   4.992  1.4701 -0.5762 -0.7139
19288TIP3    H279280   3.380   4.290   4.877  1.3229 -0.5662 -0.6389
19289TIP3   OH279281   2.545   0.216   4.002 -0.0960  0.1764  0.7452
19289TIP3    H179282   2.526   0.310   4.006 -0.4795  0.1825 -0.7911
19289TIP3    H279283   2.639   0.211   3.987 -0.5502  0.4676 -2.9320
19290TIP3   OH279284   4.894   2.002   4.539  0.3223  0.5590 -0.4516
19290TIP3    H179285   4.868   1.922   4.584  2.0724  0.7665  1.0808
19290TIP3    H279286   4.897   2.068   4.608  0.5961  1.5158 -1.3590
19291TIP3   OH279287   2.957   3.355   2.382 -0.0895 -0.6259 -0.4807
19291TIP3    H179288   3.019   3.326   2.449  1.3441 -0.0337 -1.5191
19291TIP3    H279289   2.977   3.303   2.305 -0.7973 -0.3388 -0.8743
19292TIP3   OH279290   3.004   1.760   1.367 -0.7563  0.1171  0.0754
19292TIP3    H179291   3.025   1.698   1.436 -0.7041  0.5580  0.4639
19292TIP3    H279292   2.925   1.725   1.327 -0.1489 -0.7496 -0.4044
19293TIP3   OH279293   0.769   4.559  14.714  0.2752  0.4622 -0.3222
19293TIP3    H179294   0.769   4.556  14.618 -1.4135  2.4667 -0.4745
19293TIP3    H279295   0.859   4.582  14.737  0.9781 -1.1423 -1.3324
19294TIP3   OH279296   0.383   1.384   5.899 -0.6748  0.6178 -0.1854
19294TIP3    H179297   0.302   1.394   5.948  1.1080  0.6620  3.0101
19294TIP3    H279298   0.452   1.413   5.959  1.8955 -0.9661 -2.1139
19295TIP3   OH279299   1.253   0.277  15.170 -0.1975  0.2875  0.6416
19295TIP3    H179300   1.207   0.241  15.095 -0.0578  0.0529  0.6691
19295TIP3    H279301   1.263   0.204  15.231 -1.3075  0.7267  1.3836
19296TIP3   OH279302   2.313   6.630   4.490  0.1496  0.0590  0.1607
19296TIP3    H179303   2.269   6.643   4.406 -0.1912 -3.3104 -0.2863
19296TIP3    H279304   2.251   6.579   4.542  0.8330  1.0924  2.0770
19297TIP3   OH279305   3.441   1.807  12.326 -0.9014  0.4739 -0.2648
19297TIP3    H179306   3.464   1.894  12.358 -0.6570  0.0520  0.7433
19297TIP3    H279307   3.439   1.816  12.230 -1.8772  1.8260 -0.1449
19298TIP3   OH279308   1.694   3.274  16.638  0.3399 -0.0180  0.2547
19298TIP3    H179309   1.612   3.265  16.590  1.0388 -0.9470 -0.8258
19298TIP3    H279310   1.669   3.267  16.730 -0.6444 -1.6754 -0.1005
19299TIP3   OH279311   0.355   4.565   4.224  0.7665 -0.3448 -0.3582
19299TIP3    H179312   0.392   4.651   4.200 -0.4523  0.0328 -0.9552
19299TIP3    H279313   0.330   4.575   4.316  0.0223  0.1726 -0.6067
19300TIP3   OH279314   3.474   0.700  14.368  0.0074 -0.1704 -0.2907
19300TIP3    H179315   3.473   0.779  14.422 -0.7204 -0.7048  0.4982
19300TIP3    H279316   3.408   0.717  14.301  0.3283  0.1592 -0.5277
19301TIP3   OH279317   2.001   5.447  17.081  0.1692 -0.5841  0.3218
19301TIP3    H179318   1.988   5.352  17.089  0.0182 -0.5866  0.0722
19301TIP3    H279319   1.915   5.485  17.102  0.9636 -0.2986  3.6135
19302TIP3   OH279320   4.612   2.066   0.157  0.0035  0.1367  0.3963
19302TIP3    H179321   4.632   2.159   0.168 -0.3566  0.5978 -2.2861
19302TIP3    H279322   4.695   2.027   0.129 -0.1378 -0.1086  0.3172
19303TIP3   OH279323   3.406   3.359   2.227 -0.6342 -0.3627 -0.2818
19303TIP3    H179324   3.434   3.451   2.224 -0.5422 -0.4183 -1.3375
19303TIP3    H279325   3.485   3.309   2.209 -0.3014 -0.7481  1.9770
19304TIP3   OH279326   6.617   2.557   4.418 -0.2524 -0.4329 -0.2742
19304TIP3    H179327   6.615   2.485   4.355  1.1443  0.1007 -0.9873
19304TIP3    H279328   6.551   2.619   4.387 -0.9611 -1.0649 -0.0579
19305TIP3   OH279329   0.433   2.940   2.763  0.0973  0.5114 -0.1960
19305TIP3    H179330   0.524   2.966   2.746 -0.2825  1.1816 -1.3301
19305TIP3    H279331   0.438   2.888   2.843  1.3926  1.0601  0.1158
19306TIP3   OH279332   2.159   3.040   2.267 -0.2853 -0.4293 -0.6839
19306TIP3    H179333   2.083   3.061   2.213 -1.3847 -0.1756  0.9118
19306TIP3    H279334   2.123   3.008   2.349  1.2764  1.7923  0.9909
19307TIP3   OH279335   2.909   3.950   1.220  0.0561  0.9243  0.2076
19307TIP3    H179336   2.903   3.977   1.128  1.7726  1.8663  0.3159
19307TIP3    H279337   3.000   3.921   1.230 -0.8117 -1.8795  0.9553
19308TIP3   OH279338   4.465   0.606   5.000  0.1299  0.0616  0.2865
19308TIP3    H179339   4.551   0.577   5.030 -0.1476 -0.2027  0.8528
19308TIP3    H279340   4.453   0.563   4.915  0.5583  0.1131  0.1975
19309TIP3   OH279341   1.797   1.573  15.064 -0.5304  0.3534  0.1174
19309TIP3    H179342   1.867   1.589  15.127 -0.0137  0.8616 -0.5721
19309TIP3    H279343   1.771   1.482  15.080  0.4257  0.0909  0.2506
19310TIP3   OH279344   0.066   6.032   0.452  0.4338 -0.0041 -0.0254
19310TIP3    H179345   0.028   6.041   0.539 -1.8506  0.1631 -0.9868
19310TIP3    H279346   0.107   5.945   0.453  1.0583  0.2781  1.4112
19311TIP3   OH279347   4.739   3.199   2.011  0.2440 -0.0547 -0.4988
19311TIP3    H179348   4.723   3.105   2.016  0.2478 -0.1478 -1.9881
19311TIP3    H279349   4.654   3.238   2.035 -0.6260 -0.4949 -2.6558
19312TIP3   OH279350   3.872   1.094   2.963 -0.4170 -0.1014  0.1751
19312TIP3    H179351   3.795   1.055   2.921 -1.5233  0.7535  1.3393
19312TIP3    H279352   3.938   1.095   2.894 -1.0537 -1.9394 -0.5404
19313TIP3   OH279353   3.798   6.222  11.927 -0.0327 -0.2902 -0.0510
19313TIP3    H179354   3.743   6.144  11.931 -1.1882  0.4917 -0.3197
19313TIP3    H279355   3.762   6.280  11.994  1.6518 -0.4791  1.0831
19314TIP3   OH279356   4.518   3.383   4.245 -0.0117  0.0536  0.3701
19314TIP3    H179357   4.474   3.441   4.308 -0.9447 -0.3602  0.1231
19314TIP3    H279358   4.591   3.435   4.211 -0.9431  1.1714 -0.0012
19315TIP3   OH279359   3.164   1.721   0.281 -0.3063  0.0801 -0.4203
19315TIP3    H179360   3.252   1.716   0.319  0.1385 -0.3520 -1.4745
19315TIP3    H279361   3.116   1.651   0.325  0.6433 -1.4508 -1.7005
19316TIP3   OH279362   3.304   2.288   3.956  0.4799 -0.2847  0.0101
19316TIP3    H179363   3.291   2.204   4.000  2.4772 -0.9326 -0.5465
19316TIP3    H279364   3.348   2.343   4.021 -0.6991  0.3259  0.3269
19317TIP3   OH279365   5.616   2.602   5.067  0.2247 -0.2456 -0.1900
19317TIP3    H179366   5.558   2.666   5.109 -0.9903  0.2244 -2.4244
19317TIP3    H279367   5.703   2.641   5.073 -0.1295  0.4558  0.6366
19318TIP3   OH279368   4.405   2.754   2.065 -0.2295 -0.1313 -0.1581
19318TIP3    H179369   4.463   2.718   1.998 -0.9498 -0.6802 -0.5043
19318TIP3    H279370   4.320   2.761   2.021  0.2361  4.0012 -0.8000
19319TIP3   OH279371   6.398   2.713   4.651 -0.4024  0.5242 -0.2376
19319TIP3    H179372   6.383   2.644   4.715 -1.5540  0.5232 -0.4848
19319TIP3    H279373   6.423   2.789   4.704  0.2315  0.1056  0.0821
19320TIP3   OH279374   3.480   5.764   1.997 -0.4455  0.6198 -0.0360
19320TIP3    H179375   3.443   5.756   1.909 -1.1738  0.9527  0.2344
19320TIP3    H279376   3.425   5.829   2.041 -0.0416  0.5148  0.6421
19321TIP3   OH279377   0.629   0.153  12.656  0.5518 -0.5134 -0.0904
19321TIP3    H179378   0.710   0.106  12.678 -0.4415 -1.3568  2.1023
19321TIP3    H279379   0.647   0.193  12.571  3.3832 -0.3855  0.4600
19322TIP3   OH279380   2.830   2.427  13.965  0.1180  0.0805 -0.5456
19322TIP3    H179381   2.818   2.365  14.037 -0.0784  0.1483 -0.5185
19322TIP3    H279382   2.864   2.506  14.006  0.5028 -0.0556 -0.5985
19323TIP3   OH279383   5.384   5.810   4.744  0.5482  0.2486  0.2787
19323TIP3    H179384   5.332   5.811   4.664  0.4374 -1.5337  0.2917
19323TIP3    H279385   5.475   5.803   4.713  0.6030  0.7468  0.3092
19324TIP3   OH279386   1.070   2.685   4.934  0.2029 -0.2193 -0.1799
19324TIP3    H179387   0.993   2.640   4.900  0.9300 -1.0247 -0.8146
19324TIP3    H279388   1.112   2.620   4.990  0.3687  0.2483  0.2409
19325TIP3   OH279389   5.970   5.517  15.295 -0.0152 -0.5096  0.1245
19325TIP3    H179390   5.917   5.448  15.256  0.7359 -2.0017  1.6390
19325TIP3    H279391   6.060   5.485  15.290  0.5348  1.0275 -0.4434
19326TIP3   OH279392   4.374   2.274  12.218  0.3312  0.4192 -0.4078
19326TIP3    H179393   4.431   2.351  12.227  0.4373  0.1828  1.2133
19326TIP3    H279394   4.434   2.201  12.206  0.4227  0.1549  1.4073
19327TIP3   OH279395   2.016   4.124   3.984  0.3502 -0.4385 -0.0233
19327TIP3    H179396   2.099   4.109   3.941  0.3680  2.0825 -1.0544
19327TIP3    H279397   2.039   4.165   4.068  0.1740 -1.7287  0.6880
19328TIP3   OH279398   2.444   3.817   5.298  0.0587  0.1102 -0.2704
19328TIP3    H179399   2.514   3.753   5.281 -0.8251 -1.2146  0.9161
19328TIP3    H279400   2.399   3.826   5.214  1.0161  0.2256 -0.7918
19329TIP3   OH279401   1.839   2.504  12.192  0.2633 -0.5037 -0.5739
19329TIP3    H179402   1.800   2.465  12.270  1.1026  0.0651  0.1539
19329TIP3    H279403   1.792   2.464  12.119  0.5022 -2.2554  0.1551
19330TIP3   OH279404   2.738   6.054   6.375 -0.1187 -0.0895  0.0472
19330TIP3    H179405   2.658   6.006   6.398 -0.5084  0.1336 -0.7928
19330TIP3    H279406   2.708   6.127   6.322  0.7524 -0.8614 -1.5983
19331TIP3   OH279407   1.808   0.283  17.022  0.3727  0.1757  0.2401
19331TIP3    H179408   1.796   0.260  16.930  2.0167  0.2577 -0.0196
19331TIP3    H279409   1.862   0.362  17.021  1.7220 -0.6707  1.2589
19332TIP3   OH279410   4.223   2.922   0.606 -0.0986  0.2608 -0.2404
19332TIP3    H179411   4.144   2.869   0.612  0.4037 -0.5351 -0.4746
19332TIP3    H279412   4.216   2.967   0.522 -0.0712 -0.1890 -0.4832
19333TIP3   OH279413   0.065   4.246   0.631  0.3364  0.1546 -0.0703
19333TIP3    H179414   0.042   4.217   0.719  1.4197 -0.1237  0.1339
19333TIP3    H279415   0.130   4.315   0.644 -1.4355  2.0153 -0.5861
19334TIP3   OH279416   5.022   0.908  12.854  0.1967 -0.1303 -0.5371
19334TIP3    H179417   5.026   0.945  12.766 -1.8710 -1.2740 -1.1914
19334TIP3    H279418   4.929   0.890  12.868  0.2977  1.0666  2.3578
19335TIP3   OH279419   6.530   2.169   1.593 -0.3549 -0.6801  0.0707
19335TIP3    H179420   6.532   2.264   1.582  0.5384 -0.4741  1.6888
19335TIP3    H279421   6.607   2.137   1.546 -0.8774 -0.6687 -0.8165
19336TIP3   OH279422   1.441   2.390  13.135 -0.2745 -0.2811  0.0870
19336TIP3    H179423   1.426   2.377  13.229  1.4724  0.3850  0.5002
19336TIP3    H279424   1.447   2.301  13.100 -1.5876 -0.5430  0.4637
19337TIP3   OH279425   4.350   0.643  15.231  0.1795  0.3436 -0.3282
19337TIP3    H179426   4.280   0.682  15.284 -0.1955 -0.9588  0.1691
19337TIP3    H279427   4.429   0.689  15.259 -0.2628  0.8626  0.1053
19338TIP3   OH279428   2.021   3.842   0.073 -0.2353 -0.4703 -0.3177
19338TIP3    H179429   1.928   3.822   0.073 -0.1784 -0.7385  0.4475
19338TIP3    H279430   2.048   3.828  -0.018 -1.0312  0.0655 -0.6484
19339TIP3   OH279431   1.309   2.629  15.342 -0.3111  0.3913 -0.7313
19339TIP3    H179432   1.377   2.691  15.370  0.6052 -1.3612  1.2609
19339TIP3    H279433   1.227   2.677  15.353  0.4798  2.0299 -1.5979
19340TIP3   OH279434   6.457   1.594   4.580 -0.5899 -0.2110 -0.3897
19340TIP3    H179435   6.372   1.633   4.563 -1.2433  1.0012  4.3656
19340TIP3    H279436   6.438   1.506   4.613 -0.4399  0.9523  3.2135
19341TIP3   OH279437   6.477   3.068   1.536  0.0847 -0.2464 -0.0855
19341TIP3    H179438   6.477   2.975   1.557  1.8963 -0.0397  1.1316
19341TIP3    H279439   6.497   3.111   1.620 -1.6983  1.3235 -0.4071
19342TIP3   OH279440   2.378   6.081   3.047 -0.0436 -0.2051 -0.5586
19342TIP3    H179441   2.451   6.139   3.068  1.7805 -2.2382 -0.8792
19342TIP3    H279442   2.358   6.100   2.955  0.1039  0.3758 -0.4696
19343TIP3   OH279443   2.885   1.926  12.343  0.0645  0.0128 -0.1658
19343TIP3    H179444   2.838   1.967  12.415  0.9682  1.4499 -0.3425
19343TIP3    H279445   2.977   1.926  12.371  0.5056  1.0212 -1.4464
19344TIP3   OH279446   6.121   1.961   4.377  0.5318 -0.2386  0.1320
19344TIP3    H179447   6.187   1.893   4.387  0.5730 -0.1189  0.7011
19344TIP3    H279448   6.047   1.918   4.334  0.9835 -0.3680 -0.5285
19345TIP3   OH279449   3.124   1.427   0.644 -0.4139  0.2132  0.4019
19345TIP3    H179450   3.081   1.484   0.579  1.6373  3.0691  1.3224
19345TIP3    H279451   3.058   1.414   0.712 -0.7883  2.1881  0.4897
19346TIP3   OH279452   2.028   6.414   5.230  0.3107  0.5486 -0.3393
19346TIP3    H179453   1.989   6.478   5.290 -0.1223 -0.0501  0.0315
19346TIP3    H279454   2.121   6.413   5.253 -0.0078 -0.3881  1.0106
19347TIP3   OH279455   0.644   2.628   6.697  0.1815  0.0171 -0.2776
19347TIP3    H179456   0.643   2.539   6.733 -0.0136 -0.1465 -0.6674
19347TIP3    H279457   0.719   2.628   6.638  0.5037  0.2834  0.1327
19348TIP3   OH279458   4.162   5.657   4.841 -0.0054  0.5062  0.1764
19348TIP3    H179459   4.075   5.697   4.841 -1.3507 -2.1471 -0.8938
19348TIP3    H279460   4.187   5.654   4.934 -0.6021  2.1403  0.4160
19349TIP3   OH279461   5.821   4.226   5.352 -0.5331  0.8594  0.3037
19349TIP3    H179462   5.906   4.251   5.316 -0.3505  0.3698  0.3888
19349TIP3    H279463   5.842   4.161   5.420 -1.0851 -0.6383 -0.9031
19350TIP3   OH279464   3.375   0.847  13.591  0.0954  0.0544  0.6770
19350TIP3    H179465   3.431   0.809  13.522 -0.9164 -0.4469  0.1041
19350TIP3    H279466   3.376   0.941  13.573 -2.0741 -0.2476 -1.5814
19351TIP3   OH279467   6.330   2.188  10.908  0.1711  0.5399  0.4652
19351TIP3    H179468   6.372   2.160  10.827 -1.0106  0.8081 -0.2620
19351TIP3    H279469   6.379   2.265  10.935 -1.0680  2.1174 -1.4983
19352TIP3   OH279470   2.910   2.975   4.442 -0.1351  0.7168 -0.3997
19352TIP3    H179471   2.966   3.052   4.443  2.3734 -0.9883 -0.2519
19352TIP3    H279472   2.865   2.976   4.526  1.1151  1.1744  0.2831
19353TIP3   OH279473   0.086   0.386  11.199  0.0316 -0.3502 -0.4096
19353TIP3    H179474   0.101   0.426  11.113  1.8789  1.4208  0.6519
19353TIP3    H279475   0.137   0.439  11.259 -3.3704  0.2734  2.2758
19354TIP3   OH279476   5.152   5.440   4.375 -0.6680 -0.3411  0.0573
19354TIP3    H179477   5.168   5.363   4.321 -0.4107 -0.7544  0.7216
19354TIP3    H279478   5.132   5.509   4.312  1.3980 -0.3672 -0.6864
19355TIP3   OH279479   2.998   0.280  15.417  0.3823 -0.5421  0.2862
19355TIP3    H179480   2.925   0.246  15.468 -0.1591  0.6589  0.3333
19355TIP3    H279481   2.962   0.352  15.366  1.1823 -0.9484 -0.9228
19356TIP3   OH279482   3.375   6.012  13.025 -0.2829  0.3091 -1.1465
19356TIP3    H179483   3.462   6.052  13.028 -0.7328  1.2831 -0.1326
19356TIP3    H279484   3.391   5.920  13.006  0.8970  0.6683 -1.9968
19357TIP3   OH279485   3.230   2.845   4.295  0.2624  0.0868 -0.1818
19357TIP3    H179486   3.223   2.883   4.383 -0.0847 -0.7615  0.1785
19357TIP3    H279487   3.152   2.789   4.288  0.8023 -0.6192 -0.6384
19358TIP3   OH279488   5.637   0.034   0.434  0.2790 -0.6695 -1.0206
19358TIP3    H179489   5.644  -0.056   0.465 -0.7739 -0.7931 -1.1211
19358TIP3    H279490   5.667   0.087   0.509 -1.1142 -1.0168 -0.1746
19359TIP3   OH279491   3.443   4.934  14.900  0.0675  0.1113  0.0926
19359TIP3    H179492   3.363   4.978  14.928 -0.1499 -0.3649  0.2267
19359TIP3    H279493   3.425   4.908  14.810 -1.1116 -2.6370  1.0006
19360TIP3   OH279494   6.121   2.298   3.448 -0.6561  0.5410  0.1458
19360TIP3    H179495   6.080   2.243   3.515  0.6606  0.4082  0.8690
19360TIP3    H279496   6.148   2.377   3.495  0.6406  0.2733 -0.1294
19361TIP3   OH279497   2.917   3.315  13.247  0.2810  0.2282 -0.2690
19361TIP3    H179498   2.939   3.241  13.304 -1.4516 -0.6110 -0.6411
19361TIP3    H279499   2.904   3.276  13.161 -1.1651  0.8611 -0.3607
19362TIP3   OH279500   2.503   5.433  16.218 -0.3695  0.6024  0.7492
19362TIP3    H179501   2.411   5.409  16.214 -0.2235  0.1667 -1.5624
19362TIP3    H279502   2.508   5.498  16.288 -2.0922 -0.6556  2.1171
19363TIP3   OH279503   4.271   5.294   0.866  0.2254 -1.2675  0.6060
19363TIP3    H179504   4.242   5.272   0.955 -0.4259  1.5692  1.2045
19363TIP3    H279505   4.366   5.283   0.869  0.1815 -1.4837  1.5781
19364TIP3   OH279506   3.294   1.692   2.389  0.2879  0.0994  0.2492
19364TIP3    H179507   3.281   1.663   2.298  0.0257 -0.0688  0.3415
19364TIP3    H279508   3.362   1.759   2.382 -1.8722  2.3789 -0.4908
19365TIP3   OH279509   2.740   5.189  15.236 -0.3310 -0.6563 -0.4882
19365TIP3    H179510   2.732   5.284  15.228 -0.5073 -0.4752  1.4375
19365TIP3    H279511   2.794   5.176  15.314 -1.0840 -2.1404 -0.1778
19366TIP3   OH279512   0.686   3.838  14.655  0.1426  0.0320  0.1564
19366TIP3    H179513   0.706   3.757  14.609 -0.3176 -1.1920  2.0206
19366TIP3    H279514   0.671   3.812  14.746  0.4941  2.2815  0.9301
19367TIP3   OH279515   1.806   3.598   2.799 -0.3641  0.0401 -0.0838
19367TIP3    H179516   1.739   3.599   2.868  0.4567  0.7065  0.7275
19367TIP3    H279517   1.756   3.609   2.718 -1.2615  0.3172  0.4857
19368TIP3   OH279518   2.550   4.299   5.402  0.0344 -0.1354  0.4879
19368TIP3    H179519   2.504   4.225   5.363 -0.0727  0.2380 -0.0941
19368TIP3    H279520   2.556   4.365   5.333 -0.0871  0.5059  1.0685
19369TIP3   OH279521   1.027   5.773  13.565 -0.0577  0.0036 -0.0007
19369TIP3    H179522   1.114   5.737  13.549 -0.3651 -1.5545  1.5022
19369TIP3    H279523   0.967   5.700  13.547 -1.0631  1.0213 -0.9200
19370TIP3   OH279524   5.253   5.476   3.325  0.0514  0.1289  0.6010
19370TIP3    H179525   5.282   5.476   3.234 -0.6662  1.5407  0.3378
19370TIP3    H279526   5.188   5.407   3.330  0.2096 -0.0623  0.0827
19371TIP3   OH279527   5.781   1.185   2.887 -1.2029 -0.3280 -0.4231
19371TIP3    H179528   5.768   1.279   2.896 -1.2199 -0.3162 -0.5637
19371TIP3    H279529   5.785   1.170   2.792 -0.4041 -0.3609 -0.3917
19372TIP3   OH279530   5.772   0.211   5.359 -0.2622 -0.7091 -0.2404
19372TIP3    H179531   5.692   0.183   5.403 -0.5080  0.3801  0.0248
19372TIP3    H279532   5.757   0.303   5.339 -0.8198 -1.4622 -4.0092
19373TIP3   OH279533   4.199   2.816  15.577  0.1850 -0.6666  0.2390
19373TIP3    H179534   4.159   2.784  15.497  0.4959 -1.6167  0.4503
19373TIP3    H279535   4.262   2.883  15.548  0.5100 -1.2125 -0.3334
19374TIP3   OH279536   2.982   1.712   2.161  0.4799  0.1937 -0.3910
19374TIP3    H179537   2.905   1.732   2.109  0.3032  0.4067 -0.0543
19374TIP3    H279538   2.964   1.627   2.201  1.3049 -0.7728 -1.9612
19375TIP3   OH279539   3.846   5.721   3.959  0.4097  0.1395 -0.0719
19375TIP3    H179540   3.822   5.813   3.944 -3.3426 -0.4347  1.3325
19375TIP3    H279541   3.890   5.722   4.044 -0.4885  0.5911  0.4122
19376TIP3   OH279542   1.404   2.432  15.169 -0.1240 -0.4544  0.5486
19376TIP3    H179543   1.367   2.482  15.241 -0.1236 -2.2437  1.8403
19376TIP3    H279544   1.498   2.452  15.171 -0.1566 -0.3415  0.9036
19377TIP3   OH279545   3.854   2.195  16.528 -0.3092 -0.1762 -0.6251
19377TIP3    H179546   3.803   2.202  16.447  1.0308  0.2705 -1.4491
19377TIP3    H279547   3.863   2.101  16.542  0.3495 -0.2742 -1.5967
19378TIP3   OH279548   0.890   1.169  13.894  0.0739 -0.0587 -0.4366
19378TIP3    H179549   0.943   1.153  13.816  0.8238  1.4283 -0.2720
19378TIP3    H279550   0.928   1.113  13.962  1.9481  1.4636 -0.1369
19379TIP3   OH279551   4.257   4.783   5.794 -0.6018 -0.4642 -0.5001
19379TIP3    H179552   4.187   4.755   5.735 -1.8723  0.5816  0.4495
19379TIP3    H279553   4.267   4.876   5.777  0.4023 -0.5450 -0.4236
19380TIP3   OH279554   1.270   0.524   4.996 -0.3370  0.4322 -0.1217
19380TIP3    H179555   1.254   0.482   4.912  0.7849 -0.2115 -0.0302
19380TIP3    H279556   1.267   0.618   4.977 -2.5074  0.3503 -0.3940
19381TIP3   OH279557   2.531   4.455   0.854 -0.1054  0.1255  0.1930
19381TIP3    H179558   2.555   4.533   0.804  2.4243  0.3731  1.6315
19381TIP3    H279559   2.558   4.382   0.799  0.3541  0.3392  0.1313
19382TIP3   OH279560   3.114   5.360   4.070 -0.2361  0.6541 -0.0046
19382TIP3    H179561   3.083   5.446   4.040  0.1556  0.4453 -1.0623
19382TIP3    H279562   3.108   5.304   3.992  0.3646 -0.0440  0.4361
19383TIP3   OH279563   4.252   4.682  15.448 -0.9841 -0.1350 -0.2071
19383TIP3    H179564   4.285   4.734  15.375 -1.0009 -1.4622 -1.2045
19383TIP3    H279565   4.321   4.617  15.463  0.1090  1.5144  2.5557
19384TIP3   OH279566   2.775   0.152   5.855  0.0193  0.4965 -0.1215
19384TIP3    H179567   2.863   0.178   5.885 -0.0118  0.8546 -0.3422
19384TIP3    H279568   2.716   0.216   5.895 -0.1637  0.1500  0.1714
19385TIP3   OH279569   1.957   3.888   5.886  0.4303  0.1089 -0.0793
19385TIP3    H179570   2.050   3.896   5.907  0.4167 -1.0225  0.5074
19385TIP3    H279571   1.953   3.814   5.825  0.0809  1.1843 -1.4107
19386TIP3   OH279572   4.778   5.912   5.878 -0.2483 -0.1548  0.1119
19386TIP3    H179573   4.868   5.890   5.904 -0.1876 -2.1692 -1.5308
19386TIP3    H279574   4.779   6.007   5.867  1.6877 -0.1218  0.1727
19387TIP3   OH279575   5.129   6.533   0.055  0.5671  0.9185 -0.4747
19387TIP3    H179576   5.050   6.487   0.026 -0.1063  2.7415 -1.7977
19387TIP3    H279577   5.192   6.521  -0.016  1.4476 -0.3394  0.4760
19388TIP3   OH279578   1.498   3.897   6.499 -0.2522  0.1525  0.1041
19388TIP3    H179579   1.481   3.989   6.519 -1.3047  0.2960 -1.3117
19388TIP3    H279580   1.411   3.859   6.485  0.0849 -1.3049  1.5648
19389TIP3   OH279581   3.533   4.852   3.562 -0.5865  0.6124  0.0678
19389TIP3    H179582   3.554   4.775   3.509  1.9180  1.5887 -0.4840
19389TIP3    H279583   3.442   4.872   3.539 -0.0460  0.1840 -2.8497
19390TIP3   OH279584   1.042   4.597  16.688  0.4785  0.3771 -0.2272
19390TIP3    H179585   1.057   4.682  16.647 -3.0360  0.8002 -0.8979
19390TIP3    H279586   1.044   4.616  16.782 -2.6571  1.8509 -0.3400
19391TIP3   OH279587   2.909   5.731   1.667  0.1012 -0.2438  0.0255
19391TIP3    H179588   2.839   5.791   1.644  1.3188  0.6271 -1.6288
19391TIP3    H279589   2.928   5.751   1.759 -0.1116  1.3161 -0.2388
19392TIP3   OH279590   1.810   3.655   4.955  0.4475 -0.0926 -0.0819
19392TIP3    H179591   1.791   3.575   4.906 -0.7485 -0.6818  1.2710
19392TIP3    H279592   1.899   3.678   4.930  0.2375 -0.9294 -1.7282
19393TIP3   OH279593   1.135   3.320  11.654  0.3652 -0.1691  0.4383
19393TIP3    H179594   1.142   3.270  11.735 -0.4001  1.5719  1.6323
19393TIP3    H279595   1.046   3.355  11.654 -0.4784 -2.0204 -2.3570
19394TIP3   OH279596   4.851   5.701  13.458  0.0470 -0.2470  0.6343
19394TIP3    H179597   4.890   5.682  13.543 -0.4711 -0.8030  0.7531
19394TIP3    H279598   4.824   5.616  13.424  1.3361 -0.1850 -0.6415
19395TIP3   OH279599   0.215   2.930  10.874 -0.0148  0.1368  0.1762
19395TIP3    H179600   0.158   3.001  10.846 -0.3572  0.2144  1.0580
19395TIP3    H279601   0.171   2.851  10.842  1.4678  0.3799 -2.7595
19396TIP3   OH279602   6.522   4.245   4.947  0.4055 -0.4783  0.2426
19396TIP3    H179603   6.599   4.275   4.995 -0.7556 -1.0208  2.5972
19396TIP3    H279604   6.513   4.307   4.874  0.4643  2.4658  2.5333
19397TIP3   OH279605   1.209   1.266  14.547  0.6502 -0.0580  0.4919
19397TIP3    H179606   1.264   1.319  14.490 -3.0833  1.1185 -2.4824
19397TIP3    H279607   1.176   1.195  14.490 -2.6489  0.7052  1.2236
19398TIP3   OH279608   5.628   3.576   3.853  0.0697 -0.7813 -0.3185
19398TIP3    H179609   5.610   3.617   3.768  0.5854 -0.3026 -0.2017
19398TIP3    H279610   5.544   3.577   3.899  0.1003  0.2914 -0.2555
19399TIP3   OH279611   5.207   0.598   5.597 -0.5306 -0.5975 -0.5501
19399TIP3    H179612   5.219   0.508   5.626 -1.9581 -0.1804  1.4992
19399TIP3    H279613   5.134   0.632   5.649  0.4282  1.9822 -0.7119
19400TIP3   OH279614   4.177   3.654  11.245  0.1127 -0.3011 -0.8503
19400TIP3    H179615   4.270   3.674  11.257  0.5843 -2.7542  0.0716
19400TIP3    H279616   4.159   3.679  11.154  1.9713 -0.7448 -1.3849
19401TIP3   OH279617   5.281   5.176  14.998 -0.1320 -0.6947 -0.4436
19401TIP3    H179618   5.289   5.170  14.902 -1.5218 -0.2599 -0.6060
19401TIP3    H279619   5.216   5.245  15.012  0.7594 -0.0935  0.8513
19402TIP3   OH279620   3.913   2.789  16.220  0.1617  0.7613  0.5708
19402TIP3    H179621   3.979   2.858  16.208  1.1297 -0.2314 -0.0213
19402TIP3    H279622   3.890   2.762  16.131  1.9926 -1.6555  0.7298
19403TIP3   OH279623   0.343   3.130  16.844 -0.7559  0.1450 -0.6132
19403TIP3    H179624   0.373   3.200  16.786  0.3648  0.6417  0.5218
19403TIP3    H279625   0.402   3.057  16.826 -2.3257 -0.7862 -2.2622
19404TIP3   OH279626   3.001   6.572  16.588 -0.0011  0.4898  0.7213
19404TIP3    H179627   2.942   6.553  16.661 -1.1685  0.4253 -0.2179
19404TIP3    H279628   3.005   6.668  16.585 -0.7467  0.5126  0.2574
19405TIP3   OH279629   2.680   4.219  11.901  0.5023 -0.0588  0.5350
19405TIP3    H179630   2.715   4.148  11.954  0.3130  0.5594  1.5299
19405TIP3    H279631   2.625   4.268  11.962 -1.4858 -0.5610 -0.7915
19406TIP3   OH279632   5.929   6.449  16.026  0.3433  0.0792  0.1942
19406TIP3    H179633   5.891   6.535  16.042  0.8832  0.3465  0.0385
19406TIP3    H279634   6.001   6.443  16.088  1.2305  0.3372 -0.7796
19407TIP3   OH279635   2.205   4.309   2.635  0.9699 -0.2150 -0.2010
19407TIP3    H179636   2.158   4.228   2.657 -0.3955  0.6935  0.3616
19407TIP3    H279637   2.224   4.301   2.541  0.1843 -0.8657 -0.3151
19408TIP3   OH279638   6.376   4.219   3.018 -0.2101  0.1588 -0.1535
19408TIP3    H179639   6.439   4.229   2.947  0.5167  0.2035  0.4900
19408TIP3    H279640   6.372   4.306   3.059 -0.7970  0.1941 -0.2792
19409TIP3   OH279641   4.847   5.221   2.916  0.2492 -0.0476  0.2018
19409TIP3    H179642   4.774   5.279   2.938  0.9676  0.9821 -0.0413
19409TIP3    H279643   4.856   5.163   2.992 -0.0723  0.5848  0.7289
19410TIP3   OH279644   2.923   4.458   4.467  0.0090  0.4180  0.1429
19410TIP3    H179645   2.840   4.468   4.514  0.2129 -0.1857  0.6485
19410TIP3    H279646   2.897   4.442   4.376 -0.3699  2.3275 -0.1219
19411TIP3   OH279647   2.068   5.486  10.664  0.5353 -0.2661 -0.1532
19411TIP3    H179648   2.084   5.405  10.712  1.3911  0.2664  0.4754
19411TIP3    H279649   2.125   5.550  10.705  0.2309  0.5447 -0.9674
19412TIP3   OH279650   6.306   4.361  16.158 -0.4284  0.5212  0.1673
19412TIP3    H179651   6.262   4.433  16.204 -1.2357  0.9624 -1.2394
19412TIP3    H279652   6.335   4.302  16.228  0.0875  2.1026  1.3404
19413TIP3   OH279653   0.421   4.760  15.916  0.5977  0.0172  0.3224
19413TIP3    H179654   0.343   4.760  15.862  2.1789  1.7686 -2.1895
19413TIP3    H279655   0.405   4.829  15.981 -0.6764 -0.9813  1.0998
19414TIP3   OH279656   1.836   1.590   5.899  0.0124  0.0022  0.4425
19414TIP3    H179657   1.750   1.597   5.940  0.5140  1.3479  1.3568
19414TIP3    H279658   1.854   1.496   5.893 -1.2624 -0.2688  0.7633
19415TIP3   OH279659   1.059   2.171  15.503  0.2264  0.2542 -0.6943
19415TIP3    H179660   1.066   2.160  15.408  1.3170 -0.5031 -0.5403
19415TIP3    H279661   1.098   2.257  15.520 -1.3817  1.0974 -1.0750
19416TIP3   OH279662   0.863   5.098   4.458  0.3383  0.0403 -0.2451
19416TIP3    H179663   0.950   5.135   4.441  0.4786 -0.0162  0.3412
19416TIP3    H279664   0.831   5.146   4.534  0.3416 -0.7316  0.2549
19417TIP3   OH279665   0.166   1.811   4.401 -0.1495 -0.0725  0.1041
19417TIP3    H179666   0.094   1.872   4.416 -0.1567 -0.1531  0.4094
19417TIP3    H279667   0.241   1.866   4.382 -0.7492 -0.0093 -2.4250
19418TIP3   OH279668   1.628   2.199   6.489  0.2748 -0.3168  0.2755
19418TIP3    H179669   1.673   2.237   6.564  0.9012 -2.0495  0.8428
19418TIP3    H279670   1.552   2.255   6.475 -0.6269 -0.6658  3.1012
19419TIP3   OH279671   6.039   6.157  11.690  0.0782 -0.5255  0.0662
19419TIP3    H179672   6.102   6.166  11.619  0.6798 -0.7458  0.5646
19419TIP3    H279673   6.091   6.127  11.765 -0.8411 -2.1011  0.1217
19420TIP3   OH279674   3.878   1.740   3.649  0.2069 -0.0792  0.1460
19420TIP3    H179675   3.932   1.780   3.581  0.6692 -1.6841 -0.4858
19420TIP3    H279676   3.819   1.681   3.601 -1.8163  1.2637  0.8596
19421TIP3   OH279677   0.481   1.914  14.536  0.5741 -0.1835  0.4590
19421TIP3    H179678   0.534   1.838  14.559  0.2644 -1.7673 -3.3107
19421TIP3    H279679   0.391   1.888  14.556  0.7029  0.5645  2.2032
19422TIP3   OH279680   3.150   6.333   5.708  0.4930  0.0555 -0.4779
19422TIP3    H179681   3.169   6.335   5.801  0.5012 -1.4606 -0.4327
19422TIP3    H279682   3.066   6.379   5.700 -0.6445 -1.7469  0.5808
19423TIP3   OH279683   3.351   4.255  13.209 -0.2739 -0.0679 -0.0565
19423TIP3    H179684   3.391   4.229  13.126 -2.8337  1.7888 -2.0673
19423TIP3    H279685   3.309   4.176  13.242  0.3776 -0.7306 -0.7861
19424TIP3   OH279686   4.248   6.316   6.755 -0.5603 -0.3830 -0.3944
19424TIP3    H179687   4.333   6.335   6.794 -1.1467 -0.7467  1.1229
19424TIP3    H279688   4.224   6.231   6.791 -1.3057 -0.5610 -1.2786
19425TIP3   OH279689   4.281   1.804   3.910 -0.0800 -0.3408 -0.0648
19425TIP3    H179690   4.323   1.886   3.937 -0.6742 -0.0021 -0.1516
19425TIP3    H279691   4.226   1.828   3.835 -0.7756 -0.6722  0.3213
19426TIP3   OH279692   1.818   2.872   5.290 -0.1417  0.8241  0.4911
19426TIP3    H179693   1.859   2.815   5.355 -0.8631  0.2837  0.4793
19426TIP3    H279694   1.760   2.814   5.240 -1.0886  1.6124  0.6466
19427TIP3   OH279695   3.520   3.808   5.903 -0.4327  0.7085  0.0766
19427TIP3    H179696   3.432   3.780   5.927 -0.1668 -0.2242  0.0140
19427TIP3    H279697   3.517   3.904   5.905 -1.8333  0.7355 -1.3281
19428TIP3   OH279698   6.586   3.192  12.152 -0.0854  0.1382 -0.3958
19428TIP3    H179699   6.617   3.102  12.139  0.7959  0.3858 -0.0174
19428TIP3    H279700   6.578   3.227  12.063 -2.1694 -0.8636 -0.6705
19429TIP3   OH279701   0.163   0.336   4.694 -0.2391 -0.5249 -0.1317
19429TIP3    H179702   0.137   0.352   4.603 -2.7942 -1.2872  0.3635
19429TIP3    H279703   0.179   0.242   4.698  1.9347 -0.2103 -0.1872
19430TIP3   OH279704   1.620   0.490   3.293  0.0875  0.2857  0.0601
19430TIP3    H179705   1.590   0.467   3.205 -2.5651 -0.7721  1.1323
19430TIP3    H279706   1.647   0.407   3.332  1.8483  0.8364  0.0990
19431TIP3   OH279707   2.663   5.868  16.041  0.5178  0.3397  0.0216
19431TIP3    H179708   2.622   5.936  16.094  0.0273  0.1807 -0.1468
19431TIP3    H279709   2.745   5.907  16.011  0.7720  0.4554  0.8384
19432TIP3   OH279710   2.872   4.523  10.485 -0.4563  0.2316  0.0899
19432TIP3    H179711   2.966   4.515  10.466 -0.3736 -1.3645  1.0092
19432TIP3    H279712   2.851   4.445  10.537 -2.2422  0.7003  0.1378
19433TIP3   OH279713   5.998   4.237   4.001  0.1500  0.8047 -0.7185
19433TIP3    H179714   6.028   4.236   3.911  0.6110  2.9925 -0.6475
19433TIP3    H279715   6.010   4.147   4.032 -0.5073 -0.1120 -2.9463
19434TIP3   OH279716   4.590   2.503  12.230 -0.8773  0.3184  0.1273
19434TIP3    H179717   4.581   2.597  12.213 -0.6511  0.4701  0.8383
19434TIP3    H279718   4.671   2.496  12.280 -0.8246 -0.2745 -0.0418
19435TIP3   OH279719   4.668   2.886  13.013  0.0922  0.5642 -0.0232
19435TIP3    H179720   4.695   2.798  12.985  1.4647  1.3968 -1.4748
19435TIP3    H279721   4.576   2.875  13.039 -0.6848 -0.7665 -2.8982
19436TIP3   OH279722   6.364   4.559  15.835 -0.4234 -0.0872  0.1581
19436TIP3    H179723   6.284   4.566  15.887 -0.6375 -0.8538 -0.0571
19436TIP3    H279724   6.413   4.488  15.875 -0.6557 -0.7808 -0.7434
19437TIP3   OH279725   4.334   0.685   0.680 -0.0710 -0.0215 -0.2434
19437TIP3    H179726   4.266   0.744   0.649  1.7620  1.4099 -1.7987
19437TIP3    H279727   4.345   0.707   0.772 -0.5529  0.8949 -0.3958
19438TIP3   OH279728   0.329   6.099  15.751  0.0860  0.1879 -0.6862
19438TIP3    H179729   0.242   6.138  15.744 -0.4240 -0.9847 -1.1047
19438TIP3    H279730   0.386   6.159  15.703 -0.7371  0.2627 -1.6027
19439TIP3   OH279731   6.178   3.148   6.952  0.4755  0.5048  0.0714
19439TIP3    H179732   6.157   3.082   6.886 -2.2205  0.3815  0.9425
19439TIP3    H279733   6.268   3.128   6.978  0.5958 -1.2385 -1.4709
19440TIP3   OH279734   5.295   4.030  11.828 -0.2235  0.4095 -0.0504
19440TIP3    H179735   5.284   4.102  11.889 -0.0999  0.6832 -0.3450
19440TIP3    H279736   5.307   3.953  11.883 -0.5756  0.5791  0.2674
19441TIP3   OH279737   3.232   4.432  16.387 -0.1572  0.5407  1.0128
19441TIP3    H179738   3.175   4.390  16.322  0.8072  0.9294 -0.1209
19441TIP3    H279739   3.241   4.367  16.456  1.4651 -1.3157 -0.7916
19442TIP3   OH279740   3.704   4.334  11.104  0.0046 -0.3033 -0.0376
19442TIP3    H179741   3.737   4.288  11.181  1.4656 -1.2755 -1.1792
19442TIP3    H279742   3.750   4.417  11.104  1.1404 -0.9072 -0.6255
19443TIP3   OH279743   4.535   3.924  15.985 -0.0612 -0.5870 -0.0418
19443TIP3    H179744   4.468   3.890  16.044 -2.3874 -1.2441 -2.8605
19443TIP3    H279745   4.494   3.999  15.941  2.3338  1.2412  0.5625
19444TIP3   OH279746   0.551   1.736  13.364 -0.5279 -0.0382  0.3069
19444TIP3    H179747   0.519   1.784  13.441 -0.9789 -1.4504  1.0351
19444TIP3    H279748   0.481   1.674  13.343  0.8088 -1.7492  0.6370
19445TIP3   OH279749   1.336   1.160   1.507 -0.1853 -0.0032  0.2422
19445TIP3    H179750   1.421   1.139   1.469  0.1773  1.1577  0.3997
19445TIP3    H279751   1.273   1.117   1.449  0.4425  0.3231 -0.7051
19446TIP3   OH279752   0.297   3.105   1.595  0.0316  0.6778  0.5720
19446TIP3    H179753   0.203   3.087   1.596  0.1671 -0.1723 -0.2810
19446TIP3    H279754   0.314   3.139   1.507  0.7557 -0.6571  0.1627
19447TIP3   OH279755   6.571   3.664   1.956 -0.2047  0.2844 -0.2211
19447TIP3    H179756   6.517   3.694   2.029  0.1656 -0.5153  0.3991
19447TIP3    H279757   6.518   3.598   1.911  1.3527 -3.0997  2.3982
19448TIP3   OH279758   6.347   1.981   4.616  0.4305 -0.4940 -0.2130
19448TIP3    H179759   6.294   1.906   4.646  0.0799 -0.8631 -1.6757
19448TIP3    H279760   6.284   2.040   4.574  0.5557  1.0999  1.7176
19449TIP3   OH279761   5.247   4.550  17.280  0.0524 -0.3711  0.1519
19449TIP3    H179762   5.187   4.493  17.233  1.0879  0.2619 -2.0717
19449TIP3    H279763   5.236   4.636  17.239  1.6987 -0.0107  0.3896
19450TIP3   OH279764   6.046   6.106  16.080 -0.3277 -0.0394 -0.1848
19450TIP3    H179765   6.131   6.141  16.106 -1.5224  1.5041  2.0214
19450TIP3    H279766   6.067   6.030  16.026  2.4228  0.7255 -0.3571
19451TIP3   OH279767   1.139   3.864   2.133  0.4580  0.1605  0.3221
19451TIP3    H179768   1.102   3.832   2.051  1.0330  0.6684 -0.1471
19451TIP3    H279769   1.065   3.870   2.193  0.1779 -1.1283  0.1418
19452TIP3   OH279770   3.776   2.780  15.404 -0.2447  0.1705 -0.0392
19452TIP3    H179771   3.739   2.861  15.369  1.2765  1.2449  0.7501
19452TIP3    H279772   3.731   2.767  15.487 -0.2202  0.4046  0.0109
19453TIP3   OH279773   0.500   4.316   4.459  0.2529  0.2505 -0.4136
19453TIP3    H179774   0.575   4.257   4.463 -0.0559 -0.1605 -0.6933
19453TIP3    H279775   0.518   4.373   4.385 -0.3698 -0.7568 -1.3645
19454TIP3   OH279776   0.834   1.807   5.634  0.2405  0.5528  0.0699
19454TIP3    H179777   0.854   1.713   5.626 -2.5835 -0.1237 -0.3327
19454TIP3    H279778   0.813   1.819   5.726  1.2738  0.9603  0.2557
19455TIP3   OH279779   4.019   0.785  11.671  0.1078  0.4377 -0.6161
19455TIP3    H179780   3.942   0.829  11.636  0.2753  0.6482 -0.7273
19455TIP3    H279781   4.046   0.838  11.745 -1.3875 -1.0689  1.1014
19456TIP3   OH279782   1.098   4.644  16.984 -0.2077 -0.0455  0.3041
19456TIP3    H179783   1.163   4.669  16.918  0.6287 -0.0746  1.1034
19456TIP3    H279784   1.080   4.725  17.032 -1.4835  0.1747 -0.5157
19457TIP3   OH279785   1.205   6.541   4.779  0.1709 -0.7325 -0.2109
19457TIP3    H179786   1.195   6.572   4.689  0.8925 -1.7721 -0.6656
19457TIP3    H279787   1.236   6.451   4.771 -2.9217 -2.0579  1.0531
19458TIP3   OH279788   6.238   4.202  14.410 -0.1364  0.4299  0.6674
19458TIP3    H179789   6.313   4.158  14.369 -1.1357 -0.6947 -0.0100
19458TIP3    H279790   6.231   4.160  14.496 -1.4902 -1.2974 -0.2254
19459TIP3   OH279791   4.409   6.068  13.478  0.6237 -0.1351 -0.5043
19459TIP3    H179792   4.495   6.102  13.454  1.3375 -1.0003  0.7065
19459TIP3    H279793   4.424   6.017  13.558 -1.2279  0.8014  0.5321
19460TIP3   OH279794   3.514   3.659   2.191  0.1749 -0.2436  0.2589
19460TIP3    H179795   3.496   3.753   2.204 -0.6797 -0.5151  1.1873
19460TIP3    H279796   3.555   3.631   2.272 -0.4100 -0.8656  0.3448
19461TIP3   OH279797   1.199   6.284   3.436 -0.0728 -0.3070 -0.2366
19461TIP3    H179798   1.111   6.318   3.453  0.7683  0.6579  2.9477
19461TIP3    H279799   1.256   6.361   3.443  1.0876 -0.9720 -1.8508
19462TIP3   OH279800   5.944   5.378  15.985  0.4153  0.0810 -0.0139
19462TIP3    H179801   5.863   5.424  16.007 -0.8286 -1.2978 -1.5067
19462TIP3    H279802   6.014   5.439  16.009 -1.1209  2.1117 -0.5067
19463TIP3   OH279803   0.600   5.484  14.852 -0.1901  0.1844  0.1690
19463TIP3    H179804   0.559   5.570  14.853 -1.2623 -0.2484 -1.5604
19463TIP3    H279805   0.644   5.479  14.767  1.4275 -0.3004  0.9970
19464TIP3   OH279806   4.925   4.370   3.557  0.0006  0.0679  0.1108
19464TIP3    H179807   5.012   4.349   3.590 -0.4546 -2.5971 -0.1535
19464TIP3    H279808   4.940   4.406   3.470  0.8307 -0.2558  0.1182
19465TIP3   OH279809   2.097   4.530   5.853 -0.1621 -0.0326  0.8053
19465TIP3    H179810   2.132   4.560   5.770 -0.4951 -4.5559 -1.2558
19465TIP3    H279811   2.169   4.482   5.894 -0.5270  0.6594  2.3349
19466TIP3   OH279812   0.850   0.180   5.756 -0.5579  0.3942 -0.6613
19466TIP3    H179813   0.923   0.178   5.817 -0.7017  1.6624 -0.4290
19466TIP3    H279814   0.891   0.195   5.670 -0.5629  1.5012 -0.4784
19467TIP3   OH279815   1.731   6.344   1.949  0.0811 -0.1441  0.1041
19467TIP3    H179816   1.749   6.350   2.043  1.8592  1.2705 -0.2511
19467TIP3    H279817   1.694   6.429   1.927  1.0567  0.0951 -0.6921
19468TIP3   OH279818   4.988   4.297  11.818  0.2922  0.1206  0.2392
19468TIP3    H179819   5.014   4.368  11.760  0.7994  0.7807  1.2434
19468TIP3    H279820   4.929   4.244  11.766  3.0916 -1.1042 -1.9882
19469TIP3   OH279821   1.713   0.624   2.281  0.0529  0.0223  0.2127
19469TIP3    H179822   1.621   0.648   2.271  0.1363  0.0676 -0.4979
19469TIP3    H279823   1.750   0.693   2.337  0.0124  0.9040 -0.8110
19470TIP3   OH279824   1.735   0.797  14.474  0.6589  0.3216  0.0049
19470TIP3    H179825   1.703   0.884  14.450 -1.0917 -0.3643 -0.3520
19470TIP3    H279826   1.820   0.813  14.515  0.3924  2.1871 -0.0567
19471TIP3   OH279827   5.335   5.931   0.496  0.4770 -0.0631 -0.0201
19471TIP3    H179828   5.257   5.986   0.507  1.4835  1.3189  0.4467
19471TIP3    H279829   5.316   5.853   0.548 -0.4110  0.4608  0.4792
19472TIP3   OH279830   1.686   0.928  15.419  0.3697 -0.3662  0.0883
19472TIP3    H179831   1.606   0.957  15.376 -0.2469  0.9270  1.9901
19472TIP3    H279832   1.662   0.843  15.458  0.0848 -0.2364  0.1997
19473TIP3   OH279833   2.405   5.973  11.424 -0.4385  0.2803 -0.2379
19473TIP3    H179834   2.432   6.010  11.340  0.4589 -0.9035 -0.5016
19473TIP3    H279835   2.483   5.929  11.457 -1.5074 -1.5878 -0.0749
19474TIP3   OH279836   3.535   5.288   3.619 -0.0473  0.2789 -0.2509
19474TIP3    H179837   3.466   5.224   3.637 -1.4719  2.4001  2.7067
19474TIP3    H279838   3.616   5.237   3.623 -1.2248 -1.7199 -0.4090
19475TIP3   OH279839   2.859   5.116  14.056  0.1970 -0.2912  0.0559
19475TIP3    H179840   2.801   5.165  14.115 -1.5267 -1.0076 -0.9765
19475TIP3    H279841   2.867   5.171  13.978  1.3322  0.0152  0.3648
19476TIP3   OH279842   6.424   2.129  10.670 -0.2823  0.0060  0.2065
19476TIP3    H179843   6.495   2.105  10.611 -0.5947 -1.6118  0.4397
19476TIP3    H279844   6.349   2.146  10.613 -0.2189 -0.1889  0.0658
19477TIP3   OH279845   5.805   3.999  12.975  0.5314  0.2196 -0.4554
19477TIP3    H179846   5.765   4.065  12.918 -0.1311  0.4232  0.2252
19477TIP3    H279847   5.876   4.046  13.018 -0.2906  0.6758  0.4498
19478TIP3   OH279848   0.956   3.454   5.938  0.7070 -0.1837 -0.1416
19478TIP3    H179849   1.002   3.459   5.854  1.0533  1.3179  0.1115
19478TIP3    H279850   0.866   3.479   5.918  0.7793  0.1320 -0.0663
19479TIP3   OH279851   5.478   4.897   4.085 -0.4365  0.4144 -0.0067
19479TIP3    H179852   5.529   4.917   4.164  1.1397  1.4240 -1.2331
19479TIP3    H279853   5.538   4.847   4.030 -2.1528 -2.0190  0.1766
19480TIP3   OH279854   0.931   1.786  15.609 -0.1939  0.4166 -0.0167
19480TIP3    H179855   1.001   1.760  15.549  0.1534  3.1903 -0.9702
19480TIP3    H279856   0.976   1.836  15.677 -1.1173  1.5587 -0.2087
19481TIP3   OH279857   0.943   0.804  14.912  0.3803 -0.9671  0.2285
19481TIP3    H179858   0.966   0.712  14.900  0.9783 -0.7966  0.0520
19481TIP3    H279859   1.007   0.838  14.974 -0.5180 -0.9339  1.1714
19482TIP3   OH279860   6.421   0.917  12.191 -1.0581  0.3622  0.9806
19482TIP3    H179861   6.514   0.895  12.183 -0.9200  1.2657 -0.3790
19482TIP3    H279862   6.398   0.895  12.281  0.3710 -0.2558  1.2172
19483TIP3   OH279863   6.418   4.787  13.180  0.4348  0.2943 -0.3826
19483TIP3    H179864   6.355   4.850  13.214 -1.2908 -1.8274  0.5835
19483TIP3    H279865   6.499   4.805  13.229 -0.3933  0.9451  0.8000
19484TIP3   OH279866   0.689   2.741   1.573  0.9063  0.3203  0.3695
19484TIP3    H179867   0.643   2.809   1.525 -1.5196 -2.2689 -1.2890
19484TIP3    H279868   0.779   2.745   1.541  0.8695  2.7224  0.4004
19485TIP3   OH279869   5.943   1.330  15.652  0.0808 -0.3588  0.3464
19485TIP3    H179870   5.907   1.326  15.741  2.5671 -2.8802  1.3879
19485TIP3    H279871   5.893   1.400  15.610 -1.1760  1.0188  3.7073
19486TIP3   OH279872   3.265   6.533  17.292 -0.1324 -0.0883  0.2487
19486TIP3    H179873   3.199   6.526  17.223  0.7727 -1.7835 -0.4895
19486TIP3    H279874   3.320   6.607  17.265 -0.4517 -0.0372 -0.2645
19487TIP3   OH279875   6.617   3.970   3.494  0.2131  0.1826 -0.0089
19487TIP3    H179876   6.597   4.008   3.580  2.2553  1.4040 -0.0351
19487TIP3    H279877   6.555   3.896   3.487 -1.3266  1.2166  1.6364
19488TIP3   OH279878   0.068   0.279   2.070  0.2350  0.2969 -0.0123
19488TIP3    H179879   0.044   0.360   2.115 -1.4674  1.7561 -3.2126
19488TIP3    H279880  -0.015   0.239   2.046  1.0688 -1.2343 -0.4659
19489TIP3   OH279881   1.829   3.051   5.074  0.1554  0.0955 -0.3846
19489TIP3    H179882   1.741   3.077   5.101 -0.5454 -2.0207 -0.4038
19489TIP3    H279883   1.860   2.994   5.144  1.4396  0.6533 -0.4768
19490TIP3   OH279884   0.095   5.787   3.656  0.0787  0.1195  0.3219
19490TIP3    H179885   0.096   5.831   3.741  1.3646 -1.4061  1.1451
19490TIP3    H279886   0.113   5.857   3.593 -0.6816  1.2373  1.3032
19491TIP3   OH279887   0.703   3.853   3.566 -0.1708  0.0665  0.0307
19491TIP3    H179888   0.718   3.932   3.618 -1.8157 -0.2351  1.0341
19491TIP3    H279889   0.613   3.828   3.586 -0.1811 -1.2182 -1.4413
19492TIP3   OH279890   3.207   6.360   5.421  0.3296  0.2130  0.1396
19492TIP3    H179891   3.209   6.336   5.514 -2.6235  3.7008  1.3813
19492TIP3    H279892   3.259   6.440   5.416 -0.2413  0.5387 -0.9713
19493TIP3   OH279893   0.328   5.477  15.589  0.0694  0.0278 -0.3433
19493TIP3    H179894   0.346   5.402  15.645  0.7106 -0.1456 -0.7808
19493TIP3    H279895   0.377   5.461  15.509  1.1465  1.4422 -0.0156
19494TIP3   OH279896   5.762   1.455   2.797  0.8051  0.3121 -0.3065
19494TIP3    H179897   5.690   1.504   2.836 -0.3031 -1.1407 -0.4228
19494TIP3    H279898   5.756   1.474   2.703  0.9073  0.5972 -0.2562
19495TIP3   OH279899   1.976   2.489   4.912  0.4729 -0.5002  0.4498
19495TIP3    H179900   2.065   2.522   4.905  0.6290 -0.9881  0.0318
19495TIP3    H279901   1.978   2.431   4.988  0.7397 -1.1881 -0.0719
19496TIP3   OH279902   4.487   2.099   3.282  0.2034  0.5460  0.2602
19496TIP3    H179903   4.515   2.042   3.211  0.5610 -0.9462  1.5196
19496TIP3    H279904   4.454   2.178   3.239  0.6148 -0.2044 -1.5175
19497TIP3   OH279905   2.715   0.226  15.811  0.9716 -0.2024  0.3554
19497TIP3    H179906   2.704   0.320  15.819  0.9096 -0.3583  2.5419
19497TIP3    H279907   2.683   0.206  15.723 -0.0339  1.6473  0.2541
19498TIP3   OH279908   2.221   5.885   4.689 -0.1613  0.2307 -0.0657
19498TIP3    H179909   2.192   5.961   4.739 -0.0949 -0.5909  1.2695
19498TIP3    H279910   2.174   5.811   4.728  3.8977 -1.2724  2.5723
19499TIP3   OH279911   2.941   0.170   0.591  0.1143  0.2404 -0.5166
19499TIP3    H179912   2.975   0.082   0.575  0.1475  0.1976 -0.2154
19499TIP3    H279913   3.018   0.226   0.590  0.1571  0.1923 -0.1913
19500TIP3   OH279914   1.140   6.360  10.731 -0.2915  0.0282  0.1549
19500TIP3    H179915   1.049   6.337  10.714 -0.2163  0.6907 -1.3169
19500TIP3    H279916   1.137   6.413  10.811 -1.1410 -0.3217  0.3633
19501TIP3   OH279917   0.859   3.824  15.455  0.8011 -0.3058  0.4642
19501TIP3    H179918   0.864   3.851  15.364 -0.7665 -1.2004  0.0636
19501TIP3    H279919   0.788   3.877  15.492  0.9586 -0.4404  0.9738
19502TIP3   OH279920   4.232   2.060   4.028  0.6803  0.1744 -0.4608
19502TIP3    H179921   4.326   2.078   4.028  0.3337  2.3442  0.1330
19502TIP3    H279922   4.204   2.081   3.939  0.7833 -0.7303 -0.7135
19503TIP3   OH279923   2.899   2.325   5.990 -0.1497 -0.3948  0.1755
19503TIP3    H179924   2.940   2.338   5.905  0.2104 -1.9610  0.0843
19503TIP3    H279925   2.845   2.247   5.980 -1.2327  0.2125  0.9993
19504TIP3   OH279926   6.517   3.536   5.167  0.5073  0.4013  0.0810
19504TIP3    H179927   6.468   3.551   5.248 -1.1989 -0.4232 -0.7423
19504TIP3    H279928   6.500   3.612   5.113  0.3078  0.2160 -0.1204
19505TIP3   OH279929   1.263   3.888  12.095 -0.1733  0.4802 -0.3278
19505TIP3    H179930   1.277   3.939  12.015 -1.6438  1.2280 -0.1500
19505TIP3    H279931   1.234   3.802  12.064  2.2382 -0.3069 -0.6303
19506TIP3   OH279932   0.828   3.339  16.160 -0.3343 -0.0276  0.2700
19506TIP3    H179933   0.887   3.324  16.233 -2.3041 -0.4929  1.8612
19506TIP3    H279934   0.841   3.265  16.102 -0.0520 -0.6243  1.0864
19507TIP3   OH279935   2.673   3.607   0.439  0.1377 -0.1020  0.4066
19507TIP3    H179936   2.674   3.688   0.490 -0.2510 -0.5486  1.1463
19507TIP3    H279937   2.629   3.630   0.358  1.0961  0.7164  0.0979
19508TIP3   OH279938   3.563   5.206  15.065 -0.0121  0.8100 -0.5191
19508TIP3    H179939   3.550   5.276  15.001 -1.8386  0.5202 -0.5242
19508TIP3    H279940   3.483   5.208  15.119  2.3924  2.6604  3.4084
19509TIP3   OH279941   1.848   4.524   2.020  0.0770 -0.3781 -0.2104
19509TIP3    H179942   1.857   4.442   1.971  3.0890  0.6313 -1.6273
19509TIP3    H279943   1.860   4.500   2.111 -0.5934 -1.7020 -0.4606
19510TIP3   OH279944   0.457   6.549  15.334 -0.0365  0.0698  0.2113
19510TIP3    H179945   0.409   6.567  15.415 -0.4644  0.3800 -0.1077
19510TIP3    H279946   0.462   6.454  15.330  0.1291  0.0548  0.6859
19511TIP3   OH279947   4.366   1.371   3.965  0.7865  0.6533  0.3534
19511TIP3    H179948   4.307   1.399   4.035  2.4558  0.3909  1.9555
19511TIP3    H279949   4.361   1.275   3.966 -0.7625  0.6678 -1.3751
19512TIP3   OH279950   3.626   2.327  12.344 -0.4359 -0.0719 -0.5336
19512TIP3    H179951   3.641   2.233  12.359 -0.7935 -0.3055 -1.5131
19512TIP3    H279952   3.621   2.365  12.431 -1.4922 -1.1564 -0.0957
19513TIP3   OH279953   2.795   2.252   3.091  0.0272 -0.0177 -0.6175
19513TIP3    H179954   2.856   2.294   3.029 -0.8132  0.9272 -0.8197
19513TIP3    H279955   2.850   2.227   3.165  0.7592  0.3144 -1.0386
19514TIP3   OH279956   2.639   4.473  17.252  0.5234  0.9144 -0.1518
19514TIP3    H179957   2.610   4.441  17.337 -1.4243  1.2145 -0.6553
19514TIP3    H279958   2.735   4.468  17.256  0.5097  1.4299  2.2295
19515TIP3   OH279959   2.277   1.283  12.189  0.0238 -0.2688 -0.4404
19515TIP3    H179960   2.203   1.257  12.135 -0.1872 -2.0688  0.6429
19515TIP3    H279961   2.245   1.273  12.279  1.2148  0.0911  0.0393
19516TIP3   OH279962   5.878   2.620  14.405 -1.0032 -0.2468 -0.7499
19516TIP3    H179963   5.914   2.532  14.414  0.6507  0.5677  1.3632
19516TIP3    H279964   5.944   2.668  14.356 -1.1152  0.2371 -0.4318
19517TIP3   OH279965   6.301   0.579  15.903  0.4310 -0.2612 -0.1942
19517TIP3    H179966   6.393   0.594  15.881  1.2440 -2.4006  1.3582
19517TIP3    H279967   6.291   0.484  15.899 -1.4046 -0.1553  0.8348
19518TIP3   OH279968   2.081   2.839  11.082  0.1740 -0.6974 -0.4246
19518TIP3    H179969   2.131   2.786  11.020  0.8146 -0.2771 -0.2824
19518TIP3    H279970   2.120   2.926  11.075 -0.1589 -0.5005  0.1261
19519TIP3   OH279971   1.919   2.029   5.722  0.5833  0.4518 -0.4132
19519TIP3    H179972   1.896   1.937   5.716 -0.0055  0.6177 -0.7795
19519TIP3    H279973   1.973   2.045   5.644 -0.1860  0.6535 -0.9211
19520TIP3   OH279974   0.081   3.602   5.091 -0.6008 -0.3378 -0.4577
19520TIP3    H179975   0.002   3.612   5.039 -1.2263 -0.5371  0.4413
19520TIP3    H279976   0.144   3.663   5.052 -1.9844  1.7200  0.3601
19521TIP3   OH279977   4.472   2.504   3.385 -0.1086 -0.7918 -0.3038
19521TIP3    H179978   4.560   2.511   3.420  0.0640  0.8241 -0.9929
19521TIP3    H279979   4.473   2.558   3.306 -1.6105 -1.0432 -0.5244
19522TIP3   OH279980   3.753   3.190   0.748  0.0968 -0.3503  0.6698
19522TIP3    H179981   3.664   3.165   0.722  0.4946 -2.3190  1.0578
19522TIP3    H279982   3.759   3.284   0.727 -2.1148 -0.1353  0.8132
19523TIP3   OH279983   0.721   3.024  16.253 -0.0878  0.0618 -0.2464
19523TIP3    H179984   0.657   3.038  16.184 -0.4038 -1.3536 -0.2760
19523TIP3    H279985   0.681   3.062  16.332  0.1732  1.4616 -0.7565
19524TIP3   OH279986   3.945   3.530  14.032  0.4108 -0.3809  0.0635
19524TIP3    H179987   3.949   3.594  13.961 -0.6948  0.5644  0.8336
19524TIP3    H279988   3.951   3.445  13.988  0.0800  0.1967 -1.1231
19525TIP3   OH279989   3.773   4.671  12.355  0.5617  0.1993  0.1668
19525TIP3    H179990   3.859   4.710  12.340  0.5780 -0.3229 -1.2935
19525TIP3    H279991   3.769   4.598  12.293 -1.0165  0.3644  0.0219
19526TIP3   OH279992   5.283   3.395  16.491 -0.5966 -0.0944  0.2574
19526TIP3    H179993   5.356   3.392  16.429  0.0296  0.5987  0.9455
19526TIP3    H279994   5.318   3.357  16.571 -1.5995 -1.5996  0.0363
19527TIP3   OH279995   1.829   1.634  16.420 -0.1350  0.3129 -0.7844
19527TIP3    H179996   1.786   1.580  16.487 -0.4860  2.0573  0.4471
19527TIP3    H279997   1.920   1.606  16.422 -0.7194 -2.0042 -2.0039
19528TIP3   OH279998   0.710   3.813   5.680 -0.2164  0.0578  0.4718
19528TIP3    H179999   0.615   3.810   5.673 -0.0694 -1.6051 -2.4019
19528TIP3    H280000   0.735   3.893   5.634 -0.1945  0.1453  0.6356
19529TIP3   OH280001   4.298   5.581  10.991  0.1301  0.3919 -0.4186
19529TIP3    H180002   4.212   5.612  10.961 -0.3083 -0.2283  0.1591
19529TIP3    H280003   4.313   5.500  10.941  0.7464  0.9044 -1.0884
19530TIP3   OH280004   6.488   4.178   3.655  0.1056  0.3263 -0.3689
19530TIP3    H180005   6.429   4.246   3.623  0.6238  0.6614 -0.6166
19530TIP3    H280006   6.436   4.130   3.720 -0.5808  0.3403 -0.8995
19531TIP3   OH280007   0.332   3.016   0.725 -0.4113 -0.5310  0.3488
19531TIP3    H180008   0.417   2.976   0.708  0.0201  0.9351 -1.2609
19531TIP3    H280009   0.353   3.105   0.753 -1.3757 -0.9808  2.7351
19532TIP3   OH280010   3.751   0.631   1.865  0.0651 -0.1256  0.2606
19532TIP3    H180011   3.701   0.707   1.893  0.0772 -0.1469  0.3407
19532TIP3    H280012   3.841   0.664   1.855  0.0349 -0.0871  0.1155
19533TIP3   OH280013   5.012   4.003   5.838  0.2432 -0.5737  0.0990
19533TIP3    H180014   5.076   3.994   5.908  1.2467 -0.2953 -0.7508
19533TIP3    H280015   5.020   4.095   5.810 -0.5972 -0.5079  0.0469
19534TIP3   OH280016   1.447   2.244  14.135 -0.5708 -0.2121  0.2201
19534TIP3    H180017   1.429   2.310  14.068  0.1138  1.3643  1.5147
19534TIP3    H280018   1.387   2.267  14.207  1.0145  0.2657  1.4580
19535TIP3   OH280019   1.842   5.511  14.688  0.0610  0.1765  0.3350
19535TIP3    H180020   1.867   5.535  14.778  1.7749  0.9756 -0.3034
19535TIP3    H280021   1.889   5.574  14.633  0.2545 -1.2437 -1.1975
19536TIP3   OH280022   5.655   3.847   1.060 -0.5549 -0.4420  0.5238
19536TIP3    H180023   5.675   3.875   1.150  1.3084  1.4283 -0.3998
19536TIP3    H280024   5.736   3.809   1.028 -0.0319  2.0616 -1.4314
19537TIP3   OH280025   5.870   2.578  13.422  0.3153  0.4376 -0.0309
19537TIP3    H180026   5.941   2.514  13.413 -0.5536 -1.3604  3.7663
19537TIP3    H280027   5.914   2.662  13.433  2.1633 -0.7853  3.4431
19538TIP3   OH280028   2.642   4.183   1.598  0.4261  0.2607  0.5716
19538TIP3    H180029   2.643   4.225   1.684  1.5389 -1.1275  1.2823
19538TIP3    H280030   2.568   4.122   1.602 -1.0583  1.9257 -0.3824
19539TIP3   OH280031   6.413   0.436   6.300  0.5023 -0.5339  0.0799
19539TIP3    H180032   6.383   0.409   6.213  1.0724 -0.0757 -0.2700
19539TIP3    H280033   6.454   0.521   6.285  0.0393 -0.1576  0.9096
19540TIP3   OH280034   2.690   1.970  11.927  0.0686  0.1193  0.2368
19540TIP3    H180035   2.600   1.993  11.951 -0.2726 -0.5877 -0.3334
19540TIP3    H280036   2.718   2.043  11.871 -0.6600 -0.3151 -0.7442
19541TIP3   OH280037   3.566   0.482  13.887  0.8799 -0.4566 -0.3476
19541TIP3    H180038   3.486   0.499  13.936  1.4828 -0.9133  0.8165
19541TIP3    H280039   3.573   0.556  13.826 -1.1906 -1.1574 -1.5262
19542TIP3   OH280040   1.011   0.068   6.916 -0.1607  0.6713 -0.3616
19542TIP3    H180041   1.058  -0.015   6.925 -0.7364  0.4836  1.1395
19542TIP3    H280042   1.074   0.126   6.872  0.2577 -0.5271 -1.4099
19543TIP3   OH280043   2.826   0.299  11.624 -0.3344 -0.2963  0.1945
19543TIP3    H180044   2.810   0.245  11.546 -0.4623 -0.8032  0.5613
19543TIP3    H280045   2.867   0.238  11.686  0.5929  0.3288  0.2043
19544TIP3   OH280046   3.813   4.538   3.241 -0.0620  0.4356  0.0064
19544TIP3    H180047   3.875   4.595   3.197  0.9404 -0.7530 -0.1754
19544TIP3    H280048   3.753   4.509   3.172 -0.2578  0.8519 -0.0000
19545TIP3   OH280049   3.852   4.941  13.505 -0.2005  0.3085  0.2841
19545TIP3    H180050   3.801   4.863  13.485  2.3055 -1.2505 -0.4579
19545TIP3    H280051   3.886   4.926  13.593  0.8732  0.2140 -0.1376
19546TIP3   OH280052   2.302   5.547   2.935  0.6330  0.2296  0.0052
19546TIP3    H180053   2.341   5.567   2.850 -1.1971  1.5098 -0.6123
19546TIP3    H280054   2.376   5.540   2.995  1.9030  0.4388 -1.4818
19547TIP3   OH280055   4.304   6.503  13.343  0.5959 -0.1521  0.0313
19547TIP3    H180056   4.370   6.515  13.411  0.0880 -0.4085  0.5793
19547TIP3    H280057   4.274   6.412  13.354  0.1791 -0.0502 -0.2276
19548TIP3   OH280058   1.766   3.074  13.175 -0.3304  0.2825  0.1624
19548TIP3    H180059   1.804   3.161  13.188  1.9546 -0.7084  0.7152
19548TIP3    H280060   1.809   3.019  13.241 -2.5919 -1.0641  0.6313
19549TIP3   OH280061   0.542   2.143  16.919  0.2590  0.4782  0.1353
19549TIP3    H180062   0.480   2.073  16.897 -1.3839  1.8734  0.0416
19549TIP3    H280063   0.555   2.190  16.837  0.7074  0.7550  0.3615
19550TIP3   OH280064   5.581   4.987   2.721 -0.4175  0.1363 -0.3691
19550TIP3    H180065   5.624   5.040   2.653  1.0180 -1.4531 -0.7792
19550TIP3    H280066   5.599   4.896   2.696 -1.2052 -0.5268  1.2973
19551TIP3   OH280067   0.835   5.930   2.839  0.6719  0.8061 -0.3393
19551TIP3    H180068   0.803   5.926   2.748 -1.0280 -1.7130  0.2674
19551TIP3    H280069   0.822   5.842   2.873  1.9696  1.4880  2.1687
19552TIP3   OH280070   3.792   5.731  12.131  0.5888 -0.0592 -0.0057
19552TIP3    H180071   3.839   5.672  12.071  1.0230 -0.0630  0.3307
19552TIP3    H280072   3.703   5.733  12.098  0.3903 -1.4543  0.3804
19553TIP3   OH280073   2.367   2.175  17.370 -0.0236  0.3008 -0.0094
19553TIP3    H180074   2.461   2.179  17.350 -0.3445  0.9894 -1.5071
19553TIP3    H280075   2.357   2.226  17.450  1.1641 -1.6041  1.4548
19554TIP3   OH280076   0.384   0.409  16.864  0.2869  0.6693 -0.1454
19554TIP3    H180077   0.296   0.378  16.884  0.2429  0.2075 -0.9929
19554TIP3    H280078   0.373   0.457  16.782  1.0501 -0.6138 -1.0314
19555TIP3   OH280079   6.308   3.550  14.509  0.0654 -0.0394 -0.0054
19555TIP3    H180080   6.354   3.559  14.426 -1.4541  1.2621 -0.7572
19555TIP3    H280081   6.374   3.572  14.575  0.7887  0.8125 -0.9773
19556TIP3   OH280082   6.208   3.422   2.373  0.2349 -0.6705  0.0181
19556TIP3    H180083   6.228   3.515   2.385 -0.2177 -0.4653 -0.7651
19556TIP3    H280084   6.148   3.401   2.444  1.3049 -0.6904  0.9431
19557TIP3   OH280085   1.781   2.965   5.896 -0.0459  0.3371  0.0884
19557TIP3    H180086   1.833   2.912   5.836 -0.3736  1.5885 -1.3669
19557TIP3    H280087   1.697   2.977   5.851  0.1245  2.3071  0.2093
19558TIP3   OH280088   6.124   3.925   4.408  0.1030 -0.3739 -0.2670
19558TIP3    H180089   6.181   3.888   4.476 -0.9915 -0.1453  0.8261
19558TIP3    H280090   6.118   4.018   4.431  0.9002  0.0322 -1.5768
19559TIP3   OH280091   2.092   4.532  15.122 -0.1142  0.5138  0.4509
19559TIP3    H180092   2.136   4.519  15.038  1.8332  0.6222  1.3924
19559TIP3    H280093   2.082   4.627  15.129 -1.6684  0.4429 -0.2779
19560TIP3   OH280094   6.618   6.380  13.244  0.1966  0.6988 -0.4241
19560TIP3    H180095   6.573   6.457  13.210  1.2092  1.5112  0.0094
19560TIP3    H280096   6.576   6.362  13.328 -0.8608  0.0109 -1.0800
19561TIP3   OH280097   1.177   5.151  12.296  0.3058 -0.6164  0.0435
19561TIP3    H180098   1.184   5.111  12.209  0.5793  1.4587 -0.9440
19561TIP3    H280099   1.264   5.187  12.314 -0.3503  1.0377  0.0961
19562TIP3   OH280100   1.090   5.627  15.837 -0.1831  0.1750  0.0099
19562TIP3    H180101   1.056   5.613  15.748  1.7138  0.8618 -0.8720
19562TIP3    H280102   1.013   5.621  15.893 -1.8055  1.7524 -1.8792
19563TIP3   OH280103   6.498   1.919  11.927  0.0365 -0.2024  0.1106
19563TIP3    H180104   6.475   1.828  11.910 -0.7078  0.0573 -0.2972
19563TIP3    H280105   6.466   1.935  12.016  0.0089 -0.2828  0.1153
19564TIP3   OH280106   3.676   4.436  11.769  0.1275  0.2190 -0.1144
19564TIP3    H180107   3.586   4.468  11.766 -0.7389 -2.0704 -0.7073
19564TIP3    H280108   3.672   4.355  11.818  1.5504 -0.7945 -1.5387
19565TIP3   OH280109   5.428   2.892  12.516 -0.0909 -0.6156 -0.4083
19565TIP3    H180110   5.337   2.921  12.507 -0.8694 -2.6664  0.3032
19565TIP3    H280111   5.473   2.933  12.442 -0.6654  3.5036  1.1993
19566TIP3   OH280112   5.501   6.406   5.922  0.3163  0.3559 -0.6164
19566TIP3    H180113   5.468   6.317   5.909 -1.2973  0.9508 -0.7481
19566TIP3    H280114   5.442   6.445   5.985  1.7490  0.9668  0.3942
19567TIP3   OH280115   4.260   4.150   4.812 -0.0377 -0.0079 -0.4065
19567TIP3    H180116   4.221   4.140   4.725 -0.5488 -1.0312 -0.0784
19567TIP3    H280117   4.302   4.065   4.829  1.0611  0.5725 -0.1277
19568TIP3   OH280118   5.869   0.143   2.834 -0.3182  0.2543 -0.0597
19568TIP3    H180119   5.935   0.105   2.776  0.1607  0.5873  0.2516
19568TIP3    H280120   5.802   0.177   2.776 -1.2736 -1.9341 -0.3298
19569TIP3   OH280121   3.293   0.071  12.831 -0.0306 -0.0180 -0.7387
19569TIP3    H180122   3.279  -0.019  12.801  0.7729 -0.0638 -1.0011
19569TIP3    H280123   3.308   0.121  12.750 -2.1933  0.6986 -0.7422
19570TIP3   OH280124   5.517   2.554  12.525  0.5832  0.2095 -0.4133
19570TIP3    H180125   5.532   2.550  12.431 -0.7443  3.6315 -0.9352
19570TIP3    H280126   5.558   2.636  12.553 -0.0369 -0.1395  1.7588
19571TIP3   OH280127   0.164   4.792  16.312  0.1435 -0.0541  0.0315
19571TIP3    H180128   0.151   4.885  16.297 -1.7957 -0.2310  0.3395
19571TIP3    H280129   0.095   4.749  16.261  0.6281 -1.2857  0.3627
19572TIP3   OH280130   5.989   4.457   2.172 -0.3478  0.0303  0.1307
19572TIP3    H180131   5.972   4.519   2.243  0.5262 -2.7766  3.0336
19572TIP3    H280132   6.082   4.467   2.153 -0.6812  1.1232 -1.0706
19573TIP3   OH280133   2.527   0.083  16.895  0.0628 -0.5151  0.2488
19573TIP3    H180134   2.515  -0.011  16.905 -0.1609 -0.3723  1.4908
19573TIP3    H280135   2.612   0.101  16.936  0.6906 -0.3326 -1.0664
19574TIP3   OH280136   2.782   3.116   3.843 -0.0959  0.1209  0.9645
19574TIP3    H180137   2.799   3.093   3.752 -0.0581  0.6511  0.8337
19574TIP3    H280138   2.693   3.084   3.860 -0.9187  1.7824  0.1132
19575TIP3   OH280139   1.903   6.295   5.819 -0.2569  0.3870  0.6507
19575TIP3    H180140   1.905   6.246   5.902 -1.7327 -0.1848  0.3813
19575TIP3    H280141   1.955   6.373   5.836  2.6720 -1.4551  0.9481
19576TIP3   OH280142   0.177   5.828   2.322  0.0063  0.5088  0.3810
19576TIP3    H180143   0.249   5.891   2.321  1.3392 -0.8411 -2.8562
19576TIP3    H280144   0.102   5.876   2.287  0.1448  1.0966  0.8793
19577TIP3   OH280145   3.286   0.152   4.398 -0.9410 -0.5599  0.2268
19577TIP3    H180146   3.253   0.106   4.475 -0.3902 -0.2274  0.6667
19577TIP3    H280147   3.335   0.085   4.349 -0.9338 -0.6660  0.3804
19578TIP3   OH280148   1.098   0.814   0.793  0.0070  0.3045  0.1622
19578TIP3    H180149   1.066   0.761   0.720  0.7138 -1.1489  0.8679
19578TIP3    H280150   1.173   0.862   0.758  1.2111 -1.4437  0.2634
19579TIP3   OH280151   5.688   0.458   0.994 -0.6427 -0.0340 -0.0597
19579TIP3    H180152   5.759   0.424   0.940  0.4088  1.7714  0.1370
19579TIP3    H280153   5.701   0.416   1.080 -0.7992 -0.9387 -0.4654
19580TIP3   OH280154   0.870   4.178   1.217  0.1672 -0.2266 -0.1487
19580TIP3    H180155   0.775   4.186   1.226 -0.1496 -2.2746 -1.0402
19580TIP3    H280156   0.891   4.230   1.139 -0.2244  0.1784  0.0109
19581TIP3   OH280157   6.014   4.407   3.215 -0.1217 -0.9285 -0.7074
19581TIP3    H180158   5.945   4.405   3.281  0.3987 -2.0115 -0.1843
19581TIP3    H280159   5.977   4.361   3.140 -0.1571 -1.0334 -0.6250
19582TIP3   OH280160   0.812   5.603  13.573 -0.3282  0.2547  0.0930
19582TIP3    H180161   0.860   5.589  13.654  0.7747  0.8029 -0.4406
19582TIP3    H280162   0.722   5.617  13.600 -0.2794 -1.1628  1.1028
19583TIP3   OH280163   0.171   1.549  16.660 -0.6684 -0.3852 -0.0695
19583TIP3    H180164   0.138   1.482  16.600  0.4333  1.2578 -2.6825
19583TIP3    H280165   0.108   1.621  16.652  0.6469  0.7131 -1.0420
19584TIP3   OH280166   3.397   4.493  11.813  0.0070 -0.2670 -0.2790
19584TIP3    H180167   3.322   4.470  11.758  0.8348 -1.4573 -0.9572
19584TIP3    H280168   3.388   4.587  11.828 -0.7543 -0.0927 -1.6804
19585TIP3   OH280169   1.860   5.887   4.665 -0.1424  0.6742  0.1581
19585TIP3    H180170   1.928   5.838   4.710 -0.6197  0.1938  0.3549
19585TIP3    H280171   1.778   5.863   4.709 -0.6158  0.1915 -0.9619
19586TIP3   OH280172   1.416   2.364  12.331  0.1050  0.2298  0.2260
19586TIP3    H180173   1.462   2.306  12.270  1.7928  1.6643  0.0225
19586TIP3    H280174   1.326   2.366  12.299 -0.3079 -3.0083  0.8530
19587TIP3   OH280175   2.623   0.400  12.402 -0.2187 -0.1026 -0.3946
19587TIP3    H180176   2.606   0.480  12.353 -2.6134 -0.1472  0.2274
19587TIP3    H280177   2.718   0.396  12.409  0.0169  2.0675 -1.4289
19588TIP3   OH280178   1.339   3.970   4.226 -0.8572  0.8473 -0.3996
19588TIP3    H180179   1.366   3.886   4.262 -1.3260  1.2939  1.0348
19588TIP3    H280180   1.420   4.021   4.219 -0.7505  0.7173 -0.0881
19589TIP3   OH280181   1.092   0.453  16.395 -0.0064  0.1410  0.9544
19589TIP3    H180182   1.139   0.438  16.477  1.4142 -1.7952 -0.1335
19589TIP3    H280183   1.159   0.488  16.336 -0.7089  0.3533  0.2681
19590TIP3   OH280184   4.726   0.844   4.172  0.0422 -0.0915  0.2719
19590TIP3    H180185   4.810   0.808   4.143 -0.0120  0.3374 -0.4538
19590TIP3    H280186   4.668   0.768   4.177 -0.0743 -0.1413 -1.2430
19591TIP3   OH280187   2.705   1.758  12.522 -0.0329  0.0855 -1.3284
19591TIP3    H180188   2.720   1.720  12.609 -1.1618  2.8159  0.1968
19591TIP3    H280189   2.760   1.706  12.463 -0.2968 -2.7878  0.7403
19592TIP3   OH280190   1.836   5.281  15.133  0.6095  0.3767  0.2119
19592TIP3    H180191   1.773   5.311  15.199  0.0198 -0.2898 -0.0393
19592TIP3    H280192   1.921   5.312  15.165 -0.0824  3.6225 -0.7639
19593TIP3   OH280193   2.940   4.459  17.040  0.2298  0.9631  0.0602
19593TIP3    H180194   2.958   4.367  17.059 -1.6436  0.0942 -1.9469
19593TIP3    H280195   3.014   4.488  16.987 -0.9234 -0.5900 -2.5459
19594TIP3   OH280196   3.809   0.202  10.819  0.5290  0.1139  0.8491
19594TIP3    H180197   3.843   0.282  10.860 -0.7794  1.5368 -0.7055
19594TIP3    H280198   3.877   0.177  10.757  0.8252  0.1761  1.1415
19595TIP3   OH280199   4.943   0.663   5.375 -0.5843 -0.1879 -0.3673
19595TIP3    H180200   4.896   0.645   5.456  0.2960  3.3974  1.1318
19595TIP3    H280201   4.935   0.582   5.324 -2.1870 -2.1946  2.7485
19596TIP3   OH280202   6.315   0.077  14.708  0.1001 -0.0542 -0.3220
19596TIP3    H180203   6.279   0.063  14.795 -1.4948 -0.7612 -1.0405
19596TIP3    H280204   6.408   0.056  14.716  0.3054  1.3014  1.5044
19597TIP3   OH280205   0.821   3.982   4.586 -0.7842  0.1251 -0.3080
19597TIP3    H180206   0.752   3.941   4.535  2.3457 -3.4180 -2.1527
19597TIP3    H280207   0.848   3.916   4.649  1.8061  0.7747 -0.6056
19598TIP3   OH280208   2.197   0.640  16.042  0.4355  0.0365  0.1692
19598TIP3    H180209   2.229   0.643  15.952  1.3227  0.3417  0.4810
19598TIP3    H280210   2.195   0.731  16.070  0.1593 -0.0565  0.4547
19599TIP3   OH280211   6.093   4.844   4.223  0.2930  0.0370 -0.0224
19599TIP3    H180212   6.100   4.896   4.143  2.1508 -2.1526 -1.3981
19599TIP3    H280213   6.011   4.795   4.214  0.1214  0.3620 -0.2139
19600TIP3   OH280214   1.895   1.179   4.670 -0.2144  0.3009 -0.2070
19600TIP3    H180215   1.973   1.226   4.641 -0.3068  1.4345  1.2256
19600TIP3    H280216   1.823   1.221   4.624 -0.0082 -0.7479 -1.5325
19601TIP3   OH280217   6.138   3.502  12.723 -0.1439 -0.6103 -0.1675
19601TIP3    H180218   6.055   3.538  12.691  0.7175  0.2125 -1.6045
19601TIP3    H280219   6.162   3.435  12.659  1.0484  0.2492 -0.6664
19602TIP3   OH280220   5.042   0.315   1.587  0.3765 -0.7276  0.0719
19602TIP3    H180221   5.099   0.297   1.662 -0.5244 -0.8889  0.7442
19602TIP3    H280222   5.078   0.263   1.516  2.1890  0.6371 -0.0658
19603TIP3   OH280223   2.500   2.460   3.298  0.4058  0.1266 -0.0403
19603TIP3    H180224   2.481   2.503   3.381 -1.6315 -1.1447  0.2116
19603TIP3    H280225   2.419   2.469   3.247  1.4974  0.5714 -1.7650
19604TIP3   OH280226   0.644   1.430  16.257  0.3871  0.1269 -0.1176
19604TIP3    H180227   0.595   1.374  16.318  1.4000  0.0817  0.6913
19604TIP3    H280228   0.591   1.431  16.178 -0.0848 -1.2827  0.1461
19605TIP3   OH280229   0.642   2.275  15.417 -0.1526 -0.4553 -1.0907
19605TIP3    H180230   0.602   2.334  15.480  1.2047  0.3222 -0.9248
19605TIP3    H280231   0.710   2.229  15.467  2.6594  1.9332 -2.4280
19606TIP3   OH280232   2.015   3.748  10.699 -0.2108 -0.2228  0.1982
19606TIP3    H180233   2.057   3.781  10.779  1.5177  1.4033 -1.2724
19606TIP3    H280234   1.957   3.819  10.672 -0.0160 -0.3306 -0.5204
19607TIP3   OH280235   6.078   4.469  12.504  0.2558 -0.0051  0.6192
19607TIP3    H180236   6.041   4.381  12.498 -1.5537  0.5247  2.4577
19607TIP3    H280237   6.167   4.456  12.537  0.3899 -1.1760 -0.1678
19608TIP3   OH280238   0.793   1.167  11.736 -0.3772  0.4080  0.0697
19608TIP3    H180239   0.859   1.129  11.677 -1.7217 -0.3805 -0.9739
19608TIP3    H280240   0.809   1.261  11.731  1.0578  0.2155  0.3350
19609TIP3   OH280241   0.856   1.826  12.108 -0.9373  0.2142 -0.4706
19609TIP3    H180242   0.937   1.780  12.084 -0.8245  0.2286 -0.1191
19609TIP3    H280243   0.800   1.816  12.032 -0.7239 -0.0728 -0.5930
19610TIP3   OH280244   0.385   2.305  15.107 -0.3653  0.3660 -0.2934
19610TIP3    H180245   0.377   2.384  15.159 -3.0181  1.2201 -1.7738
19610TIP3    H280246   0.317   2.314  15.040  0.5386 -2.2773 -1.7127
19611TIP3   OH280247   4.071   0.035  11.882  0.1751 -0.0750 -0.3449
19611TIP3    H180248   4.073   0.108  11.820  0.1865 -0.9578 -1.4125
19611TIP3    H280249   4.026   0.070  11.959 -1.7212  0.4706 -1.6251
19612TIP3   OH280250   2.385   0.294   5.704 -0.2286  0.5865  0.2424
19612TIP3    H180251   2.346   0.358   5.762 -0.5960  0.5759  0.0115
19612TIP3    H280252   2.404   0.219   5.760 -3.5730 -0.7234 -0.1772
19613TIP3   OH280253   5.670   4.609  15.497 -0.0125  0.1469 -0.0479
19613TIP3    H180254   5.698   4.684  15.445 -1.2095  0.7253  0.1196
19613TIP3    H280255   5.624   4.552  15.435  0.4211 -0.1983 -0.0592
19614TIP3   OH280256   0.294   5.261   3.740  0.6297 -0.2614 -0.1172
19614TIP3    H180257   0.352   5.188   3.765  1.5706  0.7285  0.7333
19614TIP3    H280258   0.351   5.321   3.692 -0.3659 -0.5105 -1.6633
19615TIP3   OH280259   3.270   0.671  14.192 -0.0069  0.1209 -0.0670
19615TIP3    H180260   3.301   0.645  14.105  1.5241 -0.1233  0.5250
19615TIP3    H280261   3.190   0.619  14.205  0.5868 -0.9872 -0.6995
19616TIP3   OH280262   2.095   0.783   1.102  0.2604  0.0640 -0.5021
19616TIP3    H180263   2.024   0.843   1.125 -0.5537 -2.0356  3.5013
19616TIP3    H280264   2.161   0.797   1.170  1.7851 -0.9534 -1.7063
19617TIP3   OH280265   3.209   0.725   5.663  0.4757 -0.4252 -0.0316
19617TIP3    H180266   3.278   0.750   5.725  0.7062  2.8843 -1.3831
19617TIP3    H280267   3.141   0.791   5.676  0.3925  0.2155 -2.9543
19618TIP3   OH280268   3.028   2.479   3.514  0.1837  0.3969  0.2632
19618TIP3    H180269   2.934   2.494   3.503  0.2125 -0.3578 -1.3545
19618TIP3    H280270   3.037   2.437   3.599 -1.1803 -1.3077 -0.3976
19619TIP3   OH280271   1.478   1.025   2.965  0.4684 -0.5302 -0.0922
19619TIP3    H180272   1.520   1.045   3.049 -0.2629  2.6266 -0.3443
19619TIP3    H280273   1.385   1.041   2.981  0.4241  1.1148 -1.6558
19620TIP3   OH280274   5.086   5.709   0.303  0.2385 -0.0021 -0.4764
19620TIP3    H180275   5.038   5.691   0.222 -1.5192 -1.0400  0.7432
19620TIP3    H280276   5.068   5.801   0.322 -1.0184 -0.2972 -0.2038
19621TIP3   OH280277   0.415   4.883  14.279  0.0474  0.2809  0.0654
19621TIP3    H180278   0.497   4.849  14.242 -0.8720  0.1899 -2.0236
19621TIP3    H280279   0.348   4.822  14.249 -1.1426  1.8579 -0.6073
19622TIP3   OH280280   5.697   3.092   6.354  0.4274  0.2948 -0.2396
19622TIP3    H180281   5.671   3.184   6.349  1.0095  0.5696  1.1623
19622TIP3    H280282   5.652   3.059   6.432 -1.2855 -1.1524 -1.7576
19623TIP3   OH280283   4.509   1.580   5.248  0.0106  0.5373 -0.2071
19623TIP3    H180284   4.532   1.611   5.336 -0.1896  1.1167 -0.3535
19623TIP3    H280285   4.439   1.640   5.220 -0.4450 -0.1069 -0.4637
19624TIP3   OH280286   1.213   3.960  12.391 -0.1574 -0.0203  0.3271
19624TIP3    H180287   1.273   3.933  12.322 -2.3691 -1.2924 -1.2327
19624TIP3    H280288   1.172   4.040  12.358 -2.4205 -1.5201 -0.7058
19625TIP3   OH280289   5.898   5.288   0.600  0.3519 -0.3088  0.7934
19625TIP3    H180290   5.872   5.196   0.595 -1.1875  0.1744 -2.0101
19625TIP3    H280291   5.832   5.335   0.548  2.0666  2.1525  0.6624
19626TIP3   OH280292   6.368   2.875  11.195  0.5639 -0.1897 -0.0227
19626TIP3    H180293   6.421   2.834  11.126  0.5169  0.6152 -0.5499
19626TIP3    H280294   6.430   2.928  11.244  0.6797 -1.0912  0.8406
19627TIP3   OH280295   3.969   1.678   6.181  0.3281 -0.3710  0.2212
19627TIP3    H180296   4.021   1.756   6.197  1.9948 -1.4243  0.2357
19627TIP3    H280297   3.925   1.660   6.264 -0.6373  0.9099  0.0162
19628TIP3   OH280298   5.294   1.394  14.490  1.0656 -0.3770  0.0574
19628TIP3    H180299   5.242   1.461  14.534  1.8841  0.8902 -0.8184
19628TIP3    H280300   5.349   1.443  14.429 -1.7694 -2.0693 -4.3924
19629TIP3   OH280301   1.913   5.119  10.660  0.4304 -0.4817 -0.3678
19629TIP3    H180302   1.993   5.151  10.702  0.0238 -1.9256  1.6699
19629TIP3    H280303   1.935   5.032  10.627  0.7212  0.5907 -3.2991
19630TIP3   OH280304   3.035   0.074  16.526 -0.0549  0.6574 -0.0701
19630TIP3    H180305   2.979   0.140  16.566 -0.7756  0.1018 -0.1514
19630TIP3    H280306   3.094   0.123  16.470 -0.5114  1.2386 -0.0436
19631TIP3   OH280307   4.728   3.898   1.815  0.1993  0.0384  0.3270
19631TIP3    H180308   4.711   3.820   1.763 -1.6750  0.7216 -0.1443
19631TIP3    H280309   4.820   3.919   1.797  1.5260 -3.3263  2.2814
19632TIP3   OH280310   0.443   2.420  13.628 -0.4027 -0.6951 -0.3504
19632TIP3    H180311   0.438   2.328  13.604 -3.0629 -1.3887  2.2052
19632TIP3    H280312   0.483   2.419  13.716  0.0451  0.6752 -0.5167
19633TIP3   OH280313   3.365   5.699   3.043  0.3988  0.2322 -0.2709
19633TIP3    H180314   3.281   5.745   3.047 -0.3752 -1.1602  3.1477
19633TIP3    H280315   3.414   5.731   3.118  1.9376 -0.7571 -0.7977
19634TIP3   OH280316   2.768   4.863  10.984  0.2616  0.0064 -0.1050
19634TIP3    H180317   2.843   4.813  10.952  0.2098 -1.4654  1.8622
19634TIP3    H280318   2.694   4.802  10.979 -0.6539  1.1384 -1.1628
19635TIP3   OH280319   5.776   0.782   3.974  0.1054  0.2714 -0.0912
19635TIP3    H180320   5.828   0.702   3.974  1.1750  0.9263 -1.3429
19635TIP3    H280321   5.824   0.842   4.030  1.0228  1.0295 -1.6056
19636TIP3   OH280322   0.143   1.056  13.790  0.4319  0.6219 -0.3733
19636TIP3    H180323   0.143   1.008  13.707 -0.8204  0.9138 -0.5561
19636TIP3    H280324   0.080   1.126  13.778 -1.9358 -0.9636  1.7368
19637TIP3   OH280325   5.337   1.178  15.518 -0.5280 -0.0417 -0.1195
19637TIP3    H180326   5.273   1.106  15.526  0.1652 -0.7070 -0.4190
19637TIP3    H280327   5.353   1.185  15.424  0.1542 -0.1660 -0.0137
19638TIP3   OH280328   3.199   5.546  14.698  0.4757 -0.1677  0.1989
19638TIP3    H180329   3.156   5.464  14.723  0.5564 -0.6544 -1.1653
19638TIP3    H280330   3.132   5.613  14.712  0.4525 -0.4279  1.4596
19639TIP3   OH280331   4.419   0.113   2.746 -0.4585  0.3370  0.1501
19639TIP3    H180332   4.448   0.047   2.809  0.5354  1.5085  0.9690
19639TIP3    H280333   4.490   0.119   2.683 -0.1422  1.2529  0.5871
19640TIP3   OH280334   0.307   6.561  14.613 -0.0983 -0.4844 -0.2765
19640TIP3    H180335   0.326   6.639  14.664 -2.0317  0.5108 -0.9648
19640TIP3    H280336   0.388   6.510  14.615  1.2312  1.5415  0.1349
19641TIP3   OH280337   2.040   5.007  14.345  0.1431 -0.3648 -0.4222
19641TIP3    H180338   1.980   4.950  14.392 -0.7688 -0.1821 -1.3315
19641TIP3    H280339   2.076   5.065  14.412 -0.1197 -0.9619  0.2521
19642TIP3   OH280340   0.387   3.775  11.892 -0.3411  0.0531  0.1149
19642TIP3    H180341   0.333   3.804  11.818 -0.3532  1.2401  0.5595
19642TIP3    H280342   0.455   3.721  11.852  0.8923  2.3100 -1.1015
19643TIP3   OH280343   6.451   2.246  12.539  0.1853 -0.1334 -0.2527
19643TIP3    H180344   6.545   2.227  12.550  0.0009 -1.5522 -0.8994
19643TIP3    H280345   6.411   2.213  12.620  0.2194  0.3179 -0.0499
19644TIP3   OH280346   6.388   6.712   5.843 -0.6275 -0.2010  0.3219
19644TIP3    H180347   6.299   6.736   5.815 -0.5177  1.1337  1.0085
19644TIP3    H280348   6.381   6.621   5.871 -1.2720 -0.8326 -1.6975
19645TIP3   OH280349   0.636   2.376   5.372  0.8630  0.0571  0.6147
19645TIP3    H180350   0.724   2.347   5.346  0.1204  0.1610 -2.4490
19645TIP3    H280351   0.583   2.296   5.369  0.6395  0.1645  1.4813
19646TIP3   OH280352   3.776   6.631   4.630 -0.2306  0.7451  0.5892
19646TIP3    H180353   3.685   6.629   4.601 -0.2954  1.4374  0.7306
19646TIP3    H280354   3.809   6.715   4.599  0.3221  0.5591  0.6605
19647TIP3   OH280355   6.525   1.949   0.107 -0.5296  0.2441  0.3785
19647TIP3    H180356   6.590   1.885   0.078 -0.2993  0.9096 -0.6078
19647TIP3    H280357   6.442   1.917   0.070 -0.4158  0.5118 -0.1073
19648TIP3   OH280358   4.426   4.767  11.302  0.1712  0.1031 -0.5390
19648TIP3    H180359   4.502   4.721  11.338 -0.9685 -0.4589  1.2823
19648TIP3    H280360   4.375   4.698  11.259 -0.4231  0.0334  0.2483
19649TIP3   OH280361   5.441   2.547   3.182  0.1511 -0.0447  0.0404
19649TIP3    H180362   5.382   2.516   3.251  0.2801  2.3050  1.3312
19649TIP3    H280363   5.529   2.531   3.216  0.2531  2.7451  1.4050
19650TIP3   OH280364   5.060   2.376   5.142 -0.3003  0.0245 -0.1411
19650TIP3    H180365   5.017   2.297   5.174  0.9149 -0.8881 -0.6405
19650TIP3    H280366   5.154   2.355   5.147  0.0150  1.1022 -1.1081
19651TIP3   OH280367   4.636   4.185  10.770  0.3674 -0.5631 -0.3196
19651TIP3    H180368   4.558   4.240  10.766  0.7881  0.0889  0.1512
19651TIP3    H280369   4.630   4.142  10.855  0.6441 -0.3212 -0.1776
19652TIP3   OH280370   4.217   0.853   2.681 -0.1118 -0.2060 -0.3235
19652TIP3    H180371   4.149   0.795   2.647 -0.4259 -0.0046 -0.0520
19652TIP3    H280372   4.296   0.799   2.685 -0.5449 -0.8009  0.5215
19653TIP3   OH280373   0.275   6.258   1.110 -0.1314  0.1082 -0.1338
19653TIP3    H180374   0.341   6.189   1.114 -0.7397 -0.4390  0.7990
19653TIP3    H280375   0.293   6.312   1.188  1.3602  1.9974 -1.6624
19654TIP3   OH280376   3.460   2.475  16.289  0.1046  0.0341 -0.3647
19654TIP3    H180377   3.538   2.526  16.272 -0.5635  0.5052 -2.2395
19654TIP3    H280378   3.404   2.488  16.212 -1.0347 -1.7470  0.0695
19655TIP3   OH280379   4.066   6.753   5.809  0.6895  0.1936 -0.0376
19655TIP3    H180380   4.141   6.806   5.782  0.2812  0.9644  0.3134
19655TIP3    H280381   4.030   6.719   5.727  0.9456  0.4732 -0.2692
19656TIP3   OH280382   3.059   5.385  16.989  0.0709 -0.1068 -0.2763
19656TIP3    H180383   3.108   5.462  16.959 -0.0068  0.0442 -0.0201
19656TIP3    H280384   3.124   5.330  17.032  0.2184 -0.4099 -0.8721
19657TIP3   OH280385   5.993   0.109  14.536  0.7164 -0.1471  0.2551
19657TIP3    H180386   6.029   0.170  14.599 -0.1862  2.0942 -1.2582
19657TIP3    H280387   6.010   0.149  14.450  0.7505 -2.4068 -0.8833
19658TIP3   OH280388   2.761   2.400   1.254  0.6782  0.1707 -0.1040
19658TIP3    H180389   2.672   2.396   1.222  1.3622  0.9637 -2.2691
19658TIP3    H280390   2.775   2.316   1.296 -1.6982  0.7855  2.1973
19659TIP3   OH280391   0.219   0.745   5.334  0.1581  0.7914 -0.3447
19659TIP3    H180392   0.157   0.708   5.271 -2.6763  0.6669  2.2472
19659TIP3    H280393   0.300   0.698   5.319 -1.0553 -0.8408 -2.3404
19660TIP3   OH280394   4.120   4.080  12.212  0.0898  0.2318  0.1258
19660TIP3    H180395   4.065   4.131  12.153 -1.4413 -0.4342  0.9110
19660TIP3    H280396   4.086   3.991  12.205  0.9233 -0.1570  0.8243
19661TIP3   OH280397   2.771   2.772   1.530  0.1106 -0.3736  0.2879
19661TIP3    H180398   2.742   2.687   1.564  0.0725  0.2274  1.8168
19661TIP3    H280399   2.692   2.825   1.525  0.4526  0.2689  1.4687
19662TIP3   OH280400   1.777   4.818  13.568 -0.2020 -0.0391 -0.1379
19662TIP3    H180401   1.733   4.812  13.653 -0.4036 -0.2771 -0.2576
19662TIP3    H280402   1.719   4.874  13.515  0.3065  0.7432  0.1196
19663TIP3   OH280403   5.352   6.063   0.899 -0.6362 -0.1517  1.0892
19663TIP3    H180404   5.273   6.095   0.942 -0.9503  0.8712 -0.1568
19663TIP3    H280405   5.356   6.114   0.817  1.4090 -0.0343  1.2169
19664TIP3   OH280406   0.243   5.375  16.952  0.0225 -0.0793  0.1125
19664TIP3    H180407   0.279   5.395  16.866 -1.9946 -1.0580 -1.0469
19664TIP3    H280408   0.256   5.454  17.004  1.7129  0.3559 -0.9165
19665TIP3   OH280409   3.172   0.596   0.792  0.1708 -0.0220 -0.3469
19665TIP3    H180410   3.114   0.628   0.861  0.2785  1.1137 -0.7514
19665TIP3    H280411   3.159   0.502   0.790  0.2404 -0.0897  1.2923
19666TIP3   OH280412   0.442   3.162  12.914  0.3880 -0.0687  0.6233
19666TIP3    H180413   0.466   3.073  12.889 -1.7848 -1.0446  1.7177
19666TIP3    H280414   0.385   3.192  12.843  1.8904  0.8712 -0.2290
19667TIP3   OH280415   1.741   3.893   2.603  0.1345 -0.0120 -0.2160
19667TIP3    H180416   1.694   3.816   2.572  0.0996 -0.2042  0.3080
19667TIP3    H280417   1.828   3.884   2.563  0.9527 -1.6297  1.7591
19668TIP3   OH280418   6.536   5.575   5.843 -0.6791 -0.1983 -0.0347
19668TIP3    H180419   6.501   5.613   5.923 -2.7661 -1.2263 -0.4012
19668TIP3    H280420   6.461   5.571   5.783  0.6044 -0.3599 -1.7064
19669TIP3   OH280421   5.540   3.664   6.209 -0.1858  0.0045  0.2354
19669TIP3    H180422   5.526   3.652   6.304 -1.6156  2.6705  0.4722
19669TIP3    H280423   5.634   3.654   6.197  0.0042 -0.5739  1.8981
19670TIP3   OH280424   0.113   5.043   2.695 -0.0781  0.7619  0.4730
19670TIP3    H180425   0.168   5.022   2.619 -0.4489  1.7798 -0.0823
19670TIP3    H280426   0.150   4.989   2.766  0.0578 -0.4570 -0.4940
19671TIP3   OH280427   0.180   2.339  14.917  0.5328 -0.0797 -0.1773
19671TIP3    H180428   0.115   2.387  14.967  0.1404 -0.8758  0.0994
19671TIP3    H280429   0.134   2.312  14.837  1.0172  0.7761 -0.7722
19672TIP3   OH280430   0.811   3.320   0.667  0.3582 -0.0763 -0.2008
19672TIP3    H180431   0.748   3.290   0.602 -0.6255  1.4890 -0.0142
19672TIP3    H280432   0.875   3.371   0.617 -0.7658  1.6929  0.0789
19673TIP3   OH280433   4.647   6.656   2.042 -0.2216 -0.3318  0.1710
19673TIP3    H180434   4.566   6.620   2.008 -0.3109  1.3950 -1.6162
19673TIP3    H280435   4.715   6.629   1.980  0.3078 -0.4580  0.7904
19674TIP3   OH280436   1.944   3.915   1.021 -0.0918  0.0877  0.5510
19674TIP3    H180437   1.930   3.837   1.075  0.7878  0.0381  0.7249
19674TIP3    H280438   1.923   3.888   0.932 -1.1801  0.0599  0.8094
19675TIP3   OH280439   5.619   5.171  15.974 -0.1572  0.4602 -0.4089
19675TIP3    H180440   5.657   5.258  15.964 -0.5023  0.7849  0.8412
19675TIP3    H280441   5.607   5.139  15.885  3.0617  0.3091 -0.9101
19676TIP3   OH280442   3.283   3.136   0.531  1.1597  0.1688 -0.0035
19676TIP3    H180443   3.257   3.170   0.445  0.9681  0.5785  0.2100
19676TIP3    H280444   3.222   3.065   0.548  0.9229  0.3677 -0.0180
19677TIP3   OH280445   6.436   6.359   2.374 -0.5505 -0.1416 -0.1649
19677TIP3    H180446   6.445   6.352   2.469  0.5155  0.6313 -0.1825
19677TIP3    H280447   6.345   6.385   2.360 -0.8120 -0.6044  0.6164
19678TIP3   OH280448   0.847   6.455  16.102  0.0688  0.4455 -0.1190
19678TIP3    H180449   0.926   6.501  16.073 -0.1345  0.4057 -0.7596
19678TIP3    H280450   0.862   6.364  16.077 -0.4783  0.5600 -0.9160
19679TIP3   OH280451   4.573   2.980   2.036  0.0708 -0.1106 -0.0773
19679TIP3    H180452   4.542   2.902   2.082  0.6350 -0.2545  0.0645
19679TIP3    H280453   4.494   3.019   1.998 -0.0457 -1.6205 -1.4948
19680TIP3   OH280454   0.588   1.827  12.497 -0.2130  0.3918 -0.0340
19680TIP3    H180455   0.646   1.783  12.435 -0.5993 -0.4949  0.2122
19680TIP3    H280456   0.510   1.849  12.446 -0.4677 -0.2004  0.0901
19681TIP3   OH280457   0.434   4.081  12.936  0.9417  0.2214  0.4869
19681TIP3    H180458   0.431   4.129  13.018  0.6046 -0.2420  0.7488
19681TIP3    H280459   0.519   4.104  12.898  0.9048  0.7917  0.7444
19682TIP3   OH280460   4.614   3.969   4.910  0.3298 -0.9394  0.2047
19682TIP3    H180461   4.686   3.928   4.862  2.3593  0.5376  1.7728
19682TIP3    H280462   4.538   3.915   4.892  1.6743 -2.1868 -2.1083
19683TIP3   OH280463   1.479   5.559   0.951 -0.2747 -0.2348 -0.4134
19683TIP3    H180464   1.410   5.504   0.990  0.2741  0.7430  2.1338
19683TIP3    H280465   1.461   5.647   0.983  1.7748  0.1571 -0.1919
19684TIP3   OH280466   4.388   5.431   2.841  0.0646  0.4206 -0.0283
19684TIP3    H180467   4.294   5.451   2.838 -0.3430 -1.0689  1.1868
19684TIP3    H280468   4.414   5.423   2.749 -0.9463  1.0865 -0.3835
19685TIP3   OH280469   3.886   6.016  13.233 -0.3107 -0.2960 -0.4975
19685TIP3    H180470   3.954   6.051  13.174  0.5035 -1.5919 -0.3763
19685TIP3    H280471   3.852   5.940  13.187  0.3749 -1.3646  0.7080
19686TIP3   OH280472   1.742   3.715  11.762  0.2826 -0.4503  0.4252
19686TIP3    H180473   1.655   3.754  11.759 -0.3033 -1.7359 -0.5135
19686TIP3    H280474   1.802   3.788  11.751 -0.7425  0.2634 -0.6735
19687TIP3   OH280475   6.201   5.261  15.823 -0.0185  0.3176 -0.2318
19687TIP3    H180476   6.157   5.282  15.906 -0.7328 -1.5885 -0.0966
19687TIP3    H280477   6.131   5.258  15.758  0.3820  0.6122 -0.6847
19688TIP3   OH280478   4.087   5.377   0.187 -0.1169 -0.3534  0.0689
19688TIP3    H180479   4.174   5.358   0.150  0.3459 -0.3318  1.1131
19688TIP3    H280480   4.032   5.393   0.111  1.0136  0.5791 -0.5849
19689TIP3   OH280481   5.988   5.928  15.114 -0.2709 -0.2605  0.3214
19689TIP3    H180482   6.035   5.875  15.178 -1.8198  0.3588  2.0440
19689TIP3    H280483   6.051   5.941  15.043  1.1355 -1.8696  1.2006
19690TIP3   OH280484   3.779   1.372   1.626  0.2978 -0.2878  0.0234
19690TIP3    H180485   3.808   1.458   1.597 -0.5492  0.0618  0.1899
19690TIP3    H280486   3.852   1.314   1.605 -0.3671 -0.1419 -3.1371
19691TIP3   OH280487   5.586   4.060  14.463 -0.0281  0.6491  0.7284
19691TIP3    H180488   5.611   3.967  14.460 -0.9982  0.4032 -0.2059
19691TIP3    H280489   5.669   4.107  14.459  0.4273 -0.1778  0.2012
19692TIP3   OH280490   5.340   2.867   5.681 -0.1334 -0.0490  0.7893
19692TIP3    H180491   5.268   2.913   5.723 -1.0809 -0.9857  0.2436
19692TIP3    H280492   5.310   2.853   5.591  0.9932  0.0969  0.3792
19693TIP3   OH280493   4.635   0.896  11.592 -0.7082 -0.0994 -0.4595
19693TIP3    H180494   4.600   0.977  11.629 -0.5122 -0.3808  0.3638
19693TIP3    H280495   4.568   0.865  11.532 -0.6138  0.8829 -1.0780
19694TIP3   OH280496   6.256   4.053   4.814 -0.0809 -0.4335 -0.5322
19694TIP3    H180497   6.277   4.052   4.720  0.6478 -0.0033 -0.3900
19694TIP3    H280498   6.211   3.971   4.830  0.1028 -0.6716 -1.1976
19695TIP3   OH280499   6.626   1.617   2.018 -0.0114 -0.3036 -0.4018
19695TIP3    H180500   6.716   1.631   1.990  0.6308 -0.3587  1.5118
19695TIP3    H280501   6.595   1.704   2.044 -0.7737 -0.1638 -1.6865
19696TIP3   OH280502   0.697   5.420   4.560 -0.3679  0.0826  0.2761
19696TIP3    H180503   0.741   5.494   4.601 -0.8393  0.9140 -0.6660
19696TIP3    H280504   0.711   5.347   4.620  0.0939  0.9353  1.2326
19697TIP3   OH280505   1.662   1.180  13.619  0.1195 -0.2957  0.0895
19697TIP3    H180506   1.717   1.259  13.616  1.6131 -1.3150 -0.1565
19697TIP3    H280507   1.702   1.126  13.687 -2.1135 -0.0012  1.7352
19698TIP3   OH280508   5.223   0.451   1.732 -0.7511  0.0054 -0.4723
19698TIP3    H180509   5.217   0.522   1.669  0.2379  0.9382  0.4212
19698TIP3    H280510   5.315   0.451   1.759 -0.5871 -2.0002 -0.8602
19699TIP3   OH280511   1.050   5.170   0.409 -0.2181  0.2744  0.6682
19699TIP3    H180512   1.141   5.155   0.437  0.1947  1.2530 -0.0883
19699TIP3    H280513   1.024   5.251   0.454 -0.5027  0.3276  0.4120
19700TIP3   OH280514   0.753   2.866  11.920  0.7342 -0.6090 -0.1923
19700TIP3    H180515   0.682   2.892  11.861  2.1442  0.4244 -1.5028
19700TIP3    H280516   0.731   2.909  12.003 -1.5611 -2.5336  0.3194
19701TIP3   OH280517   3.383   3.747  17.360 -0.1009 -0.3060  0.2091
19701TIP3    H180518   3.457   3.740  17.299  0.3604 -1.2395  0.8524
19701TIP3    H280519   3.423   3.758  17.446 -0.7410  0.4251  0.4259
19702TIP3   OH280520   2.836   1.390   6.869  0.1139 -0.3257  0.5723
19702TIP3    H180521   2.900   1.380   6.939 -0.2003 -0.9020  0.7815
19702TIP3    H280522   2.857   1.474   6.829  0.7328 -0.3159  0.9112
19703TIP3   OH280523   5.812   4.706   2.959 -0.5526 -0.1899  0.8234
19703TIP3    H180524   5.763   4.788   2.959  0.9171  0.8154 -1.4948
19703TIP3    H280525   5.884   4.721   3.021  0.2646  0.7254 -0.2887
19704TIP3   OH280526   5.384   1.776   5.119  0.2833 -0.2521 -0.4092
19704TIP3    H180527   5.364   1.718   5.192 -0.5144 -0.8380 -1.0716
19704TIP3    H280528   5.455   1.831   5.151  0.3371 -0.8806  0.6027
19705TIP3   OH280529   6.293   4.432   5.539  0.7971  0.3820 -0.1798
19705TIP3    H180530   6.314   4.496   5.471 -0.8559  1.2066  0.0301
19705TIP3    H280531   6.257   4.357   5.491  1.6637  0.0691 -0.3491
19706TIP3   OH280532   3.569   1.857   5.059 -0.2400  0.2428 -0.0824
19706TIP3    H180533   3.634   1.927   5.064  2.0805 -1.6643 -1.0449
19706TIP3    H280534   3.574   1.814   5.145 -0.8329  0.5668  0.1173
19707TIP3   OH280535   2.562   3.387   1.094 -0.6518  0.0204 -0.7056
19707TIP3    H180536   2.490   3.435   1.053 -0.6232  0.8060  0.1220
19707TIP3    H280537   2.579   3.434   1.176 -0.0586 -0.9155 -0.2624
19708TIP3   OH280538   5.471   2.886   4.687 -0.4097  0.5058 -0.6490
19708TIP3    H180539   5.424   2.828   4.747  0.0789 -0.0731 -0.8166
19708TIP3    H280540   5.407   2.954   4.665 -1.4970 -0.7484 -1.5840
19709TIP3   OH280541   6.231   0.720  17.196 -0.7260  0.0006 -0.3419
19709TIP3    H180542   6.315   0.714  17.242 -0.1524 -1.4981 -1.4687
19709TIP3    H280543   6.242   0.793  17.136 -0.2228 -0.1601 -0.4528
19710TIP3   OH280544   3.864   0.288   6.114 -0.2684  0.3862 -0.1020
19710TIP3    H180545   3.901   0.330   6.192 -0.7628 -0.8882  0.8594
19710TIP3    H280546   3.787   0.241   6.147  0.8776 -2.1838 -0.9010
19711TIP3   OH280547   5.239   4.789  17.147  0.0737  0.0097 -0.5878
19711TIP3    H180548   5.243   4.883  17.135  1.1097 -0.1105 -1.3018
19711TIP3    H280549   5.247   4.753  17.058 -1.9567 -0.7227 -0.5215
19712TIP3   OH280550   5.739   4.045  14.177 -0.0670  0.2363 -0.2151
19712TIP3    H180551   5.755   3.951  14.160  1.1289  0.3579  0.1436
19712TIP3    H280552   5.764   4.058  14.268  0.5195  1.0568 -0.4803
19713TIP3   OH280553   4.160   2.817   5.691  0.0203  0.6303  0.1127
19713TIP3    H180554   4.211   2.795   5.768  0.8411 -0.8561 -0.8170
19713TIP3    H280555   4.093   2.878   5.723  0.5356  0.2980  1.9102
19714TIP3   OH280556   1.329   3.641  14.359 -0.1622  0.1565 -0.3688
19714TIP3    H180557   1.338   3.587  14.281 -1.2905 -0.4760 -0.0832
19714TIP3    H280558   1.319   3.579  14.431 -1.0236  0.7222  0.0222
19715TIP3   OH280559   6.640   5.073  13.531 -0.1278 -0.9012  0.1184
19715TIP3    H180560   6.694   5.134  13.480  0.6730 -1.5203  0.2166
19715TIP3    H280561   6.551   5.088  13.499  0.0095  0.5487  0.3673
19716TIP3   OH280562   0.474   3.255   6.776 -0.3751 -0.1052 -0.0829
19716TIP3    H180563   0.466   3.291   6.687  0.2284  0.5344  0.1127
19716TIP3    H280564   0.514   3.326   6.827  0.9435 -1.0962  0.2963
19717TIP3   OH280565   6.383   0.096  13.250  0.5957 -0.2625  0.1421
19717TIP3    H180566   6.318   0.118  13.184 -0.3608  0.7034  1.3407
19717TIP3    H280567   6.430   0.178  13.265  2.9918 -1.2258 -1.5942
19718TIP3   OH280568   6.235   4.798   3.754  0.1029  0.2609 -0.8952
19718TIP3    H180569   6.203   4.759   3.835  0.7937 -2.0368 -1.6576
19718TIP3    H280570   6.330   4.790   3.760  0.1995  0.8818 -1.5475
19719TIP3   OH280571   1.710   0.256   5.798 -0.3438  0.4420 -0.4818
19719TIP3    H180572   1.660   0.235   5.719 -0.4150  1.6328 -0.7785
19719TIP3    H280573   1.768   0.326   5.771  1.0377 -0.4640  0.0332
19720TIP3   OH280574   5.602   1.456   0.361  0.5606 -0.7977 -0.7703
19720TIP3    H180575   5.630   1.414   0.279  0.0904 -0.4844 -1.0998
19720TIP3    H280576   5.537   1.396   0.397  0.8624 -0.9986 -0.5610
19721TIP3   OH280577   2.685   0.088  13.907 -0.4935  0.2284  0.1036
19721TIP3    H180578   2.656   0.123  13.991 -1.0124 -1.7184  0.7840
19721TIP3    H280579   2.761   0.034  13.929  1.1407  1.9039 -1.1010
19722TIP3   OH280580   0.638   6.374   4.799  0.6974  0.3290  0.0098
19722TIP3    H180581   0.715   6.323   4.773  0.4688 -0.4855  0.8496
19722TIP3    H280582   0.567   6.310   4.803  0.3278  0.7664  0.7689
19723TIP3   OH280583   6.715   4.268   1.476 -0.2819  0.0363  0.3491
19723TIP3    H180584   6.799   4.305   1.502 -0.8735  0.4028  1.8696
19723TIP3    H280585   6.710   4.283   1.382  1.5004 -0.3238  0.1533
19724TIP3   OH280586   2.568   2.941  13.763  0.2222 -0.7855 -0.1281
19724TIP3    H180587   2.482   2.983  13.762  1.1060  1.3084  1.6762
19724TIP3    H280588   2.564   2.879  13.836  0.4073 -0.2356  0.3579
19725TIP3   OH280589   1.169   4.057   1.404 -0.0574 -0.0545  0.1837
19725TIP3    H180590   1.086   4.105   1.401  0.0445  0.1091 -0.0493
19725TIP3    H280591   1.177   4.029   1.495  0.8155  2.0493  0.8249
19726TIP3   OH280592   2.512   3.875  14.674  0.6733  0.2732  0.0459
19726TIP3    H180593   2.535   3.964  14.649  1.5351 -0.1795 -0.8350
19726TIP3    H280594   2.582   3.820  14.637 -0.2863 -0.8492 -0.1720
19727TIP3   OH280595   4.603   4.539   6.035  0.4877 -0.4720  0.0991
19727TIP3    H180596   4.576   4.556   5.945 -0.4544  1.2323  0.6557
19727TIP3    H280597   4.522   4.522   6.082  0.9241 -0.8693  0.7279
19728TIP3   OH280598   2.901   1.996   3.544 -0.4372 -0.3794  0.0859
19728TIP3    H180599   2.838   1.934   3.507 -1.6448  2.2175 -2.6830
19728TIP3    H280600   2.982   1.979   3.496 -0.3746 -0.7124  0.3113
19729TIP3   OH280601   2.701   6.372   2.551 -0.2132  0.0294  0.3405
19729TIP3    H180602   2.786   6.414   2.537 -1.0399  1.5147 -0.4932
19729TIP3    H280603   2.647   6.439   2.592 -1.2623 -0.5667 -0.0091
19730TIP3   OH280604   1.811   4.176   0.480 -0.5376  0.3651 -0.1011
19730TIP3    H180605   1.805   4.233   0.404 -2.1814  0.4253  0.0365
19730TIP3    H280606   1.721   4.166   0.510 -0.1016 -0.9534  0.8853
19731TIP3   OH280607   6.595   4.693   1.368 -0.5353 -0.1614  0.4008
19731TIP3    H180608   6.619   4.700   1.460  1.3935 -1.2074  0.0148
19731TIP3    H280609   6.675   4.665   1.324 -1.7353 -0.8930 -1.4219
19732TIP3   OH280610   5.088   2.806  16.054  0.1062  0.7558 -0.2080
19732TIP3    H180611   5.099   2.817  15.959 -1.2311  1.4958 -0.3053
19732TIP3    H280612   5.162   2.852  16.093  0.2299  1.1346 -0.8768
19733TIP3   OH280613   1.686   2.565   0.933  0.3031  0.5657  0.0333
19733TIP3    H180614   1.780   2.549   0.923  0.5411  0.8671  1.5983
19733TIP3    H280615   1.678   2.616   1.014 -1.3031 -0.4629  0.5842
19734TIP3   OH280616   1.071   4.072  17.042  0.0767  0.8266  0.7247
19734TIP3    H180617   1.060   4.058  16.948  0.6266 -3.1884  1.0723
19734TIP3    H280618   0.982   4.086  17.075 -0.1603  1.8944 -0.2968
19735TIP3   OH280619   0.151   1.326  16.509 -0.3603  0.0969  0.0994
19735TIP3    H180620   0.120   1.314  16.419  2.8677 -1.3951 -0.9529
19735TIP3    H280621   0.134   1.242  16.552  2.6709 -1.1102 -0.7789
19736TIP3   OH280622   2.842   1.858   4.415 -0.5500 -0.4996  0.0939
19736TIP3    H180623   2.887   1.809   4.483 -1.0499 -0.2688  0.6054
19736TIP3    H280624   2.773   1.906   4.461 -2.0942 -1.7529 -0.7940
19737TIP3   OH280625   2.740   1.241  12.603  0.0476  0.0565  0.2741
19737TIP3    H180626   2.691   1.158  12.603 -0.4139  0.3232  0.6423
19737TIP3    H280627   2.770   1.251  12.694  0.5194  0.0545  0.1230
19738TIP3   OH280628   2.523   3.178   5.037  0.1430  0.6298 -0.2019
19738TIP3    H180629   2.437   3.143   5.015  0.6925 -1.2910  0.4928
19738TIP3    H280630   2.562   3.200   4.952  0.1287 -1.4327 -0.7982
19739TIP3   OH280631   2.853   4.034   3.585 -0.2631 -0.0163  0.0074
19739TIP3    H180632   2.921   3.969   3.568  2.0693  1.4429  2.8610
19739TIP3    H280633   2.814   4.006   3.668 -2.0881  0.0778 -0.7677
19740TIP3   OH280634   4.967   1.271   6.478 -0.5098 -0.3434  0.6935
19740TIP3    H180635   4.905   1.340   6.454 -2.2097 -2.1446 -0.2983
19740TIP3    H280636   5.034   1.275   6.410 -1.0842 -0.2650  0.1218
19741TIP3   OH280637   1.370   5.606   2.295  0.6485 -0.1004  0.1115
19741TIP3    H180638   1.315   5.529   2.279  0.7641 -0.2225  0.2960
19741TIP3    H280639   1.392   5.601   2.388  1.6578 -0.5178 -0.1303
19742TIP3   OH280640   5.886   4.144  15.403  0.0256  0.3836 -0.3419
19742TIP3    H180641   5.917   4.148  15.313  1.4488  0.1906  0.1081
19742TIP3    H280642   5.869   4.235  15.427 -1.1674  0.3610 -1.0576
19743TIP3   OH280643   1.440   2.852  12.683  0.1798  0.0140  0.3723
19743TIP3    H180644   1.527   2.838  12.645 -0.4753  0.4083 -1.3454
19743TIP3    H280645   1.456   2.854  12.778  1.7731 -1.7494  0.2083
19744TIP3   OH280646   4.777   4.649   2.312 -0.1329  0.2196 -0.0673
19744TIP3    H180647   4.711   4.678   2.375  0.3750  3.0652 -0.7503
19744TIP3    H280648   4.728   4.624   2.234 -0.5684 -0.7575  0.4965
19745TIP3   OH280649   1.821   6.164   0.273  0.5532 -0.0454 -0.1965
19745TIP3    H180650   1.740   6.190   0.230  0.9393 -0.1560 -1.0082
19745TIP3    H280651   1.820   6.068   0.270  0.5957 -0.0530  0.0155
19746TIP3   OH280652   1.232   0.287   3.032  0.3662  0.4886 -0.7869
19746TIP3    H180653   1.199   0.199   3.013  0.6588  0.1606  0.1938
19746TIP3    H280654   1.316   0.273   3.076 -0.6747  1.1424  1.5724
19747TIP3   OH280655   5.682   0.372  15.837  0.0744 -0.0454 -0.4695
19747TIP3    H180656   5.776   0.361  15.832  0.3314  1.7360 -0.2389
19747TIP3    H280657   5.649   0.335  15.755  1.3098  2.1818 -2.0728
19748TIP3   OH280658   3.093   1.786   3.872 -0.4289 -0.0207 -0.2770
19748TIP3    H180659   3.064   1.874   3.896  0.6329  0.9360 -2.2876
19748TIP3    H280660   3.141   1.755   3.949 -1.8389  0.6475  0.9114
19749TIP3   OH280661   0.212   2.709   5.870  0.1762  0.3060  0.0656
19749TIP3    H180662   0.267   2.631   5.878  0.7565  0.6744 -0.2586
19749TIP3    H280663   0.208   2.745   5.958 -0.9396 -0.6389  0.4287
19750TIP3   OH280664   5.799   1.728   5.209 -0.0329  0.1336 -0.1828
19750TIP3    H180665   5.802   1.734   5.114  0.4819 -0.6046 -0.2199
19750TIP3    H280666   5.795   1.634   5.227 -3.4778  0.2868  0.4510
19751TIP3   OH280667   2.051   5.559   0.794 -0.0875 -0.1031  0.3177
19751TIP3    H180668   2.033   5.547   0.701  0.9383 -2.2055  0.3537
19751TIP3    H280669   1.986   5.624   0.822 -0.7558  0.1902 -1.7230
19752TIP3   OH280670   2.099   0.518   5.668 -0.4405 -0.3803  0.1778
19752TIP3    H180671   2.075   0.529   5.576 -1.5665 -2.3617  0.1649
19752TIP3    H280672   2.129   0.604   5.696  0.2663  0.1852 -2.1310
19753TIP3   OH280673   0.838   6.426   2.960 -0.1506  0.0611 -0.4149
19753TIP3    H180674   0.797   6.340   2.958  0.0656 -0.0626  0.1546
19753TIP3    H280675   0.903   6.420   3.030 -0.4006  0.7991 -0.0967
19754TIP3   OH280676   4.268   5.996  15.472 -0.3927 -0.3271 -0.3600
19754TIP3    H180677   4.275   6.049  15.551  1.9152  1.4739 -1.6491
19754TIP3    H280678   4.175   5.996  15.450 -0.9895 -0.3854  1.9755
19755TIP3   OH280679   1.706   6.424  15.595 -0.1839  0.7538  0.1203
19755TIP3    H180680   1.711   6.380  15.510  0.7046  1.2094 -0.0784
19755TIP3    H280681   1.781   6.390  15.644 -2.5921 -2.2232  2.1126
19756TIP3   OH280682   5.056   6.069   3.027  0.3837 -0.0191  0.7426
19756TIP3    H180683   5.114   6.127   3.077 -0.6256  1.7348 -0.0008
19756TIP3    H280684   4.971   6.078   3.070  0.3374 -1.5492  1.0316
19757TIP3   OH280685   6.087   6.619  14.177 -0.1443 -0.3002  0.0329
19757TIP3    H180686   6.141   6.620  14.098  0.2145  0.1638  0.2757
19757TIP3    H280687   6.080   6.711  14.202  0.1587 -0.4769  0.8114
19758TIP3   OH280688   5.058   5.539   1.664 -0.6830 -0.5362 -0.2394
19758TIP3    H180689   4.971   5.578   1.655 -0.1259  0.3377 -2.1380
19758TIP3    H280690   5.064   5.477   1.591 -0.1815 -1.6021  0.6660
19759TIP3   OH280691   1.864   1.080  12.418 -0.1421  0.1998  0.1780
19759TIP3    H180692   1.915   1.001  12.436  1.9043  1.1514 -1.0210
19759TIP3    H280693   1.823   1.063  12.333 -2.1409 -0.6560  1.2453
19760TIP3   OH280694   5.053   3.926   2.610  0.5421  0.3827  0.0503
19760TIP3    H180695   4.992   4.000   2.617  0.8994  0.7359 -0.5067
19760TIP3    H280696   5.094   3.920   2.696 -1.8309 -1.2505  1.1877
19761TIP3   OH280697   5.825   1.205   0.290  0.0132 -0.0801 -0.1095
19761TIP3    H180698   5.800   1.119   0.325  0.6178 -0.6473 -1.0120
19761TIP3    H280699   5.742   1.249   0.272 -0.3082 -0.6244  0.0186
19762TIP3   OH280700   0.143   4.954  12.052 -0.5397 -0.2278 -0.1530
19762TIP3    H180701   0.131   5.005  11.972  0.4388 -0.1076 -0.2396
19762TIP3    H280702   0.112   5.012  12.122 -0.9980 -0.1672 -0.4031
19763TIP3   OH280703   2.991   5.547  13.235  0.8084 -0.4012  0.7526
19763TIP3    H180704   2.942   5.615  13.188  0.4289 -0.9326  0.3786
19763TIP3    H280705   2.925   5.495  13.279  1.1594  0.0458  1.8470
19764TIP3   OH280706   6.237   3.582  13.261  0.3071 -0.2754  0.2194
19764TIP3    H180707   6.201   3.642  13.196  0.4537  1.3421  1.5830
19764TIP3    H280708   6.175   3.586  13.334  1.4220 -0.1228  1.1877
19765TIP3   OH280709   6.614   0.266   2.746 -0.3231 -0.0000 -0.1991
19765TIP3    H180710   6.587   0.271   2.654 -2.6203 -0.7215  0.3622
19765TIP3    H280711   6.695   0.216   2.745 -0.3419 -0.0409 -1.8334
19766TIP3   OH280712   4.278   6.185  17.022 -0.4909  0.0356  0.2229
19766TIP3    H180713   4.183   6.182  17.013 -0.3312 -1.1390 -2.0143
19766TIP3    H280714   4.305   6.259  16.969 -0.0883 -0.6309 -0.5300
19767TIP3   OH280715   0.145   6.374  10.832 -0.5148 -0.0399 -0.3794
19767TIP3    H180716   0.149   6.455  10.883 -1.8027 -0.3667  0.2835
19767TIP3    H280717   0.117   6.402  10.744 -0.6260  0.2704 -0.2448
19768TIP3   OH280718   3.560   6.515   0.907 -0.1138  0.1529  0.1472
19768TIP3    H180719   3.557   6.424   0.935 -1.6299 -0.1831 -0.9958
19768TIP3    H280720   3.629   6.518   0.841  1.6624  0.4070  1.9093
19769TIP3   OH280721   5.388   1.364   6.454 -0.1403 -0.1011  0.1189
19769TIP3    H180722   5.448   1.417   6.403 -0.1781  1.4748  1.6134
19769TIP3    H280723   5.306   1.363   6.404  0.0701  0.7010 -0.2394
19770TIP3   OH280724   2.092   2.325  13.983  0.6367 -0.2088 -0.7090
19770TIP3    H180725   2.185   2.345  13.982  0.3998  1.0005 -1.1647
19770TIP3    H280726   2.058   2.365  13.903 -0.7263  1.9448  0.8257
19771TIP3   OH280727   2.558   1.854   1.741  0.9322 -0.0433 -0.5538
19771TIP3    H180728   2.524   1.809   1.664  2.5975 -0.5306 -1.0439
19771TIP3    H280729   2.544   1.947   1.722 -0.1688 -0.2216 -0.6854
19772TIP3   OH280730   5.381   4.696   1.010 -0.2359 -0.1289  0.2961
19772TIP3    H180731   5.372   4.675   1.103 -0.5423 -1.3253  0.0140
19772TIP3    H280732   5.301   4.661   0.970 -0.1738  0.5014 -0.3993
19773TIP3   OH280733   4.194   4.194  16.127  0.0405 -0.1287  0.0099
19773TIP3    H180734   4.233   4.281  16.130  0.1006 -0.1650  0.3194
19773TIP3    H280735   4.120   4.199  16.187  0.0544 -0.2958  0.0411
19774TIP3   OH280736   5.489   1.380  15.864  0.0360  0.1622 -0.0841
19774TIP3    H180737   5.517   1.289  15.850  1.7304  0.5994  0.1809
19774TIP3    H280738   5.487   1.417  15.776  0.4682  0.1607 -0.0986
19775TIP3   OH280739   6.498   1.357  11.039  0.4874 -0.3040  0.1374
19775TIP3    H180740   6.492   1.397  10.953 -0.5178 -0.4920  0.1074
19775TIP3    H280741   6.580   1.307  11.037  2.6632  2.9465  0.7369
19776TIP3   OH280742   6.279   6.339   3.573  0.0273  0.2794  0.4136
19776TIP3    H180743   6.212   6.275   3.551 -0.5406  1.3035 -1.0066
19776TIP3    H280744   6.340   6.292   3.629 -0.9506 -1.1682  0.3129
19777TIP3   OH280745   5.315   2.683  13.220  0.4286 -0.1481  0.0173
19777TIP3    H180746   5.265   2.747  13.269  1.6372  0.0301  1.0876
19777TIP3    H280747   5.389   2.733  13.184  0.0446 -0.4580 -1.2659
19778TIP3   OH280748   1.964   3.266   1.476  0.0184  0.8160  0.6839
19778TIP3    H180749   1.952   3.355   1.443 -0.5366  0.3832 -0.3343
19778TIP3    H280750   2.052   3.241   1.448 -0.6860  0.2133 -1.1253
19779TIP3   OH280751   1.062   4.490   5.547 -0.2283  0.5737  0.5850
19779TIP3    H180752   1.107   4.408   5.525 -0.2474  0.7530 -0.1228
19779TIP3    H280753   1.012   4.513   5.469 -0.2080  1.2758  0.7688
19780TIP3   OH280754   4.929   0.173  12.322 -0.9347  0.2874  0.2940
19780TIP3    H180755   4.947   0.082  12.300  0.1171  0.5326  0.0998
19780TIP3    H280756   4.936   0.220  12.239 -0.7767  0.6439  0.5040
19781TIP3   OH280757   1.568   1.729   0.146  0.0618 -0.3560  0.4385
19781TIP3    H180758   1.614   1.811   0.132 -0.2139 -0.5537 -1.9369
19781TIP3    H280759   1.483   1.755   0.184 -0.4394  0.5825 -1.2392
19782TIP3   OH280760   4.098   0.937  15.987 -0.3339 -0.1250  0.1273
19782TIP3    H180761   4.166   0.901  15.930 -0.1358 -1.0197  0.8851
19782TIP3    H280762   4.020   0.884  15.967 -0.0076 -1.1260  1.3418
19783TIP3   OH280763   0.236   0.398  13.238 -0.4420 -0.1311 -0.5746
19783TIP3    H180764   0.173   0.412  13.309 -0.7719 -2.5683 -0.3114
19783TIP3    H280765   0.183   0.367  13.165  0.2345 -0.3064 -0.9988
19784TIP3   OH280766   1.373   0.320  11.190  0.1765 -0.3639 -0.0873
19784TIP3    H180767   1.377   0.316  11.094  1.0878  0.9377 -0.1323
19784TIP3    H280768   1.426   0.246  11.219  0.9736 -0.0226 -0.6165
19785TIP3   OH280769   6.217   6.041   1.577  0.4870  0.1090 -0.1863
19785TIP3    H180770   6.133   6.065   1.538  2.0385  2.1948 -2.5442
19785TIP3    H280771   6.215   6.081   1.664 -1.0476 -0.1434 -0.0683
19786TIP3   OH280772   5.832   3.280  12.136  0.5344 -0.9242 -0.4094
19786TIP3    H180773   5.869   3.313  12.218  1.8809 -1.5968 -0.7312
19786TIP3    H280774   5.763   3.343  12.115 -0.1700 -1.0028  1.4812
19787TIP3   OH280775   5.394   2.258  17.106  0.3179  0.0444 -0.0265
19787TIP3    H180776   5.371   2.347  17.134 -0.6244 -0.2037  0.0288
19787TIP3    H280777   5.489   2.253  17.116  0.2657  0.7233  0.8939
19788TIP3   OH280778   3.616   5.941   2.751  0.0887 -0.2294 -0.0852
19788TIP3    H180779   3.606   5.860   2.701  0.0457 -2.0420  2.6657
19788TIP3    H280780   3.636   5.913   2.840 -3.1707  2.6161  1.8473
19789TIP3   OH280781   0.732   1.954   2.823  0.5373 -0.6558 -0.2198
19789TIP3    H180782   0.760   1.926   2.910  2.2757 -1.5365 -1.0247
19789TIP3    H280783   0.791   2.026   2.800  0.2776 -0.6217 -0.7970
19790TIP3   OH280784   3.247   6.568   5.128 -0.1833 -0.0945 -0.6539
19790TIP3    H180785   3.194   6.488   5.132 -0.1510 -0.1381  2.9790
19790TIP3    H280786   3.294   6.569   5.211  1.0734  2.9040 -1.2671
19791TIP3   OH280787   1.175   4.148  14.384 -0.5131 -0.1451 -0.5197
19791TIP3    H180788   1.103   4.193  14.430 -0.6150 -0.7645 -0.0634
19791TIP3    H280789   1.252   4.163  14.439 -0.5128 -0.3879 -0.4532
19792TIP3   OH280790   0.865   5.040   2.198  0.0226 -0.2296  0.1521
19792TIP3    H180791   0.839   4.965   2.251  0.2213  0.5394  1.3823
19792TIP3    H280792   0.948   5.069   2.236  0.1779  0.3345 -0.5870
19793TIP3   OH280793   1.559   4.836   5.549  0.2985 -0.4312  0.1087
19793TIP3    H180794   1.631   4.849   5.487 -1.0810 -1.9754 -1.9388
19793TIP3    H280795   1.582   4.891   5.624  2.7657  0.4017 -1.1513
19794TIP3   OH280796   2.491   1.934  17.196 -0.8343 -0.2274 -0.0356
19794TIP3    H180797   2.466   2.014  17.243 -1.9803  0.4140 -1.6434
19794TIP3    H280798   2.518   1.965  17.109  2.0494 -1.2918  0.3513
19795TIP3   OH280799   2.300   3.099  17.162 -0.0656 -0.0881 -0.2953
19795TIP3    H180800   2.302   3.023  17.219  1.6451  0.6304  0.6886
19795TIP3    H280801   2.222   3.087  17.108 -1.0923 -1.3950  1.3725
19796TIP3   OH280802   3.885   4.397  12.448 -0.6085  0.5163 -0.2090
19796TIP3    H180803   3.833   4.370  12.373 -0.1980  0.2654 -0.4052
19796TIP3    H280804   3.858   4.488  12.464  0.6555  1.2309 -1.8483
19797TIP3   OH280805   5.243   1.608   4.100 -0.0340 -0.0134 -0.4076
19797TIP3    H180806   5.296   1.541   4.057  0.6495 -0.0531  0.4644
19797TIP3    H280807   5.174   1.629   4.037  0.5184 -0.5844 -1.2173
19798TIP3   OH280808   3.452   6.256   4.653 -0.1838  0.1998 -0.5389
19798TIP3    H180809   3.427   6.327   4.713  0.3399  0.5050 -0.6717
19798TIP3    H280810   3.475   6.302   4.572 -0.1640 -0.1538 -0.7315
19799TIP3   OH280811   2.810   0.502  16.546  0.2526 -0.1105  0.0446
19799TIP3    H180812   2.740   0.545  16.594  1.3530  0.8636  0.8299
19799TIP3    H280813   2.796   0.526  16.455 -0.7205 -0.3631  0.1167
19800TIP3   OH280814   3.886   2.008   6.089 -0.2135 -0.1638  0.3785
19800TIP3    H180815   3.816   1.949   6.118  0.2196 -1.2019 -0.5911
19800TIP3    H280816   3.938   1.955   6.027  1.7504  0.3784  1.4585
19801TIP3   OH280817   3.787   2.444   1.748  0.1697  0.1122 -0.5237
19801TIP3    H180818   3.734   2.364   1.754  0.4925 -0.0657 -0.0025
19801TIP3    H280819   3.724   2.512   1.722 -0.9324  0.4780  2.6594
19802TIP3   OH280820   4.506   1.501  16.609  0.5296 -0.0787 -0.0647
19802TIP3    H180821   4.483   1.543  16.692 -0.7033  1.1960 -0.9967
19802TIP3    H280822   4.449   1.543  16.544 -0.7558 -3.1617 -1.1160
19803TIP3   OH280823   2.167   4.039  12.782 -0.4394 -0.2040 -0.1445
19803TIP3    H180824   2.104   4.112  12.782 -0.4396 -0.0243  3.3581
19803TIP3    H280825   2.221   4.054  12.860  2.6502 -1.5076 -1.8695
19804TIP3   OH280826   0.070   5.992   3.472 -0.2529  0.4162  0.2225
19804TIP3    H180827   0.037   6.073   3.511  1.8860  1.0498  0.8326
19804TIP3    H280828   0.055   6.003   3.378 -2.7887  0.1316  0.5214
19805TIP3   OH280829   1.284   4.898   5.472 -0.5515 -0.3651 -0.7078
19805TIP3    H180830   1.216   4.881   5.537 -1.1236 -0.0025 -1.1967
19805TIP3    H280831   1.366   4.889   5.520 -0.9812  1.0102  0.3543
19806TIP3   OH280832   0.631   5.574  10.302 -0.0306  0.1931  0.4477
19806TIP3    H180833   0.680   5.505  10.257  0.3051 -0.8920  2.3554
19806TIP3    H280834   0.685   5.595  10.379 -0.9882  1.3174  0.8355
19807TIP3   OH280835   0.835   0.413   4.446 -0.3260  0.9886  0.2337
19807TIP3    H180836   0.819   0.347   4.379  1.9976  1.8778 -1.3275
19807TIP3    H280837   0.749   0.429   4.486 -1.7155  0.0588 -2.1970
19808TIP3   OH280838   5.283   5.611   1.307 -0.3758 -0.3149  0.2496
19808TIP3    H180839   5.195   5.582   1.283 -0.2642 -1.9781  1.6301
19808TIP3    H280840   5.299   5.569   1.392  1.9371 -0.4609 -0.2015
19809TIP3   OH280841   2.260   1.705   0.379  0.0422 -0.5750  0.0092
19809TIP3    H180842   2.326   1.647   0.342  2.7477  0.9766  2.1137
19809TIP3    H280843   2.196   1.714   0.308  1.1221 -3.4768 -1.5398
19810TIP3   OH280844   3.924   3.019  11.969 -0.3935 -0.3139  0.0268
19810TIP3    H180845   3.928   2.966  12.048 -1.3993 -1.7408 -0.8354
19810TIP3    H280846   3.830   3.032  11.953 -0.1857  0.7989 -0.3907
19811TIP3   OH280847   6.508   6.035  12.730  0.3497 -0.2124 -0.1010
19811TIP3    H180848   6.553   6.117  12.751  0.8870  0.1300 -2.3584
19811TIP3    H280849   6.578   5.973  12.713 -0.0264 -0.4296 -0.9117
19812TIP3   OH280850   4.959   4.321   1.367  0.1621 -0.0876 -0.4225
19812TIP3    H180851   5.022   4.249   1.373  0.3042  0.0003 -0.8167
19812TIP3    H280852   4.874   4.279   1.376  0.1834 -0.4658 -1.7497
19813TIP3   OH280853   6.647   5.875   1.002  0.6928  0.1069  0.6913
19813TIP3    H180854   6.721   5.926   0.970  1.3466 -1.9263 -1.3520
19813TIP3    H280855   6.640   5.802   0.940 -2.1102 -0.5827  1.6683
19814TIP3   OH280856   2.076   5.508   5.482  0.0419  0.3313  0.0570
19814TIP3    H180857   2.063   5.549   5.568  0.1728 -0.7310  0.5969
19814TIP3    H280858   2.070   5.581   5.420 -0.1030  1.1099  0.9577
19815TIP3   OH280859   3.367   5.441   5.698  0.2017 -0.6412  0.6356
19815TIP3    H180860   3.327   5.372   5.646 -0.3240  1.4322 -1.9136
19815TIP3    H280861   3.458   5.443   5.668 -0.1054  0.5683 -0.2953
19816TIP3   OH280862   6.701   0.708   4.228  0.1884 -0.3322  0.3975
19816TIP3    H180863   6.727   0.798   4.207  0.3955 -0.7708 -1.3829
19816TIP3    H280864   6.699   0.663   4.143  1.6734 -2.4294  1.3785
19817TIP3   OH280865   3.889   0.445  10.946  0.2704  0.3137  0.0087
19817TIP3    H180866   3.858   0.535  10.948 -0.7706  0.1810 -3.4947
19817TIP3    H280867   3.971   0.449  10.896  0.6049 -0.5758  0.4656
19818TIP3   OH280868   3.832   0.750  14.540 -0.0393  0.0357  0.2618
19818TIP3    H180869   3.862   0.840  14.551  1.6050 -0.3064 -1.1375
19818TIP3    H280870   3.820   0.740  14.446  0.2463 -1.3598  0.3587
19819TIP3   OH280871   5.939   5.744   4.776 -0.4376 -0.0023 -0.0723
19819TIP3    H180872   5.944   5.650   4.756 -2.1386 -0.2764  0.6177
19819TIP3    H280873   5.899   5.748   4.862  0.4514  1.3641  0.3043
19820TIP3   OH280874   1.952   2.255  11.379  0.1725 -0.3938 -0.0469
19820TIP3    H180875   1.970   2.349  11.383  0.7492 -0.4847 -0.3457
19820TIP3    H280876   1.992   2.226  11.297  0.1925 -0.9407  0.1456
19821TIP3   OH280877   3.008   3.383  15.182  0.4188 -0.2484  0.0939
19821TIP3    H180878   3.054   3.413  15.261  0.1436  0.3553  0.0276
19821TIP3    H280879   2.937   3.328  15.214  1.0050 -0.9489  0.2112
19822TIP3   OH280880   0.186   3.374  11.920 -0.4720  0.6568  0.2319
19822TIP3    H180881   0.190   3.402  11.828 -0.4599  0.4759  0.1765
19822TIP3    H280882   0.199   3.454  11.970 -1.8578  0.9979  0.0914
19823TIP3   OH280883   3.581   0.670   5.224 -0.1363 -0.5368  0.1091
19823TIP3    H180884   3.492   0.687   5.254 -0.4785 -0.2166 -1.0284
19823TIP3    H280885   3.571   0.604   5.155  0.7053 -1.8541  1.1861
19824TIP3   OH280886   3.099   0.038  13.935 -0.1302 -0.4059 -0.6651
19824TIP3    H180887   3.104  -0.044  13.884 -1.9297 -0.5347 -0.7126
19824TIP3    H280888   3.026   0.024  13.996  2.3650 -0.5136  2.5408
19825TIP3   OH280889   6.065   1.473  16.204 -0.1283  0.1047 -0.9164
19825TIP3    H180890   6.043   1.380  16.203  0.4712 -0.0670  0.0933
19825TIP3    H280891   6.064   1.499  16.112  1.0014 -1.2225 -1.3403
19826TIP3   OH280892   1.892   3.678  15.564  0.1184 -0.3208  0.1822
19826TIP3    H180893   1.954   3.744  15.535 -1.6777  1.7943  0.9294
19826TIP3    H280894   1.851   3.646  15.483  0.0378  0.4805 -0.0957
19827TIP3   OH280895   5.476   5.498  16.072  0.1300 -0.3277 -0.1534
19827TIP3    H180896   5.387   5.464  16.069 -0.4583  1.1828 -0.9826
19827TIP3    H280897   5.520   5.444  16.138 -0.7832 -2.4438 -1.1737
19828TIP3   OH280898   2.539   0.738  16.568  0.5365  0.6587 -0.7888
19828TIP3    H180899   2.608   0.774  16.624  1.9796 -0.9796 -1.4086
19828TIP3    H280900   2.538   0.795  16.491  2.4035 -0.2133 -1.5188
19829TIP3   OH280901   3.822   3.597   4.068 -0.2530  0.2101 -0.4432
19829TIP3    H180902   3.778   3.607   4.152  0.0345  1.5237 -0.4308
19829TIP3    H280903   3.907   3.557   4.091 -0.9904 -1.3873 -0.3637
19830TIP3   OH280904   4.730   3.085   0.272 -1.0490  0.7721  0.0522
19830TIP3    H180905   4.773   3.095   0.188 -2.3804  1.8388 -0.5348
19830TIP3    H280906   4.691   3.170   0.290  1.5461  1.5119  3.1496
19831TIP3   OH280907   6.278   2.064  13.372 -0.3450 -0.2639 -0.3117
19831TIP3    H180908   6.251   2.115  13.448 -0.6307 -2.0496  0.8458
19831TIP3    H280909   6.220   2.092  13.301  0.4650  2.0202 -0.1497
19832TIP3   OH280910   0.798   1.560  13.712 -0.0016 -0.0919  0.1371
19832TIP3    H180911   0.806   1.547  13.806 -0.0301  0.6321  0.2471
19832TIP3    H280912   0.834   1.480  13.673  1.9296  0.4296  0.7223
19833TIP3   OH280913   5.233   1.506  13.295 -0.1115  0.0210  0.1558
19833TIP3    H180914   5.319   1.465  13.292  0.1655  0.6380 -0.8789
19833TIP3    H280915   5.171   1.434  13.287  0.3642 -0.2027 -1.8974
19834TIP3   OH280916   5.787   3.354  12.841 -0.0590  0.2775 -0.0147
19834TIP3    H180917   5.875   3.367  12.806  0.7787 -1.6521  1.2120
19834TIP3    H280918   5.800   3.311  12.926 -2.1926 -1.8581 -0.6385
19835TIP3   OH280919   1.493   6.666  13.267  0.0081  0.2144  0.9192
19835TIP3    H180920   1.535   6.732  13.323 -4.8675  2.2374  2.7399
19835TIP3    H280921   1.459   6.716  13.194 -0.3791 -1.0740  0.1928
19836TIP3   OH280922   4.722   5.788   6.651  0.4113 -0.5584 -0.0076
19836TIP3    H180923   4.687   5.876   6.665  2.0617  0.1376  0.0256
19836TIP3    H280924   4.798   5.783   6.708 -0.6027 -2.6813  1.2940
19837TIP3   OH280925   4.494   6.292   5.707 -0.0793 -0.4403 -0.1686
19837TIP3    H180926   4.496   6.274   5.801 -0.3424 -0.5827 -0.1920
19837TIP3    H280927   4.433   6.229   5.671 -2.9292  1.9824  0.0720
19838TIP3   OH280928   4.146   2.409  11.545 -0.2760 -0.2397 -0.7526
19838TIP3    H180929   4.187   2.417  11.459 -0.9308  1.7748 -0.9308
19838TIP3    H280930   4.190   2.475  11.598 -0.9124 -0.4328  0.0312
19839TIP3   OH280931   4.330   4.935  12.982 -0.4183 -0.8106  0.6348
19839TIP3    H180932   4.343   4.978  13.067  0.7864 -0.0084  0.0704
19839TIP3    H280933   4.244   4.894  12.990 -0.3690 -0.6909  2.2153
19840TIP3   OH280934   1.505   0.900  11.949 -0.2759  0.2780  0.0976
19840TIP3    H180935   1.456   0.876  11.871 -0.9737 -0.9102  0.8678
19840TIP3    H280936   1.437   0.920  12.014  0.2892  0.6131  0.5907
19841TIP3   OH280937   3.914   6.576  11.693 -0.2395 -0.0994 -0.7817
19841TIP3    H180938   3.869   6.625  11.761  2.7926  1.3577  0.2944
19841TIP3    H280939   3.934   6.641  11.626  2.4753 -0.0733 -0.0351
19842TIP3   OH280940   5.978   2.258   3.901 -0.1038 -0.1015 -0.0386
19842TIP3    H180941   5.999   2.186   3.960 -0.0469  1.0410  1.4023
19842TIP3    H280942   5.889   2.284   3.925 -0.0430  0.4473 -0.3761
19843TIP3   OH280943   4.338   3.757  12.077  0.2171  0.1978  0.3072
19843TIP3    H180944   4.248   3.773  12.051 -0.1994 -0.4682  1.2927
19843TIP3    H280945   4.389   3.776  11.998 -0.8050  0.2304 -0.3678
19844TIP3   OH280946   6.314   6.204  12.501 -0.1358 -0.2005 -0.0680
19844TIP3    H180947   6.375   6.194  12.574  0.1048  1.5989  0.0278
19844TIP3    H280948   6.249   6.135  12.515  0.1848 -0.2165  1.5647
19845TIP3   OH280949   1.624   3.239   5.397 -0.0713  0.2088  0.1109
19845TIP3    H180950   1.690   3.241   5.466 -0.1437 -1.8622  0.2768
19845TIP3    H280951   1.611   3.332   5.375  0.9808  0.8263  1.8633
19846TIP3   OH280952   1.727   4.001   0.220 -0.1520  0.6457 -0.6617
19846TIP3    H180953   1.750   3.911   0.246  1.5934  0.9170 -1.1106
19846TIP3    H280954   1.752   4.054   0.296  1.2116  0.9952 -1.3120
19847TIP3   OH280955   1.532   6.366   4.268  0.2339 -0.3725 -0.3173
19847TIP3    H180956   1.508   6.297   4.205 -1.4984 -0.8727  0.8341
19847TIP3    H280957   1.613   6.402   4.233 -1.0003 -0.1360 -3.2595
19848TIP3   OH280958   5.071   5.326   3.095 -0.2818  0.0283  0.0909
19848TIP3    H180959   4.987   5.346   3.053 -0.4109  0.6235  0.6292
19848TIP3    H280960   5.130   5.396   3.065 -0.0728 -0.1698  0.0278
19849TIP3   OH280961   6.625   6.272   0.588  0.3913  0.0365 -0.2056
19849TIP3    H180962   6.605   6.351   0.538  0.9610  1.7405  2.1199
19849TIP3    H280963   6.720   6.261   0.580  0.1617 -1.2549 -1.6207
19850TIP3   OH280964   2.866   1.786  17.056 -0.5502 -0.8566  0.0904
19850TIP3    H180965   2.890   1.865  17.105 -1.1260 -0.3460 -0.4362
19850TIP3    H280966   2.779   1.763  17.088 -0.5906 -0.9936 -0.1139
19851TIP3   OH280967   2.050   3.236   5.154 -0.0088 -0.2250 -0.3651
19851TIP3    H180968   1.989   3.172   5.117 -1.2313 -0.3071  1.6355
19851TIP3    H280969   2.000   3.318   5.155  0.5263  0.1008 -0.2441
19852TIP3   OH280970   5.797   1.671   6.341  0.1159  0.4507 -0.5949
19852TIP3    H180971   5.771   1.762   6.326  0.1904  0.7336  0.8423
19852TIP3    H280972   5.881   1.677   6.387 -0.5466 -0.2913  0.7755
19853TIP3   OH280973   3.092   0.878   4.608  0.2091  0.1166 -0.4893
19853TIP3    H180974   3.002   0.846   4.611  0.6467 -1.0645  0.8913
19853TIP3    H280975   3.107   0.915   4.694  1.6685 -1.5326  0.0069
19854TIP3   OH280976   5.205   0.578  16.093 -0.0389  0.3876 -0.4910
19854TIP3    H180977   5.295   0.565  16.122 -0.3016 -1.3590 -0.3622
19854TIP3    H280978   5.172   0.490  16.075 -0.5548  1.1811 -4.2226
19855TIP3   OH280979   1.553   1.622  14.609 -0.1113  0.4075  0.2776
19855TIP3    H180980   1.591   1.669  14.684  2.0120  1.8073 -1.5555
19855TIP3    H280981   1.618   1.631  14.539 -2.2116 -0.3924 -1.9207
19856TIP3   OH280982   4.203   0.247  15.711  0.5178  0.1438  0.3179
19856TIP3    H180983   4.249   0.294  15.781  0.7948 -0.1220  0.3137
19856TIP3    H280984   4.187   0.313  15.644  2.3418 -0.0994 -0.4112
19857TIP3   OH280985   1.084   4.193   1.926  0.0368 -0.6302 -0.2302
19857TIP3    H180986   1.115   4.112   1.886 -0.9240 -0.6223 -1.0379
19857TIP3    H280987   1.021   4.229   1.862  0.9936  1.1308 -0.2504
19858TIP3   OH280988   2.907   4.293   3.573 -0.3924 -0.2325 -0.9255
19858TIP3    H180989   2.878   4.202   3.581 -1.4527  0.2365  1.5067
19858TIP3    H280990   2.982   4.299   3.632 -0.4136  0.5058 -0.9720
19859TIP3   OH280991   2.115   1.740   6.402 -0.3643 -0.2264  0.3665
19859TIP3    H180992   2.072   1.696   6.328 -2.1922  1.0034  0.6547
19859TIP3    H280993   2.189   1.683   6.424 -0.8967 -1.5794 -1.1899
19860TIP3   OH280994   4.611   4.137   1.981 -0.0860  0.3217  0.4740
19860TIP3    H180995   4.650   4.073   1.921 -0.4841  0.5072  0.0045
19860TIP3    H280996   4.564   4.084   2.045 -0.1465  0.1342  0.2772
19861TIP3   OH280997   0.812   4.636   0.850  0.0554  0.5585  0.3807
19861TIP3    H180998   0.724   4.672   0.849  0.2689  1.1349 -1.3171
19861TIP3    H280999   0.817   4.586   0.931 -1.9191  0.2748  0.3673
19862TIP3   OH281000   6.743   1.005   5.348  0.1020 -0.5132  0.1829
19862TIP3    H181001   6.712   0.939   5.410  2.3440 -0.1037  1.8557
19862TIP3    H281002   6.811   0.961   5.297  1.0620  0.2279  0.7773
19863TIP3   OH281003   3.975   2.515   6.370 -0.0782  0.5285  0.2182
19863TIP3    H181004   4.022   2.596   6.389  1.6255 -0.9969  3.2018
19863TIP3    H281005   3.914   2.504   6.443  0.9409 -1.6595  0.8293
19864TIP3   OH281006   0.694   0.945  17.321 -0.1099  0.0329 -0.2390
19864TIP3    H181007   0.781   0.978  17.298  1.0055 -0.9892  2.1944
19864TIP3    H281008   0.639   1.023  17.320  1.2890  1.0828  0.1628
19865TIP3   OH281009   3.673   0.799   4.207 -0.1410  0.3060  0.0012
19865TIP3    H181010   3.588   0.843   4.207 -1.0788 -1.4249  0.6559
19865TIP3    H281011   3.695   0.788   4.299  1.2151  1.4264 -0.1465
19866TIP3   OH281012   4.681   0.988  16.143 -0.2218 -0.1314  0.3392
19866TIP3    H181013   4.725   0.995  16.228 -0.2429  1.3499  0.2542
19866TIP3    H281014   4.742   0.939  16.088 -0.0638 -0.8221  1.1067
19867TIP3   OH281015   5.879   0.803   3.675  0.5025 -0.1386 -0.5077
19867TIP3    H181016   5.973   0.785   3.680  0.1155 -2.5613 -0.8851
19867TIP3    H281017   5.855   0.825   3.765  1.3500  0.1775 -0.3417
19868TIP3   OH281018   4.979   3.573  15.356  0.2805  0.2877 -0.0782
19868TIP3    H181019   4.892   3.612  15.364  0.7055  1.3603 -0.5078
19868TIP3    H281020   5.038   3.648  15.354  1.3889 -0.4601  2.0095
19869TIP3   OH281021   4.731   6.059  15.978  0.2050  0.1603  0.0135
19869TIP3    H181022   4.762   5.980  15.934 -0.0606  0.2377 -0.3182
19869TIP3    H281023   4.780   6.062  16.060 -0.2887 -0.7402  0.3586
19870TIP3   OH281024   3.007   1.890  11.637 -0.2930 -0.2655  0.8005
19870TIP3    H181025   3.065   1.843  11.696  0.0997 -0.9223 -0.0858
19870TIP3    H281026   3.064   1.952  11.591 -0.8561  1.3641  2.1915
19871TIP3   OH281027   3.749   6.699  13.906 -0.5163 -0.3811  0.4010
19871TIP3    H181028   3.729   6.700  14.000 -1.4745  0.6235  0.2092
19871TIP3    H281029   3.728   6.787  13.876  1.7160 -0.0647 -0.4016
19872TIP3   OH281030   1.295   5.727  11.423  0.2144 -0.2242  0.1074
19872TIP3    H181031   1.289   5.724  11.327 -0.8615 -2.9139  0.1732
19872TIP3    H281032   1.204   5.731  11.453  0.4709 -0.7120  1.0021
19873TIP3   OH281033   2.610   6.461  16.163 -0.0719 -0.2999 -0.0015
19873TIP3    H181034   2.662   6.427  16.091  0.6690  0.8001 -0.0009
19873TIP3    H281035   2.525   6.480  16.125 -0.6313 -2.4111  0.0674
19874TIP3   OH281036   0.601   1.354   2.598 -0.2320 -0.3448  0.1879
19874TIP3    H181037   0.601   1.274   2.649  0.6621  0.0118  0.7722
19874TIP3    H281038   0.557   1.331   2.516 -1.2355 -1.0548  0.9056
19875TIP3   OH281039   5.779   5.974  17.029 -1.0716  0.2191  0.4623
19875TIP3    H181040   5.688   5.989  17.004 -1.0277  0.5069  0.4768
19875TIP3    H281041   5.774   5.910  17.100 -1.3052  0.7124  0.9014
19876TIP3   OH281042   2.759   3.894  12.804 -0.2331 -0.5901  0.1636
19876TIP3    H181043   2.777   3.873  12.713 -1.8560 -0.7844 -0.1505
19876TIP3    H281044   2.815   3.835  12.854 -0.9953 -2.1251 -0.7103
19877TIP3   OH281045   0.187   1.561  11.348 -0.4749 -0.4136  0.2191
19877TIP3    H181046   0.097   1.592  11.363 -0.6595 -0.3702 -0.9142
19877TIP3    H281047   0.240   1.641  11.348 -0.7491 -0.2078 -1.2505
19878TIP3   OH281048   2.072   1.558   3.879 -0.0902 -0.1938 -0.3429
19878TIP3    H181049   2.019   1.491   3.921  0.8608 -0.2451  0.8436
19878TIP3    H281050   2.149   1.511   3.846  0.3197  0.2094  0.0146
19879TIP3   OH281051   3.952   2.427   4.006  0.1680  0.2488  0.2719
19879TIP3    H181052   4.043   2.456   4.010 -0.4636  2.2167  2.0684
19879TIP3    H281053   3.937   2.384   4.090 -0.3702 -0.8392 -0.3567
19880TIP3   OH281054   5.644   2.781  13.889  0.3035  0.2121 -0.2034
19880TIP3    H181055   5.568   2.832  13.918  0.0875 -0.7661  1.0254
19880TIP3    H281056   5.648   2.796  13.794 -2.5398 -1.1298 -0.6480
19881TIP3   OH281057   5.386   5.026   0.147  0.1044 -0.2921  0.6392
19881TIP3    H181058   5.309   5.066   0.188 -0.4731  0.4081 -1.0464
19881TIP3    H281059   5.459   5.057   0.200 -0.4042  2.4142 -0.0730
19882TIP3   OH281060   6.202   1.433  11.933 -0.4408 -0.4444 -0.1329
19882TIP3    H181061   6.125   1.393  11.972 -1.2493  0.3518 -0.8560
19882TIP3    H281062   6.223   1.378  11.858 -0.2951 -0.6615  0.0645
19883TIP3   OH281063   0.290   3.045   1.267 -0.4000 -0.1108 -0.4333
19883TIP3    H181064   0.210   3.048   1.319  0.6507  0.8806  1.2390
19883TIP3    H281065   0.269   2.989   1.192 -2.8342  0.6644 -0.4058
19884TIP3   OH281066   5.485   4.423   1.081  0.5627  0.2229  0.0759
19884TIP3    H181067   5.492   4.335   1.045  0.5199  0.1571  0.2274
19884TIP3    H281068   5.469   4.479   1.005  0.7116  0.1155 -0.0335
19885TIP3   OH281069   4.455   0.222   4.752 -0.5481 -0.4026  0.8214
19885TIP3    H181070   4.392   0.279   4.707 -1.1782 -0.1321  2.0055
19885TIP3    H281071   4.516   0.281   4.794 -0.8866 -0.5934  1.6087
19886TIP3   OH281072   2.817   1.380  16.761 -0.0244 -0.2306 -0.7946
19886TIP3    H181073   2.743   1.352  16.814  0.2356 -0.4484 -0.5417
19886TIP3    H281074   2.806   1.475  16.752  0.8140  0.0797  1.0448
19887TIP3   OH281075   1.636   5.523   6.619  0.0965  0.0463  0.3360
19887TIP3    H181076   1.661   5.440   6.578  0.8258  0.4629 -0.0789
19887TIP3    H281077   1.559   5.501   6.672  1.3049 -1.2687  1.6276
19888TIP3   OH281078   6.056   3.791   0.581  0.1101 -0.6198  0.3851
19888TIP3    H181079   5.971   3.822   0.614  0.3025  0.8741 -0.4321
19888TIP3    H281080   6.120   3.840   0.632  0.4459 -0.4531 -0.1898
19889TIP3   OH281081   2.514   4.616  14.232 -0.1716  0.5479 -0.0039
19889TIP3    H181082   2.458   4.546  14.200 -0.4065  0.7397 -0.0160
19889TIP3    H281083   2.480   4.636  14.319  0.5495 -0.0676  0.4324
19890TIP3   OH281084   2.552   2.482  14.151 -0.3330 -0.2706  0.1332
19890TIP3    H181085   2.607   2.416  14.195  1.7427  1.1807 -0.1129
19890TIP3    H281086   2.511   2.530  14.223  0.0936 -0.2775  0.3864
19891TIP3   OH281087   3.850   5.395  13.513  0.2261 -0.5371  0.1826
19891TIP3    H181088   3.848   5.455  13.586  0.8214 -1.3760  0.9143
19891TIP3    H281089   3.940   5.361  13.512  0.7466  0.6681 -1.9595
19892TIP3   OH281090   3.493   2.018   6.476  0.3270  0.2567  0.7653
19892TIP3    H181091   3.489   1.969   6.559  0.6022  0.9529  1.2041
19892TIP3    H281092   3.451   2.102   6.496  1.8180  1.0535  0.6621
19893TIP3   OH281093   1.161   2.984   5.506 -0.6820 -0.3565  0.3149
19893TIP3    H181094   1.105   3.062   5.502 -0.6091  0.0617  4.1190
19893TIP3    H281095   1.244   3.012   5.467 -1.4866  0.5564 -0.8293
19894TIP3   OH281096   5.906   1.647   5.928 -0.5289 -0.5031 -0.2153
19894TIP3    H181097   5.878   1.735   5.904 -1.4388 -1.5383 -3.4968
19894TIP3    H281098   6.000   1.654   5.943 -0.4332  0.8711 -1.2866
19895TIP3   OH281099   4.824   2.513  15.274  0.2404 -0.3340 -0.3026
19895TIP3    H181100   4.814   2.513  15.369  1.5412  0.0831 -0.1428
19895TIP3    H281101   4.889   2.445  15.257  0.1475 -0.2847 -0.8787
19896TIP3   OH281102   2.674   0.923  16.410  0.2236  0.5057 -0.0977
19896TIP3    H181103   2.767   0.922  16.391  0.1262 -0.2108 -0.5983
19896TIP3    H281104   2.666   0.971  16.492  0.9415  1.3191 -0.4932
19897TIP3   OH281105   1.046   2.450  17.205  0.5760  0.3986  0.4281
19897TIP3    H181106   0.952   2.463  17.191  0.7291  1.1843  0.0212
19897TIP3    H281107   1.085   2.535  17.182  1.4247 -0.0473  0.1764
19898TIP3   OH281108   4.229   0.316  17.185 -0.0815  0.3853  0.0083
19898TIP3    H181109   4.201   0.396  17.140  1.5215  1.3961  0.7125
19898TIP3    H281110   4.184   0.246  17.139  0.9609  1.4060 -2.7996
19899TIP3   OH281111   2.249   2.436   1.553  0.0384  1.0919 -0.3193
19899TIP3    H181112   2.161   2.475   1.555 -0.3764  0.1468  0.8291
19899TIP3    H281113   2.272   2.424   1.645 -1.2193 -4.2344 -0.4155
19900TIP3   OH281114   4.557   4.949  12.315  0.5758  0.5998 -0.5761
19900TIP3    H181115   4.507   4.962  12.396 -0.4239 -1.0424 -0.8985
19900TIP3    H281116   4.492   4.960  12.245  1.3215  1.4655 -1.1616
19901TIP3   OH281117   5.676   4.586   4.989 -0.6021  0.4046  0.1849
19901TIP3    H181118   5.673   4.543   4.904 -1.2363  1.3810 -0.3016
19901TIP3    H281119   5.672   4.514   5.052 -1.4783 -0.2653 -0.6054
19902TIP3   OH281120   2.979   1.335  10.898 -0.1626  0.3214  0.4914
19902TIP3    H181121   2.915   1.264  10.899 -2.0787  1.9424 -0.1706
19902TIP3    H281122   2.976   1.369  10.808  2.9152 -0.5831 -0.0769
19903TIP3   OH281123   2.953   4.468  14.049 -0.9248 -0.0084  0.7890
19903TIP3    H181124   2.874   4.521  14.064 -0.7036 -0.1024  2.4282
19903TIP3    H281125   2.976   4.485  13.958 -2.4217  0.5898  0.4888
19904TIP3   OH281126   1.972   4.504   4.220  0.0080 -0.3436  0.1251
19904TIP3    H181127   2.024   4.497   4.300  2.2132  0.3180 -1.1537
19904TIP3    H281128   2.036   4.524   4.152 -1.8620 -0.3118 -1.7240
19905TIP3   OH281129   1.532   2.130   0.592  0.0918  1.1221  0.4840
19905TIP3    H181130   1.598   2.199   0.582  0.1936  0.9038 -0.4208
19905TIP3    H281131   1.577   2.061   0.640  1.0249  0.3520 -1.3907
19906TIP3   OH281132   5.982   5.720   1.784  0.2451  0.6736  0.2389
19906TIP3    H181133   5.945   5.699   1.698 -0.2392 -0.5197  0.7161
19906TIP3    H281134   6.043   5.649   1.801  0.9042  1.3083  0.5680
19907TIP3   OH281135   5.101   4.521   3.861 -0.8007 -0.7432 -0.3461
19907TIP3    H181136   5.169   4.481   3.808 -0.0842 -1.0717  0.7758
19907TIP3    H281137   5.134   4.610   3.877 -0.2774 -1.1184  0.7637
19908TIP3   OH281138   4.010   4.698   5.684 -0.5560  0.5342  0.2683
19908TIP3    H181139   3.982   4.725   5.596 -0.6554 -1.1543 -0.2660
19908TIP3    H281140   4.024   4.604   5.676  2.8669  0.8323  1.1619
19909TIP3   OH281141   3.789   6.286  13.970 -0.1349  0.1441 -0.4223
19909TIP3    H181142   3.726   6.220  13.942  0.2193  0.5608 -2.3622
19909TIP3    H281143   3.746   6.332  14.042 -1.0005 -1.1790 -0.0728
19910TIP3   OH281144   4.208   3.507   4.462 -0.1974 -0.1626  0.0985
19910TIP3    H181145   4.171   3.535   4.546  0.9996 -1.3792  1.0945
19910TIP3    H281146   4.303   3.505   4.478  0.0983  0.1271 -1.4803
19911TIP3   OH281147   0.408   4.191  11.096  0.4569  0.7474  0.6782
19911TIP3    H181148   0.333   4.212  11.042 -0.9805  2.6339  3.1865
19911TIP3    H281149   0.478   4.249  11.066  0.2191  0.5954 -0.1837
19912TIP3   OH281150   0.757   0.388  14.681 -0.6731 -0.2113  0.4869
19912TIP3    H181151   0.709   0.306  14.678 -0.4185 -0.3305 -1.4161
19912TIP3    H281152   0.773   0.410  14.590  0.4250  1.2776  0.9969
19913TIP3   OH281153   0.904   0.290  13.333  0.1353 -0.2487 -0.5922
19913TIP3    H181154   0.918   0.373  13.287 -1.2389 -0.0696 -0.7203
19913TIP3    H281155   0.885   0.315  13.423  1.8712 -0.5564 -0.0972
19914TIP3   OH281156   5.957   1.977  15.673 -0.0611  0.0396 -0.2346
19914TIP3    H181157   5.926   1.887  15.662  1.1949 -0.3274 -1.0367
19914TIP3    H281158   5.882   2.032  15.650 -0.5957 -0.8014 -0.5419
19915TIP3   OH281159   0.470   3.750  13.114  0.1302 -0.4348  0.3864
19915TIP3    H181160   0.521   3.671  13.097 -1.5429 -1.6456  0.6816
19915TIP3    H281161   0.390   3.718  13.155 -0.1979  1.5188  1.4086
19916TIP3   OH281162   1.564   4.681  14.513 -0.5604 -0.0546 -0.7980
19916TIP3    H181163   1.495   4.743  14.490  0.2713  0.5624 -1.7167
19916TIP3    H281164   1.567   4.682  14.609 -1.1377  0.6577 -0.7827
19917TIP3   OH281165   1.791   3.370   4.526 -0.2624  0.0268 -0.4475
19917TIP3    H181166   1.862   3.315   4.493  0.0563  0.3552 -0.3199
19917TIP3    H281167   1.795   3.449   4.473 -0.9328 -0.2044 -0.8544
19918TIP3   OH281168   3.092   5.046  16.886 -0.2370 -0.0130 -0.5125
19918TIP3    H181169   3.187   5.042  16.875 -0.1597  1.1124 -0.3404
19918TIP3    H281170   3.066   4.955  16.902  0.6356 -0.5354 -1.8637
19919TIP3   OH281171   3.385   2.524  14.081  0.3480 -0.4235 -0.3072
19919TIP3    H181172   3.295   2.509  14.051  0.1975  1.5817 -0.9515
19919TIP3    H281173   3.435   2.537  14.001  0.7092  1.0489  0.1418
19920TIP3   OH281174   6.634   3.235  11.673 -0.0954 -0.0964 -0.0903
19920TIP3    H181175   6.678   3.288  11.740  1.9941  0.4382 -1.7826
19920TIP3    H281176   6.541   3.245  11.692  0.1606  4.0250 -0.1323
19921TIP3   OH281177   6.177   3.108   1.816 -0.1636  0.1299  0.4561
19921TIP3    H181178   6.145   3.035   1.763 -0.0932  2.2455 -2.7961
19921TIP3    H281179   6.114   3.178   1.801  0.5739  1.2354  2.2324
19922TIP3   OH281180   4.546   5.739   5.824  0.0609  0.4671 -0.2227
19922TIP3    H181181   4.630   5.784   5.832 -0.3326  1.7594 -2.5932
19922TIP3    H281182   4.487   5.804   5.787 -1.4630 -1.0149 -0.5287
19923TIP3   OH281183   3.031   3.263   2.637  0.1524  0.2929  0.4957
19923TIP3    H181184   3.008   3.261   2.730  3.0497  0.6770  1.3206
19923TIP3    H281185   2.995   3.182   2.601 -2.5995  0.9736  1.4621
19924TIP3   OH281186   1.369   2.014  14.519  0.0291 -0.2482  0.2472
19924TIP3    H181187   1.339   1.981  14.434  0.6726  0.0981 -0.1207
19924TIP3    H281188   1.460   1.984  14.525 -0.3569 -1.2726  1.3379
19925TIP3   OH281189   3.844   5.468  11.121  0.1533  0.2316 -0.3136
19925TIP3    H181190   3.848   5.513  11.037 -2.3951  2.7741  0.7548
19925TIP3    H281191   3.903   5.517  11.178 -2.3200  2.2579  0.7405
19926TIP3   OH281192   1.705   5.504   4.242 -0.6495 -0.3870  0.2109
19926TIP3    H181193   1.673   5.507   4.152 -1.5784 -1.4132  0.4933
19926TIP3    H281194   1.698   5.412   4.268  0.0973 -0.1988  1.1625
19927TIP3   OH281195   2.068   0.395   4.261 -0.3467 -0.0394 -0.4989
19927TIP3    H181196   2.106   0.330   4.202  1.2610  1.2093 -0.9128
19927TIP3    H281197   2.086   0.361   4.349 -1.0123 -0.9440 -0.6944
19928TIP3   OH281198   4.872   3.789   0.262 -0.0221  0.2841 -0.1551
19928TIP3    H181199   4.777   3.780   0.251 -0.1140 -0.1524  0.8938
19928TIP3    H281200   4.888   3.763   0.353  1.0554  0.7330 -0.2053
19929TIP3   OH281201   0.961   3.605  12.465 -0.5387 -0.3752  0.0494
19929TIP3    H181202   0.872   3.577  12.485 -0.5686 -1.9538 -1.9444
19929TIP3    H281203   1.018   3.542  12.509 -0.3547  0.7713  1.5189
19930TIP3   OH281204   4.780   2.962   3.080  0.1456 -0.0133 -0.3349
19930TIP3    H181205   4.751   2.998   3.164 -0.4168  1.3650 -1.0917
19930TIP3    H281206   4.747   3.023   3.015  0.7428 -0.9549 -1.5650
19931TIP3   OH281207   4.284   6.198   1.174  0.4952  0.2900 -0.8800
19931TIP3    H181208   4.305   6.106   1.187  0.3663  0.1386 -1.6740
19931TIP3    H281209   4.219   6.217   1.241  2.5936  0.5995  1.2040
19932TIP3   OH281210   5.003   3.449   1.085 -0.7593 -0.0790 -0.2914
19932TIP3    H181211   5.060   3.429   1.159 -1.4101  0.7058  0.4331
19932TIP3    H281212   5.063   3.484   1.019  0.2365 -3.1389 -1.1843
19933TIP3   OH281213   0.359   4.314  12.323  1.1043 -0.2772  0.4236
19933TIP3    H181214   0.390   4.224  12.314 -1.2733 -1.1314  0.1645
19933TIP3    H281215   0.277   4.307  12.372 -0.3136  1.4482 -1.5146
19934TIP3   OH281216   0.723   5.335  14.489  0.2383 -0.1767 -0.5162
19934TIP3    H181217   0.638   5.294  14.475  0.0810  0.4510 -1.4887
19934TIP3    H281218   0.782   5.289  14.430  0.4349 -0.1600 -0.3351
19935TIP3   OH281219   3.031   5.620   3.967 -0.6195  0.1970 -0.2914
19935TIP3    H181220   3.060   5.643   3.879 -0.1130 -0.4139 -0.2923
19935TIP3    H281221   3.003   5.703   4.006  0.5945  0.7265 -0.5034
19936TIP3   OH281222   3.166   2.365  12.354  0.3201 -0.9000  0.7157
19936TIP3    H181223   3.120   2.315  12.286 -0.2856  0.7078 -0.1113
19936TIP3    H281224   3.210   2.299  12.407 -0.3336 -2.2888 -0.4138
19937TIP3   OH281225   3.027   0.677   3.307 -0.2916 -0.2084 -0.6006
19937TIP3    H181226   3.082   0.755   3.297  0.3261 -0.4711  0.6160
19937TIP3    H281227   3.087   0.603   3.305 -0.6823 -0.5516 -0.0736
19938TIP3   OH281228   4.561   4.952   0.946 -0.0025  0.3370 -0.8801
19938TIP3    H181229   4.544   4.925   1.037  0.4968 -0.3031 -0.9673
19938TIP3    H281230   4.490   4.912   0.895 -0.4101  0.8813 -0.7489
19939TIP3   OH281231   5.498   1.997   6.033  0.0601  0.1068 -0.3691
19939TIP3    H181232   5.551   2.057   6.087  0.4703 -0.0952 -0.5415
19939TIP3    H281233   5.551   1.918   6.026 -1.3360 -1.0635  1.5197
19940TIP3   OH281234   1.657   6.603  14.290 -0.1436 -0.3982 -0.4800
19940TIP3    H181235   1.622   6.635  14.208 -0.7894  1.1882  0.3804
19940TIP3    H281236   1.716   6.672  14.320 -1.4377 -0.0232  1.3483
19941TIP3   OH281237   5.045   2.233  16.341  0.3260  0.3460 -0.0134
19941TIP3    H181238   5.094   2.193  16.269 -1.6848  0.0335 -1.2708
19941TIP3    H281239   5.049   2.327  16.323  1.2474  0.4164  0.4547
19942TIP3   OH281240   2.364   0.637  13.507  0.0009  0.4754  0.2825
19942TIP3    H181241   2.310   0.703  13.463  1.9812  1.2987 -1.0232
19942TIP3    H281242   2.308   0.559  13.508 -1.7442  1.6577  0.3034
19943TIP3   OH281243   2.225   4.747   1.473 -0.6168  0.6501  0.0791
19943TIP3    H181244   2.278   4.681   1.428  1.4899  1.4207  1.2981
19943TIP3    H281245   2.162   4.777   1.407  0.9270  0.1771 -1.6662
19944TIP3   OH281246   0.494   5.896   1.916  0.0115 -0.0632  0.3812
19944TIP3    H181247   0.493   5.824   1.854  1.2933 -0.9312  1.3257
19944TIP3    H281248   0.583   5.899   1.949 -0.8828 -0.4264  3.0794
19945TIP3   OH281249   3.894   5.041  15.616  0.0819 -0.1778 -0.1564
19945TIP3    H181250   3.916   4.988  15.540  1.1156  1.3255 -0.9565
19945TIP3    H281251   3.832   5.106  15.583  1.1916  1.0239  0.0521
19946TIP3   OH281252   1.303   4.469  16.600 -0.0694  1.1794 -0.1775
19946TIP3    H181253   1.280   4.427  16.518  0.6446  1.5039 -0.5499
19946TIP3    H281254   1.224   4.518  16.625 -0.4731  0.6427 -0.3811
19947TIP3   OH281255   3.280   3.394  16.343  0.0350  0.4475 -0.5580
19947TIP3    H181256   3.354   3.414  16.286  0.4392 -0.6689 -0.4480
19947TIP3    H281257   3.294   3.448  16.421  0.4183  0.6785 -0.7862
19948TIP3   OH281258   1.640   1.959   2.393  0.7180  0.3176  0.5425
19948TIP3    H181259   1.592   1.876   2.400  1.0668  0.2326  2.3102
19948TIP3    H281260   1.644   1.976   2.298  0.4689 -1.5720  0.1493
19949TIP3   OH281261   3.977   3.679   1.697  0.3475  0.4631 -0.9134
19949TIP3    H181262   4.055   3.628   1.678  0.3505  0.7701 -1.7562
19949TIP3    H281263   3.974   3.745   1.628 -0.7946  0.2948 -1.0395
19950CLA    CLA81264   0.888   4.452   2.097  0.1051  0.0285  0.0687
19951LIG      S81265   2.253   3.261   0.216  0.1255  0.6559  0.5442
19951LIG     O181266   2.731   2.945   0.094  0.4971  0.5867 -0.0694
19951LIG     O281267   2.492   3.082   0.346  0.0703  0.5213 -0.1414
19951LIG     O381268   2.226   3.251   0.818 -0.1202 -0.3821 -0.3234
19951LIG     O481269   2.251   3.500   0.674  0.1028 -0.0105 -0.2342
19951LIG      N81270   2.898   3.344   0.282  0.2465  0.4606  0.1978
19951LIG     C181271   2.742   3.186   0.070 -0.7119  0.5391  0.0543
19951LIG     C281272   2.741   3.364   0.258  0.1544 -0.5297  0.2397
19951LIG     C381273   2.934   3.206   0.231 -0.0829 -0.3365 -0.0924
19951LIG     C481274   2.689   3.325   0.119 -0.4303  0.1641 -0.7462
19951LIG     C581275   2.896   3.183   0.080  0.2929 -0.3802  0.4090
19951LIG     C681276   2.985   3.443   0.206 -0.1032  0.3799 -0.1047
19951LIG     C781277   2.674   3.068   0.135 -0.3508  0.0641  0.0278
19951LIG     C881278   2.926   3.346   0.422 -0.6585 -0.4813 -0.7104
19951LIG     C981279   2.523   3.067   0.110 -0.6328  0.5153 -0.3212
19951LIG    C1081280   2.969   3.578   0.258  0.7344 -0.0380  0.5162
19951LIG    C1181281   2.439   3.081   0.235  0.3235  0.0436  0.0568
19951LIG    C1281282   2.289   3.088   0.224 -0.0975  0.1399 -0.3791
19951LIG    C1381283   2.861   3.661   0.223  0.1340  0.0039 -0.7752
19951LIG    C1481284   3.078   3.629   0.332  0.5815  0.4987  0.1821
19951LIG    C1581285   2.213   3.037   0.350  0.2599  0.2155 -0.5950
19951LIG    C1681286   2.228   3.144   0.454 -0.5302  0.5201  0.9445
19951LIG    C1781287   2.857   3.789   0.273 -0.5910  0.1017 -0.5179
19951LIG    C1881288   3.067   3.762   0.386 -0.6888  0.4204  0.6317
19951LIG    C1981289   2.240   3.269   0.392 -0.6422 -0.5533  1.0747
19951LIG    C2081290   2.954   3.839   0.355 -0.3397 -0.5005  0.4825
19951LIG    C2181291   2.203   3.139   0.589 -0.7591  0.0757 -0.9102
19951LIG    C2281292   2.246   3.382   0.461  0.6630  0.0115  0.0616
19951LIG    C2381293   2.227   3.255   0.670  0.2799  0.1085  0.2186
19951LIG    C2481294   2.244   3.380   0.603  0.6164 -0.9429 -0.3540
19951LIG    C2581295   2.180   3.130   0.873  0.2687 -0.1373 -0.2024
19951LIG    C2681296   2.290   3.624   0.612  0.3075 -0.1515 -0.0679
19951LIG     H181297   2.720   3.191  -0.039 -0.8260 -2.5674 -0.1403
19951LIG     H281298   2.719   3.465   0.290  0.1976 -1.2959  2.9092
19951LIG     H381299   2.694   3.298   0.329 -3.7094 -0.7522 -2.2353
19951LIG     H481300   2.884   3.136   0.296 -1.1967  1.1639  0.7163
19951LIG     H581301   3.040   3.192   0.244 -0.3238 -0.1183  2.4914
19951LIG     H681302   2.578   3.324   0.122 -0.4382  1.3596 -0.0909
19951LIG     H781303   2.720   3.404   0.048 -3.3866  1.1496 -1.0625
19951LIG     H881304   2.942   3.266   0.023 -0.2667 -0.0419  0.4515
19951LIG     H981305   2.929   3.085   0.039  0.4718  0.3217 -1.2154
19951LIG    H1081306   2.971   3.438   0.099 -0.2306 -0.6409 -0.0432
19951LIG    H1181307   3.086   3.408   0.225 -0.3078 -2.3387 -3.1294
19951LIG    H1281308   2.693   3.069   0.245 -0.6925  1.1981  0.0953
19951LIG    H1381309   3.030   3.325   0.443 -0.0031  1.0475 -2.2439
19951LIG    H1481310   2.870   3.269   0.474 -1.1173 -1.3223 -2.4071
19951LIG    H1581311   2.900   3.445   0.457  0.2527 -1.3661  3.0238
19951LIG    H1681312   2.490   2.973   0.062 -1.8837 -0.3774  2.1119
19951LIG    H1781313   2.507   3.137   0.025  1.5426 -1.7839 -2.8091
19951LIG    H1881314   2.683   2.931   0.012 -0.3714  0.8438  0.3828
19951LIG    H1981315   2.259   3.031   0.134  3.1491 -0.1869 -1.4004
19951LIG    H2081316   2.786   3.630   0.152 -0.7211 -0.2597  0.2099
19951LIG    H2181317   3.164   3.569   0.355  1.5581  2.1134  0.8585
19951LIG    H2281318   2.253   2.939   0.377 -0.7658 -0.6764 -2.1768
19951LIG    H2381319   2.110   3.032   0.312  0.3011  0.7984 -0.8040
19951LIG    H2481320   2.772   3.852   0.253  0.3771  1.6732  0.1568
19951LIG    H2581321   3.147   3.797   0.450 -1.0339 -1.8738  2.4473
19951LIG    H2681322   2.938   3.938   0.395  2.7858  0.2035  0.2467
19951LIG    H2781323   2.188   3.043   0.636 -0.7629 -1.0931 -3.1467
19951LIG    H2881324   2.259   3.475   0.408  0.3307 -1.0684 -2.0191
19951LIG    H2981325   2.087   3.102   0.818 -0.0976  0.2751  0.2017
19951LIG    H3081326   2.168   3.146   0.982  1.4403  0.2845 -0.1261
19951LIG    H3181327   2.253   3.048   0.856  0.1804  0.0080 -1.3340
19951LIG    H3281328   2.229   3.642   0.521 -0.6321  0.5244  0.6680
19951LIG    H3381329   2.394   3.618   0.574 -0.3908 -1.0123 -1.9633
19951LIG    H3481330   2.279   3.708   0.684  1.9324 -1.6558  2.0864
   6.75491   6.75491  17.37515
